Siesta Version:                                        siesta-3.2-pl-3
Architecture  : x86_64-unknown-linux-gnu--unknown
Compiler flags: mpiifort -g -O2 -fPIC -xSSE4.1 -fp-model source -shared-intel 
PARALLEL version

* Running on    8 nodes in parallel
>> Start of run:   8-MAY-2016   2:19:22

                           ***********************       
                           *  WELCOME TO SIESTA  *       
                           ***********************       

reinit: Reading from standard input
************************** Dump of input data file ****************************
#(1) General system descriptors
SystemName            GRP_doping    # Descriptive name of the system
SystemLabel           GRP_doping    # Short name for naming files
%include STRUCT.fdf
%include KPT.fdf
%include BASIS.fdf
#%include TS.fdf # for transiesta calculation
#(4) DFT, Grid, SCF
XC.functional         GGA           # LDA or GGA (default = LDA)
XC.authors            PBE           # CA (Ceperley-Aldr) = PZ
                                    #    (Perdew-Zunger) - LDA - Default
                                    # PW92 (Perdew-Wang-92) - LDA
                                    # PBE (Perdew-Burke-Ernzerhof) - GGA
MeshCutoff            200.000000    Ry      # Default: 50.0 Ry ~ 0.444 Bohr
                                    #         100.0 Ry ~ 0.314 Bohr
MaxSCFIterations      500           # Default: 50
DM.MixingWeight       0.05          # Default: 0.25
DM.NumberPulay        10            # Default: 0
DM.PulayOnFile        F             # SystemLabel.P1, SystemLabel.P2
DM.Tolerance          1.d-4         # Default: 1.d-4
DM.UseSaveDM          .true.        # because of the bug
SCFMustConverge       .true.
NeglNonOverlapInt     F             # Default: F
#(5) Eigenvalue problem: order-N or diagonalization
SolutionMethod        Diagon        # or Transiesta
ElectronicTemperature 300.0 K       # Default: 300.0 K
#(6) Molecular dynamics and relaxations
#MD.TypeOfRun          CG            # Type of dynamics:
#MD.VariableCell       F
#MD.NumCGsteps         0           # 0 for single-point / 100 for gopt
#MD.MaxCGDispl         0.2 Bohr      # Default: 0.2 Bohr
#MD.MaxForceTol        0.02 eV/Ang   # Default: 0.04 eV/Ang
#MD.MaxStressTol       1.0 GPa       # Default: 1.0 GPa
# Geometry Constraints
#%block GeometryConstraints
#	position from 1 to 44
#%endblock GeometryConstraints
BandLinesScale   pi/a
%block BandLines
 1   0.00000000  0.00000000  0.00000000
50   0.00000000  0.07809418  0.00000000
50   0.04509075  0.07809242  0.00000000
20   0.00000000  0.00000000  0.00000000
%endblock BandLines
************************** End of input data file *****************************

reinit: -----------------------------------------------------------------------
reinit: System Name: GRP_doping
reinit: -----------------------------------------------------------------------
reinit: System Label: GRP_doping                                                  
reinit: -----------------------------------------------------------------------

initatom: Reading input for the pseudopotentials and atomic orbitals ----------
 Species number:            1  Label: B Atomic number:           5
 Species number:            2  Label: C Atomic number:           6
Ground state valence configuration:   2s02  2p01
Reading pseudopotential information in formatted form from B.psf

Valence configuration for pseudopotential generation:
2s( 2.00) rc: 1.74
2p( 1.00) rc: 1.74
3d( 0.00) rc: 1.74
4f( 0.00) rc: 1.74
Ground state valence configuration:   2s02  2p02
Reading pseudopotential information in formatted form from C.psf

Valence configuration for pseudopotential generation:
2s( 2.00) rc: 1.54
2p( 2.00) rc: 1.54
3d( 0.00) rc: 1.54
4f( 0.00) rc: 1.54
For B, standard SIESTA heuristics set lmxkb to 3
 (one more than the basis l, including polarization orbitals).
Use PS.lmax or PS.KBprojectors blocks to override.
For C, standard SIESTA heuristics set lmxkb to 3
 (one more than the basis l, including polarization orbitals).
Use PS.lmax or PS.KBprojectors blocks to override.

<basis_specs>
===============================================================================
B                    Z=   5    Mass=  10.810        Charge= 0.17977+309
Lmxo=1 Lmxkb= 3    BasisType=split      Semic=F
L=0  Nsemic=0  Cnfigmx=2
          n=1  nzeta=2  polorb=0
            splnorm:   0.15000    
               vcte:    0.0000    
               rinn:    0.0000    
                rcs:    0.0000      0.0000    
            lambdas:    1.0000      1.0000    
L=1  Nsemic=0  Cnfigmx=2
          n=1  nzeta=2  polorb=1
            splnorm:   0.15000    
               vcte:    0.0000    
               rinn:    0.0000    
                rcs:    0.0000      0.0000    
            lambdas:    1.0000      1.0000    
-------------------------------------------------------------------------------
L=0  Nkbl=1  erefs: 0.17977+309
L=1  Nkbl=1  erefs: 0.17977+309
L=2  Nkbl=1  erefs: 0.17977+309
L=3  Nkbl=1  erefs: 0.17977+309
===============================================================================
</basis_specs>

atom: Called for B                     (Z =   5)

read_vps: Pseudopotential generation method:
read_vps: ATM3      Troullier-Martins                       
Total valence charge:    3.00000

read_vps: Pseudopotential includes a core correction:
read_vps: Pseudo-core for xc-correction

xc_check: Exchange-correlation functional:
xc_check: GGA Perdew, Burke & Ernzerhof 1996
V l=0 = -2*Zval/r beyond r=  1.7165
V l=1 = -2*Zval/r beyond r=  1.7165
V l=2 = -2*Zval/r beyond r=  1.7165
V l=3 = -2*Zval/r beyond r=  1.6951
All V_l potentials equal beyond r=  1.7165
This should be close to max(r_c) in ps generation
All pots = -2*Zval/r beyond r=  1.7165

VLOCAL1: 99.0% of the norm of Vloc inside     14.733 Ry
VLOCAL1: 99.9% of the norm of Vloc inside     33.577 Ry
atom: Maximum radius for 4*pi*r*r*local-pseudopot. charge    2.04484
atom: Maximum radius for r*vlocal+2*Zval:    1.75994
GHOST: No ghost state for L =  0
GHOST: No ghost state for L =  1
GHOST: No ghost state for L =  2
GHOST: No ghost state for L =  3

KBgen: Kleinman-Bylander projectors: 
   l= 0   rc=  1.897051   el= -0.693730   Ekb=  4.595746   kbcos=  0.286105
   l= 1   rc=  1.920920   el= -0.265236   Ekb= -2.350715   kbcos= -0.315747
   l= 2   rc=  2.044840   el=  0.002055   Ekb= -0.690767   kbcos= -0.013822
   l= 3   rc=  2.149707   el=  0.003188   Ekb= -0.315358   kbcos= -0.002055

KBgen: Total number of  Kleinman-Bylander projectors:   16
atom: -------------------------------------------------------------------------

atom: SANKEY-TYPE ORBITALS:
atom: Selected multiple-zeta basis: split     

SPLIT: Orbitals with angular momentum L= 0

SPLIT: Basis orbitals for state 2s

SPLIT: PAO cut-off radius determined from an
SPLIT: energy shift=  0.007350 Ry

   izeta = 1
                 lambda =    1.000000
                     rc =    5.422032
                 energy =   -0.686029
                kinetic =    0.576707
    potential(screened) =   -1.262736
       potential(ionic) =   -3.271094

   izeta = 2
                 rmatch =    4.222573
              splitnorm =    0.150000
                 energy =   -0.602132
                kinetic =    0.858975
    potential(screened) =   -1.461107
       potential(ionic) =   -3.582536

SPLIT: Orbitals with angular momentum L= 1

SPLIT: Basis orbitals for state 2p

SPLIT: PAO cut-off radius determined from an
SPLIT: energy shift=  0.007350 Ry

   izeta = 1
                 lambda =    1.000000
                     rc =    6.790259
                 energy =   -0.258578
                kinetic =    1.481412
    potential(screened) =   -1.739989
       potential(ionic) =   -3.657461

   izeta = 2
                 rmatch =    4.608740
              splitnorm =    0.150000
                 energy =   -0.173757
                kinetic =    2.186690
    potential(screened) =   -2.360447
       potential(ionic) =   -4.464260

POLgen: Perturbative polarization orbital with L=  2

POLgen: Polarization orbital for state 2p

   izeta = 1
                     rc =    6.790259
                 energy =    0.684082
                kinetic =    1.471481
    potential(screened) =   -0.787399
       potential(ionic) =   -2.406985
atom: Total number of Sankey-type orbitals: 13

atm_pop: Valence configuration (for local Pseudopot. screening):
 2s( 2.00)                                                            
 2p( 1.00)                                                            
Vna: chval, zval:    3.00000   3.00000

Vna:  Cut-off radius for the neutral-atom potential:   6.790259
comcore: Pseudo-core radius Rcore=  2.122997

atom: _________________________________________________________________________

<basis_specs>
===============================================================================
C                    Z=   6    Mass=  12.010        Charge= 0.17977+309
Lmxo=1 Lmxkb= 3    BasisType=split      Semic=F
L=0  Nsemic=0  Cnfigmx=2
          n=1  nzeta=2  polorb=0
            splnorm:   0.15000    
               vcte:    0.0000    
               rinn:    0.0000    
                rcs:    0.0000      0.0000    
            lambdas:    1.0000      1.0000    
L=1  Nsemic=0  Cnfigmx=2
          n=1  nzeta=2  polorb=1
            splnorm:   0.15000    
               vcte:    0.0000    
               rinn:    0.0000    
                rcs:    0.0000      0.0000    
            lambdas:    1.0000      1.0000    
-------------------------------------------------------------------------------
L=0  Nkbl=1  erefs: 0.17977+309
L=1  Nkbl=1  erefs: 0.17977+309
L=2  Nkbl=1  erefs: 0.17977+309
L=3  Nkbl=1  erefs: 0.17977+309
===============================================================================
</basis_specs>

atom: Called for C                     (Z =   6)

read_vps: Pseudopotential generation method:
read_vps: ATM3      Troullier-Martins                       
Total valence charge:    4.00000

read_vps: Pseudopotential includes a core correction:
read_vps: Pseudo-core for xc-correction

xc_check: Exchange-correlation functional:
xc_check: GGA Perdew, Burke & Ernzerhof 1996
V l=0 = -2*Zval/r beyond r=  1.5227
V l=1 = -2*Zval/r beyond r=  1.5227
V l=2 = -2*Zval/r beyond r=  1.5227
V l=3 = -2*Zval/r beyond r=  1.5038
All V_l potentials equal beyond r=  1.5227
This should be close to max(r_c) in ps generation
All pots = -2*Zval/r beyond r=  1.5227

VLOCAL1: 99.0% of the norm of Vloc inside     18.722 Ry
VLOCAL1: 99.9% of the norm of Vloc inside     42.668 Ry
atom: Maximum radius for 4*pi*r*r*local-pseudopot. charge    1.83678
atom: Maximum radius for r*vlocal+2*Zval:    1.58088
GHOST: No ghost state for L =  0
GHOST: No ghost state for L =  1
GHOST: No ghost state for L =  2
GHOST: No ghost state for L =  3

KBgen: Kleinman-Bylander projectors: 
   l= 0   rc=  1.704034   el= -1.009801   Ekb=  5.335044   kbcos=  0.316824
   l= 1   rc=  1.704034   el= -0.388707   Ekb= -3.785862   kbcos= -0.366464
   l= 2   rc=  1.791422   el=  0.001971   Ekb= -0.970471   kbcos= -0.009212
   l= 3   rc=  1.859892   el=  0.003065   Ekb= -0.399525   kbcos= -0.001223

KBgen: Total number of  Kleinman-Bylander projectors:   16
atom: -------------------------------------------------------------------------

atom: SANKEY-TYPE ORBITALS:
atom: Selected multiple-zeta basis: split     

SPLIT: Orbitals with angular momentum L= 0

SPLIT: Basis orbitals for state 2s

SPLIT: PAO cut-off radius determined from an
SPLIT: energy shift=  0.007350 Ry

   izeta = 1
                 lambda =    1.000000
                     rc =    4.632753
                 energy =   -1.002270
                kinetic =    0.855760
    potential(screened) =   -1.858031
       potential(ionic) =   -5.417575

   izeta = 2
                 rmatch =    3.431921
              splitnorm =    0.150000
                 energy =   -0.867111
                kinetic =    1.300804
    potential(screened) =   -2.167915
       potential(ionic) =   -5.962684

SPLIT: Orbitals with angular momentum L= 1

SPLIT: Basis orbitals for state 2p

SPLIT: PAO cut-off radius determined from an
SPLIT: energy shift=  0.007350 Ry

   izeta = 1
                 lambda =    1.000000
                     rc =    5.658549
                 energy =   -0.381140
                kinetic =    2.399701
    potential(screened) =   -2.780841
       potential(ionic) =   -6.206085

   izeta = 2
                 rmatch =    3.653288
              splitnorm =    0.150000
                 energy =   -0.249149
                kinetic =    3.542762
    potential(screened) =   -3.791911
       potential(ionic) =   -7.581078

POLgen: Perturbative polarization orbital with L=  2

POLgen: Polarization orbital for state 2p

   izeta = 1
                     rc =    5.658549
                 energy =    1.109913
                kinetic =    2.304789
    potential(screened) =   -1.194876
       potential(ionic) =   -4.013592
atom: Total number of Sankey-type orbitals: 13

atm_pop: Valence configuration (for local Pseudopot. screening):
 2s( 2.00)                                                            
 2p( 2.00)                                                            
Vna: chval, zval:    4.00000   4.00000

Vna:  Cut-off radius for the neutral-atom potential:   5.658549
comcore: Pseudo-core radius Rcore=  1.791422

atom: _________________________________________________________________________

prinput: Basis input ----------------------------------------------------------

PAO.BasisType split     

%block ChemicalSpeciesLabel
    1    5 B                       # Species index, atomic number, species label
    2    6 C                       # Species index, atomic number, species label
%endblock ChemicalSpeciesLabel

%block PAO.Basis                 # Define Basis set
B                     2                    # Species label, number of l-shells
 n=2   0   2                         # n, l, Nzeta 
   5.422      4.223   
   1.000      1.000   
 n=2   1   2 P   1                   # n, l, Nzeta, Polarization, NzetaPol
   6.790      4.609   
   1.000      1.000   
C                     2                    # Species label, number of l-shells
 n=2   0   2                         # n, l, Nzeta 
   4.633      3.432   
   1.000      1.000   
 n=2   1   2 P   1                   # n, l, Nzeta, Polarization, NzetaPol
   5.659      3.653   
   1.000      1.000   
%endblock PAO.Basis

prinput: ----------------------------------------------------------------------

coor:   Atomic-coordinates input format  =     Fractional

siesta: Atomic coordinates (Bohr) and species
siesta:      2.30256  41.57980   0.00000  1        1
siesta:      4.63094  34.85847   0.00000  1        2
siesta:      9.28770  29.48119   0.00000  1        3
siesta:     -0.02582  10.66124   0.00000  1        4
siesta:      2.30256  17.38257   0.00000  1        5
siesta:      6.95932  22.75985   0.00000  1        6
siesta:     -4.68258  10.66124   0.00000  1        7
siesta:     -7.01096  14.69411   0.00000  1        8
siesta:     -4.68258  18.72698   0.00000  1        9
siesta:     -9.33934  18.72698   0.00000  1       10
siesta:     -7.01096  25.44831   0.00000  1       11
siesta:     -0.02582  26.79272   0.00000  1       12
siesta:     -2.35420  33.51406   0.00000  1       13
siesta:     -0.02582   2.59549   0.00000  2       14
siesta:     -0.02582   5.28395   0.00000  2       15
siesta:     -2.35420  38.89134   0.00000  2       16
siesta:     -2.35420  41.57980   0.00000  2       17
siesta:      2.30256  38.89134   0.00000  2       18
siesta:      4.63094  37.54693   0.00000  2       19
siesta:      6.95932  30.82560   0.00000  2       20
siesta:      6.95932  33.51406   0.00000  2       21
siesta:      9.28770  26.79272   0.00000  2       22
siesta:     -4.68258  34.85847   0.00000  2       23
siesta:     -4.68258  37.54693   0.00000  2       24
siesta:      2.30256   6.62836   0.00000  2       25
siesta:      2.30256   9.31683   0.00000  2       26
siesta:      4.63094  10.66124   0.00000  2       27
siesta:      4.63094  13.34970   0.00000  2       28
siesta:      6.95932  14.69411   0.00000  2       29
siesta:      6.95932  17.38257   0.00000  2       30
siesta:      9.28770  18.72698   0.00000  2       31
siesta:      9.28770  21.41544   0.00000  2       32
siesta:     11.61608  22.75985   0.00000  2       33
siesta:     11.61608  25.44831   0.00000  2       34
siesta:     -2.35420   6.62836   0.00000  2       35
siesta:     -2.35420   9.31683   0.00000  2       36
siesta:     -0.02582  13.34970   0.00000  2       37
siesta:      2.30256  14.69411   0.00000  2       38
siesta:      4.63094  18.72698   0.00000  2       39
siesta:      4.63094  21.41544   0.00000  2       40
siesta:      6.95932  25.44831   0.00000  2       41
siesta:     -4.68258  13.34970   0.00000  2       42
siesta:     -2.35420  14.69411   0.00000  2       43
siesta:     -2.35420  17.38257   0.00000  2       44
siesta:     -0.02582  18.72698   0.00000  2       45
siesta:     -0.02582  21.41544   0.00000  2       46
siesta:      2.30256  22.75985   0.00000  2       47
siesta:      2.30256  25.44831   0.00000  2       48
siesta:     -7.01096  17.38257   0.00000  2       49
siesta:     -4.68258  21.41544   0.00000  2       50
siesta:     -2.35420  22.75985   0.00000  2       51
siesta:     -2.35420  25.44831   0.00000  2       52
siesta:     -9.33934  21.41544   0.00000  2       53
siesta:     -7.01096  22.75985   0.00000  2       54
siesta:    -11.66772  22.75985   0.00000  2       55
siesta:    -11.66772  25.44831   0.00000  2       56
siesta:     -9.33934  26.79272   0.00000  2       57
siesta:     -9.33934  29.48119   0.00000  2       58
siesta:      4.63094  26.79272   0.00000  2       59
siesta:      4.63094  29.48119   0.00000  2       60
siesta:     -0.02582  29.48119   0.00000  2       61
siesta:     -4.68258  26.79272   0.00000  2       62
siesta:     -4.68258  29.48119   0.00000  2       63
siesta:      2.30256  30.82560   0.00000  2       64
siesta:      2.30256  33.51406   0.00000  2       65
siesta:     -2.35420  30.82560   0.00000  2       66
siesta:     -7.01096  30.82560   0.00000  2       67
siesta:     -7.01096  33.51406   0.00000  2       68
siesta:     -0.02582  34.85847   0.00000  2       69
siesta:     -0.02582  37.54693   0.00000  2       70
siesta:     -0.02582  42.92421   0.00000  2       71
siesta:     -0.02582  45.61267   0.00000  2       72

siesta: System type = slab      

initatomlists: Number of atoms, orbitals, and projectors:     72   936  1152

siesta: ******************** Simulation parameters ****************************
siesta:
siesta: The following are some of the parameters of the simulation.
siesta: A complete list of the parameters used, including default values,
siesta: can be found in file out.fdf
siesta:
redata: Non-Collinear-spin run           =     F
redata: SpinPolarized (Up/Down) run      =     F
redata: Number of spin components        =     1
redata: Long output                      =     F
redata: Number of Atomic Species         =        2
redata: Charge density info will appear in .RHO file
redata: Write Mulliken Pop.              =     NO
redata: Mesh Cutoff                      =   200.0000  Ry
redata: Net charge of the system         =     0.0000 |e|
redata: Max. number of SCF Iter          =      500
redata: SCF convergence failure will abort job
redata: Performing Pulay mixing using    =    10 iterations
redata: Mix DM in first SCF step ?       =     F
redata: Write Pulay info on disk?        =     F
redata: Discard 1st Pulay DM after  kick =     F
redata: New DM Mixing Weight             =     0.0500
redata: New DM Occupancy tolerance       = 0.000000000001
redata: No kicks to SCF
redata: DM Mixing Weight for Kicks       =     0.5000
redata: DM Tolerance for SCF             =     0.000100
redata: Require Energy convergence for SCF =     F
redata: DM Energy tolerance for SCF      =     0.000100 eV
redata: Require Harris convergence for SCF =     F
redata: DM Harris energy tolerance for SCF =     0.000100 eV
redata: Using Saved Data (generic)   =     F
redata: Use continuation files for DM    =     T
redata: Neglect nonoverlap interactions  =     F
redata: Method of Calculation            =     Diagonalization
redata: Divide and Conquer               =     T
redata: Electronic Temperature           =     0.0019  Ry
redata: Fix the spin of the system       =     F
redata: Dynamics option                  =     Verlet MD run
redata: Initial MD time step             =        1
redata:   Final MD time step             =        1
redata: Length of MD time step           =     1.0000  fs
redata: Initial Temperature of MD run    =     0.0000  K
redata: Perform a MD quench              =     F
redata: ***********************************************************************
Total number of electrons:   275.000000
Total ionic charge:   275.000000

* ProcessorY, Blocksize:    2  24

k-point displ. along   1 input, could be:     0.00    0.50
k-point displ. along   2 input, could be:     0.00    0.50
 Kpoints in:          364 . Kpoints trimmed:          352

siesta: k-grid: Number of k-points =   352
siesta: k-grid: Cutoff (effective) =     5.000 Ang
siesta: k-grid: Supercell and displacements
siesta: k-grid:   26   0   0      0.000
siesta: k-grid:    0  26   0      0.000
siesta: k-grid:    0   0   1      0.000
Naive supercell factors:     2    2    2

superc: Internal auxiliary supercell:     2 x     2 x     2  =       8
superc: Number of atoms, orbitals, and projectors:    576   7488   9216

* Maximum dynamic memory allocated =     6 MB

siesta:                 ==============================
                            Begin MD step =      1
                        ==============================

superc: Internal auxiliary supercell:     2 x     2 x     2  =       8
superc: Number of atoms, orbitals, and projectors:    576   7488   9216

outcell: Unit cell vectors (Ang):
       12.804619    7.392750    0.000000
        0.000000   14.785500    0.000000
        0.000000    0.000000   10.000000

outcell: Cell vector modules (Ang)   :   14.785500   14.785500   10.000000
outcell: Cell angles (23,13,12) (deg):     90.0000     90.0000     60.0000
outcell: Cell volume (Ang**3)        :   1893.2269
New_DM. Step:     1
Initializing Density Matrix...

InitMesh: MESH =   120 x   120 x    90 =     1296000
InitMesh: Mesh cutoff (required, used) =   200.000   223.865 Ry

* Maximum dynamic memory allocated =   217 MB

stepf: Fermi-Dirac step function

siesta: Program's energy decomposition (eV):
siesta: Ebs     =     -5650.731444
siesta: Eions   =     16738.273825
siesta: Ena     =      4388.882745
siesta: Ekin    =      5692.582677
siesta: Enl     =       736.640104
siesta: DEna    =        -0.000011
siesta: DUscf   =         0.000000
siesta: DUext   =         0.000000
siesta: Exc     =     -4184.495267
siesta: eta*DQ  =         0.000000
siesta: Emadel  =         0.000000
siesta: Emeta   =         0.000000
siesta: Emolmec =         0.000000
siesta: Ekinion =         0.000000
siesta: Eharris =     -9844.856384
siesta: Etot    =    -10104.663577
siesta: FreeEng =    -10104.663577

siesta: iscf   Eharris(eV)      E_KS(eV)   FreeEng(eV)   dDmax  Ef(eV)
siesta:    1    -9844.8564   -10104.6636   -10104.6636  6.8891 -8.1942
timer: Routine,Calls,Time,% = IterSCF        1    5175.451  99.79
elaps: Routine,Calls,Wall,% = IterSCF        1     648.174  99.79
siesta:    2   -14162.1140    -9149.1422    -9149.1977 15.8356 -3.5829
siesta:    3    -9847.0704    -9923.0404    -9923.0675  2.2026 -5.3681
siesta:    4    -9778.9145    -9856.8939    -9856.9470  1.5089 -5.2518
siesta:    5    -9720.5237    -9768.4232    -9768.4735  1.0723 -5.2687
siesta:    6    -9712.8134    -9740.6425    -9740.6557  1.0016 -5.0747
siesta:    7    -9703.0397    -9720.8262    -9720.8841  0.6121 -4.9621
siesta:    8    -9701.1641    -9712.9528    -9712.9782  0.5651 -4.8688
siesta:    9    -9703.8586    -9695.3902    -9695.4189  0.6208 -4.7431
siesta:   10    -9701.5633    -9691.1130    -9691.1516  0.5182 -4.6987
siesta:   11    -9699.8811    -9684.4355    -9684.4901  0.2487 -4.8074
siesta:   12    -9699.7370    -9681.8202    -9681.8520  0.2337 -4.7607
siesta:   13    -9698.8537    -9683.0286    -9683.0605  0.2066 -4.9382
siesta:   14    -9698.5548    -9686.5243    -9686.5761  0.1802 -4.9883
siesta:   15    -9698.2709    -9688.4539    -9688.5239  0.1783 -4.9634
siesta:   16    -9698.0443    -9694.0034    -9694.0528  0.1363 -4.9925
siesta:   17    -9697.9728    -9694.2100    -9694.2727  0.1214 -4.9508
siesta:   18    -9697.9054    -9693.4652    -9693.5178  0.1055 -4.9318
siesta:   19    -9697.8860    -9694.1974    -9694.2496  0.0849 -4.8929
siesta:   20    -9697.8683    -9695.2455    -9695.2955  0.0691 -4.9036
siesta:   21    -9697.8636    -9696.1240    -9696.1762  0.0451 -4.9241
siesta:   22    -9697.8646    -9697.0907    -9697.1431  0.0414 -4.9264
siesta:   23    -9697.8562    -9697.9218    -9697.9734  0.0174 -4.9309
siesta:   24    -9697.8530    -9698.1380    -9698.1909  0.0167 -4.9303
siesta:   25    -9697.8508    -9697.9340    -9697.9881  0.0112 -4.9296
siesta:   26    -9697.8494    -9697.8990    -9697.9526  0.0075 -4.9258
siesta:   27    -9697.8493    -9697.7262    -9697.7797  0.0056 -4.9250
siesta:   28    -9697.8489    -9697.6894    -9697.7427  0.0030 -4.9233
siesta:   29    -9697.8488    -9697.6776    -9697.7311  0.0025 -4.9241
siesta:   30    -9697.8488    -9697.7752    -9697.8288  0.0022 -4.9246
siesta:   31    -9697.8487    -9697.8277    -9697.8812  0.0010 -4.9247
siesta:   32    -9697.8487    -9697.8470    -9697.9006  0.0010 -4.9251
siesta:   33    -9697.8487    -9697.8627    -9697.9163  0.0006 -4.9257
siesta:   34    -9697.8487    -9697.8658    -9697.9194  0.0005 -4.9257
siesta:   35    -9697.8487    -9697.8592    -9697.9128  0.0002 -4.9256
siesta:   36    -9697.8487    -9697.8524    -9697.9060  0.0002 -4.9256
siesta:   37    -9697.8487    -9697.8505    -9697.9041  0.0002 -4.9255
siesta:   38    -9697.8487    -9697.8477    -9697.9013  0.0001 -4.9256
siesta:   39    -9697.8487    -9697.8469    -9697.9004  0.0001 -4.9256

siesta: E_KS(eV) =            -9697.8474

siesta: E_KS - E_eggbox =     -9697.8474

siesta: Atomic forces (eV/Ang):
----------------------------------------
   Tot   -0.071210   -0.062384    0.000000
----------------------------------------
   Max  560.443551
   Res  143.732793    sqrt( Sum f_i^2 / 3N )
----------------------------------------
   Max  560.443551    constrained

Stress-tensor-Voigt (kbar):     -750.13    -2576.00       -0.44        3.03        0.00        0.00
(Free)E + p*V (eV/cell)    -8387.6266
Target enthalpy (eV/cell)    -9697.9009

siesta: Stress tensor (static) (eV/Ang**3):
        -0.468186    0.001889    0.000000
         0.001889   -1.607795    0.000000
         0.000000    0.000000   -0.000274

siesta: Pressure (static):       1108.85477766  kBar

siesta: Stress tensor (total) (eV/Ang**3):
        -0.468186    0.001889    0.000000
         0.001889   -1.607795    0.000000
         0.000000    0.000000   -0.000274

siesta: Pressure (total):       1108.85477766  kBar

siesta: Temp_ion =       0.000 K

* Maximum dynamic memory allocated =   234 MB
Computing bands...

siesta: Program's energy decomposition (eV):
siesta: Ebs     =     -4322.575438
siesta: Eions   =     16738.273825
siesta: Ena     =      4388.882745
siesta: Ekin    =      8576.374347
siesta: Enl     =      -913.954325
siesta: DEna    =      -760.489864
siesta: DUscf   =       101.626190
siesta: DUext   =         0.000000
siesta: Exc     =     -4352.012629
siesta: eta*DQ  =         0.000000
siesta: Emadel  =         0.000000
siesta: Emeta   =         0.000000
siesta: Emolmec =         0.000000
siesta: Ekinion =         0.000000
siesta: Eharris =     -9697.848702
siesta: Etot    =     -9697.847362
siesta: FreeEng =     -9697.900947

siesta: Final energy (eV):
siesta:  Band Struct. =   -4322.575438
siesta:       Kinetic =    8576.374347
siesta:       Hartree =   27902.632469
siesta:    Ext. field =       0.000000
siesta:   Exch.-corr. =   -4352.012629
siesta:  Ion-electron =  -64098.776348
siesta:       Ion-ion =   22273.934799
siesta:       Ekinion =       0.000000
siesta:         Total =   -9697.847362

siesta: Atomic forces (eV/Ang):
siesta:      1    8.415770 -403.128226    0.000000
siesta:      2   21.894236    1.988813    0.000000
siesta:      3    0.355433    1.420391    0.000000
siesta:      4    4.641864  392.536992    0.000000
siesta:      5   19.737458   -1.685300    0.000000
siesta:      6   -0.697065    0.716800    0.000000
siesta:      7  -28.048780  401.942710    0.000000
siesta:      8    0.249023   -1.382530    0.000000
siesta:      9    0.508363   -0.212029    0.000000
siesta:     10    0.642016   -1.874661    0.000000
siesta:     11    0.320273   -0.141006    0.000000
siesta:     12    0.269157   -2.057541    0.000000
siesta:     13  -27.428979 -405.731055    0.000000
siesta:     14    1.579526  550.788993    0.000000
siesta:     15   -0.299272 -123.742517    0.000000
siesta:     16   -3.770392  120.766654    0.000000
siesta:     17  -16.333475 -546.561052    0.000000
siesta:     18    7.520283  122.771045    0.000000
siesta:     19   30.982928 -549.080273    0.000000
siesta:     20   -0.958376    2.175738    0.000000
siesta:     21   -0.081694    0.342500    0.000000
siesta:     22    2.988269   -1.594149    0.000000
siesta:     23  -23.982380   -4.802847    0.000000
siesta:     24  -32.149759 -402.829415    0.000000
siesta:     25    7.506033  542.003642    0.000000
siesta:     26   -5.594907 -116.749255    0.000000
siesta:     27   34.003835  554.931152    0.000000
siesta:     28   27.131742   -0.731208    0.000000
siesta:     29   -2.220859   -2.362672    0.000000
siesta:     30    2.763216   -0.616248    0.000000
siesta:     31   -1.555414   -0.306826    0.000000
siesta:     32    6.650559   -4.173508    0.000000
siesta:     33   -0.881291    5.662442    0.000000
siesta:     34    0.874252   -5.200967    0.000000
siesta:     35  -13.791836  401.822910    0.000000
siesta:     36   -0.597106 -108.424281    0.000000
siesta:     37    0.958952 -125.823923    0.000000
siesta:     38   28.266616  403.403505    0.000000
siesta:     39   -0.156832    2.242199    0.000000
siesta:     40   -2.171894   -1.808596    0.000000
siesta:     41   -0.157184    3.183359    0.000000
siesta:     42  -22.235519   -2.719532    0.000000
siesta:     43  -33.160654  553.225119    0.000000
siesta:     44  -18.954626   -6.680341    0.000000
siesta:     45    1.468484  560.443551    0.000000
siesta:     46   -0.183436    1.491329    0.000000
siesta:     47   -0.561000   -0.813547    0.000000
siesta:     48    1.595775   -0.884529    0.000000
siesta:     49   -4.378009   -2.071215    0.000000
siesta:     50   -0.567264    3.764871    0.000000
siesta:     51   -0.111682   -0.053494    0.000000
siesta:     52   -1.493476   -0.592705    0.000000
siesta:     53   -4.256928    2.017936    0.000000
siesta:     54    1.104737   -2.838110    0.000000
siesta:     55    0.555255    5.417617    0.000000
siesta:     56    0.789268   -5.645350    0.000000
siesta:     57   -6.671730    3.640409    0.000000
siesta:     58    1.451737    0.756455    0.000000
siesta:     59    0.780492   -0.137995    0.000000
siesta:     60   -0.180332   -1.719882    0.000000
siesta:     61   -1.770948 -560.284610    0.000000
siesta:     62    2.307419    1.552853    0.000000
siesta:     63    1.278836   -2.329173    0.000000
siesta:     64   20.568471    6.571142    0.000000
siesta:     65   36.187024 -551.863120    0.000000
siesta:     66  -21.158024    4.268300    0.000000
siesta:     67   -1.966146    0.243150    0.000000
siesta:     68    2.417309    2.564244    0.000000
siesta:     69   -6.648183  119.796991    0.000000
siesta:     70   -0.794238 -399.049254    0.000000
siesta:     71    8.280167  122.913326    0.000000
siesta:     72   -1.146297 -548.726580    0.000000
siesta: ----------------------------------------
siesta:    Tot   -0.071210   -0.062384    0.000000

siesta: Stress tensor (static) (eV/Ang**3):
siesta:    -0.468186    0.001889    0.000000
siesta:     0.001889   -1.607795    0.000000
siesta:     0.000000    0.000000   -0.000274

siesta: Cell volume =       1893.226884 Ang**3

siesta: Pressure (static):
siesta:                Solid            Molecule  Units
siesta:           0.00753769          0.10992963  Ry/Bohr**3
siesta:           0.69208523         10.09336454  eV/Ang**3
siesta:        1108.85477766      16171.52762774  kBar
(Free)E+ p_basis*V_orbitals  =       -9663.055935
(Free)Eharris+ p_basis*V_orbitals  =       -9663.057786

siesta: Electric dipole (a.u.)  =    0.000000    0.000000    0.000000
siesta: Electric dipole (Debye) =    0.000000    0.000000    0.000000

* Maximum dynamic memory allocated : Node    0 =   234 MB
* Maximum dynamic memory allocated : Node    1 =    82 MB
* Maximum dynamic memory allocated : Node    2 =    84 MB
* Maximum dynamic memory allocated : Node    3 =   221 MB
* Maximum dynamic memory allocated : Node    4 =   220 MB
* Maximum dynamic memory allocated : Node    5 =    81 MB
* Maximum dynamic memory allocated : Node    6 =    84 MB
* Maximum dynamic memory allocated : Node    7 =   203 MB

* Maximum memory occured during matrixMtoO                    

timer: CPU execution times:
timer:  Routine       Calls   Time/call    Tot.time        %
timer:  siesta            1  201053.776  201053.776   100.00
timer:  Setup             1       2.766       2.766     0.00
timer:  bands             3     244.297     732.892     0.36
timer:  writewave         1       0.022       0.022     0.00
timer:  KSV_init          1       0.000       0.000     0.00
timer:  IterMD            1  200310.426  200310.426    99.63
timer:  hsparse           1       0.520       0.520     0.00
timer:  overlap           1       6.829       6.829     0.00
timer:  IterSCF          39    5131.248  200118.676    99.53
timer:  kinefsm           2       3.545       7.090     0.00
timer:  nlefsm            2      19.440      38.881     0.02
timer:  DHSCF            40      98.019    3920.743     1.95
timer:  DHSCF1            1       0.993       0.993     0.00
timer:  DHSCF2            1      41.226      41.226     0.02
timer:  REORD           322       0.005       1.619     0.00
timer:  POISON           41       0.872      35.747     0.02
timer:  DHSCF3           40      96.006    3840.253     1.91
timer:  rhoofd           40      21.311     852.424     0.42
timer:  cellXC           40       3.289     131.579     0.07
timer:  vmat             40      45.211    1808.429     0.90
timer:  MolMec            2       0.000       0.000     0.00
timer:  diagon           39    5032.569  196270.175    97.62
timer:  c-eigval      13849       6.040   83648.068    41.60
timer:  c-buildHS     13849       0.051     712.915     0.35
timer:  cdiag         27577       6.189  170672.129    84.89
timer:  cdiag1        27577       0.387   10681.360     5.31
timer:  cdiag2        27577       1.769   48784.109    24.26
timer:  cdiag3        27577       3.735  102986.349    51.22
timer:  cdiag4        27577       0.161    4449.980     2.21
timer:  c-eigvec      13728       6.434   88326.492    43.93
timer:  c-buildD      13728       1.818   24957.493    12.41
timer:  DHSCF4            1      37.479      37.479     0.02
timer:  dfscf             1      34.770      34.770     0.02
timer:  overfsm           1       0.436       0.436     0.00
timer:  optical           1       6.717       6.717     0.00
  

elaps: ELAPSED times:
elaps:  Routine       Calls   Time/call    Tot.time        %
elaps:  siesta            1   25179.477   25179.477   100.00
elaps:  Setup             1       0.346       0.346     0.00
elaps:  bands             3      30.612      91.835     0.36
elaps:  writewave         1       0.002       0.002     0.00
elaps:  KSV_init          1       0.000       0.000     0.00
elaps:  IterMD            1   25086.384   25086.384    99.63
elaps:  hsparse           1       0.066       0.066     0.00
elaps:  overlap           1       0.904       0.904     0.00
elaps:  IterSCF          39     642.625   25062.373    99.53
elaps:  kinefsm           2       0.470       0.940     0.00
elaps:  nlefsm            2       2.463       4.926     0.02
elaps:  DHSCF            40      12.393     495.730     1.97
elaps:  DHSCF1            1       0.127       0.127     0.00
elaps:  DHSCF2            1       5.162       5.162     0.02
elaps:  REORD           322       0.001       0.219     0.00
elaps:  POISON           41       0.110       4.512     0.02
elaps:  DHSCF3           40      12.024     480.966     1.91
elaps:  rhoofd           40       5.817     232.696     0.92
elaps:  cellXC           40       0.412      16.461     0.07
elaps:  vmat             40       5.662     226.489     0.90
elaps:  MolMec            2       0.000       0.000     0.00
elaps:  diagon           39     630.277   24580.815    97.62
elaps:  c-eigval      13849       0.756   10475.510    41.60
elaps:  c-buildHS     13849       0.007      97.180     0.39
elaps:  cdiag         27577       0.769   21211.258    84.24
elaps:  cdiag1        27577       0.048    1333.019     5.29
elaps:  cdiag2        27577       0.222    6111.010    24.27
elaps:  cdiag3        27577       0.468   12915.391    51.29
elaps:  cdiag4        27577       0.020     550.880     2.19
elaps:  c-eigvec      13728       0.795   10910.560    43.33
elaps:  c-buildD      13728       0.239    3274.376    13.00
elaps:  DHSCF4            1       9.385       9.385     0.04
elaps:  dfscf             1       8.848       8.848     0.04
elaps:  overfsm           1       0.057       0.057     0.00
elaps:  optical           1       0.000       0.000     0.00
  
>> End of run:   8-MAY-2016   9:19:01
