Siesta Version:                                        siesta-3.2-pl-3
Architecture  : x86_64-unknown-linux-gnu--unknown
Compiler flags: mpiifort -g -O2 -fPIC -xSSE4.1 -fp-model source -shared-intel 
PARALLEL version

* Running on    8 nodes in parallel
>> Start of run:  26-APR-2016  22:54:13

                           ***********************       
                           *  WELCOME TO SIESTA  *       
                           ***********************       

reinit: Reading from standard input
************************** Dump of input data file ****************************
#(1) General system descriptors
SystemName            GRP_doping    # Descriptive name of the system
SystemLabel           GRP_doping    # Short name for naming files
%include STRUCT.fdf
%include KPT.fdf
%include BASIS.fdf
#%include TS.fdf # for transiesta calculation
#(4) DFT, Grid, SCF
XC.functional         GGA           # LDA or GGA (default = LDA)
XC.authors            PBE           # CA (Ceperley-Aldr) = PZ
                                    #    (Perdew-Zunger) - LDA - Default
                                    # PW92 (Perdew-Wang-92) - LDA
                                    # PBE (Perdew-Burke-Ernzerhof) - GGA
MeshCutoff            200.000000    Ry      # Default: 50.0 Ry ~ 0.444 Bohr
                                    #         100.0 Ry ~ 0.314 Bohr
MaxSCFIterations      500           # Default: 50
DM.MixingWeight       0.05          # Default: 0.25
DM.NumberPulay        10            # Default: 0
DM.PulayOnFile        F             # SystemLabel.P1, SystemLabel.P2
DM.Tolerance          1.d-4         # Default: 1.d-4
DM.UseSaveDM          .true.        # because of the bug
SCFMustConverge       .true.
NeglNonOverlapInt     F             # Default: F
#(5) Eigenvalue problem: order-N or diagonalization
SolutionMethod        Diagon        # or Transiesta
ElectronicTemperature 300.0 K       # Default: 300.0 K
#(6) Molecular dynamics and relaxations
#MD.TypeOfRun          CG            # Type of dynamics:
#MD.VariableCell       F
#MD.NumCGsteps         0           # 0 for single-point / 100 for gopt
#MD.MaxCGDispl         0.2 Bohr      # Default: 0.2 Bohr
#MD.MaxForceTol        0.02 eV/Ang   # Default: 0.04 eV/Ang
#MD.MaxStressTol       1.0 GPa       # Default: 1.0 GPa
# Geometry Constraints
#%block GeometryConstraints
#	position from 1 to 44
#%endblock GeometryConstraints
BandLinesScale   pi/a
%block BandLines
 1   0.00000000  0.00000000  0.00000000
50   0.00000000  0.07809418  0.00000000
50   0.04509075  0.07809242  0.00000000
20   0.00000000  0.00000000  0.00000000
%endblock BandLines
************************** End of input data file *****************************

reinit: -----------------------------------------------------------------------
reinit: System Name: GRP_doping
reinit: -----------------------------------------------------------------------
reinit: System Label: GRP_doping                                                  
reinit: -----------------------------------------------------------------------

initatom: Reading input for the pseudopotentials and atomic orbitals ----------
 Species number:            1  Label: N Atomic number:           7
 Species number:            2  Label: C Atomic number:           6
Ground state valence configuration:   2s02  2p03
Reading pseudopotential information in formatted form from N.psf

Valence configuration for pseudopotential generation:
2s( 2.00) rc: 1.48
2p( 3.00) rc: 1.48
3d( 0.00) rc: 1.48
4f( 0.00) rc: 1.48
Ground state valence configuration:   2s02  2p02
Reading pseudopotential information in formatted form from C.psf

Valence configuration for pseudopotential generation:
2s( 2.00) rc: 1.54
2p( 2.00) rc: 1.54
3d( 0.00) rc: 1.54
4f( 0.00) rc: 1.54
For N, standard SIESTA heuristics set lmxkb to 3
 (one more than the basis l, including polarization orbitals).
Use PS.lmax or PS.KBprojectors blocks to override.
For C, standard SIESTA heuristics set lmxkb to 3
 (one more than the basis l, including polarization orbitals).
Use PS.lmax or PS.KBprojectors blocks to override.

<basis_specs>
===============================================================================
N                    Z=   7    Mass=  14.010        Charge= 0.17977+309
Lmxo=1 Lmxkb= 3    BasisType=split      Semic=F
L=0  Nsemic=0  Cnfigmx=2
          n=1  nzeta=2  polorb=0
            splnorm:   0.15000    
               vcte:    0.0000    
               rinn:    0.0000    
                rcs:    0.0000      0.0000    
            lambdas:    1.0000      1.0000    
L=1  Nsemic=0  Cnfigmx=2
          n=1  nzeta=2  polorb=1
            splnorm:   0.15000    
               vcte:    0.0000    
               rinn:    0.0000    
                rcs:    0.0000      0.0000    
            lambdas:    1.0000      1.0000    
-------------------------------------------------------------------------------
L=0  Nkbl=1  erefs: 0.17977+309
L=1  Nkbl=1  erefs: 0.17977+309
L=2  Nkbl=1  erefs: 0.17977+309
L=3  Nkbl=1  erefs: 0.17977+309
===============================================================================
</basis_specs>

atom: Called for N                     (Z =   7)

read_vps: Pseudopotential generation method:
read_vps: ATM3      Troullier-Martins                       
Total valence charge:    5.00000

read_vps: Pseudopotential includes a core correction:
read_vps: Pseudo-core for xc-correction

xc_check: Exchange-correlation functional:
xc_check: GGA Perdew, Burke & Ernzerhof 1996
V l=0 = -2*Zval/r beyond r=  1.4606
V l=1 = -2*Zval/r beyond r=  1.4606
V l=2 = -2*Zval/r beyond r=  1.4606
V l=3 = -2*Zval/r beyond r=  1.4606
All V_l potentials equal beyond r=  1.4606
This should be close to max(r_c) in ps generation
All pots = -2*Zval/r beyond r=  1.4606

VLOCAL1: 99.0% of the norm of Vloc inside     20.347 Ry
VLOCAL1: 99.9% of the norm of Vloc inside     46.372 Ry
atom: Maximum radius for 4*pi*r*r*local-pseudopot. charge    1.76189
atom: Maximum radius for r*vlocal+2*Zval:    1.53550
GHOST: No ghost state for L =  0
GHOST: No ghost state for L =  1
GHOST: No ghost state for L =  2
GHOST: No ghost state for L =  3

KBgen: Kleinman-Bylander projectors: 
   l= 0   rc=  1.634559   el= -1.363963   Ekb=  5.296955   kbcos=  0.335621
   l= 1   rc=  1.614250   el= -0.521451   Ekb= -5.259161   kbcos= -0.433408
   l= 2   rc=  1.718383   el=  0.001991   Ekb= -1.271464   kbcos= -0.007566
   l= 3   rc=  1.761893   el=  0.003093   Ekb= -0.494769   kbcos= -0.001015

KBgen: Total number of  Kleinman-Bylander projectors:   16
atom: -------------------------------------------------------------------------

atom: SANKEY-TYPE ORBITALS:
atom: Selected multiple-zeta basis: split     

SPLIT: Orbitals with angular momentum L= 0

SPLIT: Basis orbitals for state 2s

SPLIT: PAO cut-off radius determined from an
SPLIT: energy shift=  0.007350 Ry

   izeta = 1
                 lambda =    1.000000
                     rc =    4.071465
                 energy =   -1.356470
                kinetic =    1.176977
    potential(screened) =   -2.533447
       potential(ionic) =   -8.057990

   izeta = 2
                 rmatch =    2.905100
              splitnorm =    0.150000
                 energy =   -1.158343
                kinetic =    1.813009
    potential(screened) =   -2.971352
       potential(ionic) =   -8.901931

SPLIT: Orbitals with angular momentum L= 1

SPLIT: Basis orbitals for state 2p

SPLIT: PAO cut-off radius determined from an
SPLIT: energy shift=  0.007350 Ry

   izeta = 1
                 lambda =    1.000000
                     rc =    4.972977
                 energy =   -0.513884
                kinetic =    3.441732
    potential(screened) =   -3.955616
       potential(ionic) =   -9.287901

   izeta = 2
                 rmatch =    3.054066
              splitnorm =    0.150000
                 energy =   -0.318226
                kinetic =    5.125348
    potential(screened) =   -5.443573
       potential(ionic) =  -11.380999

POLgen: Perturbative polarization orbital with L=  2

POLgen: Polarization orbital for state 2p

   izeta = 1
                     rc =    4.972977
                 energy =    1.607437
                kinetic =    3.268125
    potential(screened) =   -1.660688
       potential(ionic) =   -5.973652
atom: Total number of Sankey-type orbitals: 13

atm_pop: Valence configuration (for local Pseudopot. screening):
 2s( 2.00)                                                            
 2p( 3.00)                                                            
Vna: chval, zval:    5.00000   5.00000

Vna:  Cut-off radius for the neutral-atom potential:   4.972977
comcore: Pseudo-core radius Rcore=  1.554824

atom: _________________________________________________________________________

<basis_specs>
===============================================================================
C                    Z=   6    Mass=  12.010        Charge= 0.17977+309
Lmxo=1 Lmxkb= 3    BasisType=split      Semic=F
L=0  Nsemic=0  Cnfigmx=2
          n=1  nzeta=2  polorb=0
            splnorm:   0.15000    
               vcte:    0.0000    
               rinn:    0.0000    
                rcs:    0.0000      0.0000    
            lambdas:    1.0000      1.0000    
L=1  Nsemic=0  Cnfigmx=2
          n=1  nzeta=2  polorb=1
            splnorm:   0.15000    
               vcte:    0.0000    
               rinn:    0.0000    
                rcs:    0.0000      0.0000    
            lambdas:    1.0000      1.0000    
-------------------------------------------------------------------------------
L=0  Nkbl=1  erefs: 0.17977+309
L=1  Nkbl=1  erefs: 0.17977+309
L=2  Nkbl=1  erefs: 0.17977+309
L=3  Nkbl=1  erefs: 0.17977+309
===============================================================================
</basis_specs>

atom: Called for C                     (Z =   6)

read_vps: Pseudopotential generation method:
read_vps: ATM3      Troullier-Martins                       
Total valence charge:    4.00000

read_vps: Pseudopotential includes a core correction:
read_vps: Pseudo-core for xc-correction

xc_check: Exchange-correlation functional:
xc_check: GGA Perdew, Burke & Ernzerhof 1996
V l=0 = -2*Zval/r beyond r=  1.5227
V l=1 = -2*Zval/r beyond r=  1.5227
V l=2 = -2*Zval/r beyond r=  1.5227
V l=3 = -2*Zval/r beyond r=  1.5038
All V_l potentials equal beyond r=  1.5227
This should be close to max(r_c) in ps generation
All pots = -2*Zval/r beyond r=  1.5227

VLOCAL1: 99.0% of the norm of Vloc inside     18.722 Ry
VLOCAL1: 99.9% of the norm of Vloc inside     42.668 Ry
atom: Maximum radius for 4*pi*r*r*local-pseudopot. charge    1.83678
atom: Maximum radius for r*vlocal+2*Zval:    1.58088
GHOST: No ghost state for L =  0
GHOST: No ghost state for L =  1
GHOST: No ghost state for L =  2
GHOST: No ghost state for L =  3

KBgen: Kleinman-Bylander projectors: 
   l= 0   rc=  1.704034   el= -1.009801   Ekb=  5.335044   kbcos=  0.316824
   l= 1   rc=  1.704034   el= -0.388707   Ekb= -3.785862   kbcos= -0.366464
   l= 2   rc=  1.791422   el=  0.001971   Ekb= -0.970471   kbcos= -0.009212
   l= 3   rc=  1.859892   el=  0.003065   Ekb= -0.399525   kbcos= -0.001223

KBgen: Total number of  Kleinman-Bylander projectors:   16
atom: -------------------------------------------------------------------------

atom: SANKEY-TYPE ORBITALS:
atom: Selected multiple-zeta basis: split     

SPLIT: Orbitals with angular momentum L= 0

SPLIT: Basis orbitals for state 2s

SPLIT: PAO cut-off radius determined from an
SPLIT: energy shift=  0.007350 Ry

   izeta = 1
                 lambda =    1.000000
                     rc =    4.632753
                 energy =   -1.002270
                kinetic =    0.855760
    potential(screened) =   -1.858031
       potential(ionic) =   -5.417575

   izeta = 2
                 rmatch =    3.431921
              splitnorm =    0.150000
                 energy =   -0.867111
                kinetic =    1.300804
    potential(screened) =   -2.167915
       potential(ionic) =   -5.962684

SPLIT: Orbitals with angular momentum L= 1

SPLIT: Basis orbitals for state 2p

SPLIT: PAO cut-off radius determined from an
SPLIT: energy shift=  0.007350 Ry

   izeta = 1
                 lambda =    1.000000
                     rc =    5.658549
                 energy =   -0.381140
                kinetic =    2.399701
    potential(screened) =   -2.780841
       potential(ionic) =   -6.206085

   izeta = 2
                 rmatch =    3.653288
              splitnorm =    0.150000
                 energy =   -0.249149
                kinetic =    3.542762
    potential(screened) =   -3.791911
       potential(ionic) =   -7.581078

POLgen: Perturbative polarization orbital with L=  2

POLgen: Polarization orbital for state 2p

   izeta = 1
                     rc =    5.658549
                 energy =    1.109913
                kinetic =    2.304789
    potential(screened) =   -1.194876
       potential(ionic) =   -4.013592
atom: Total number of Sankey-type orbitals: 13

atm_pop: Valence configuration (for local Pseudopot. screening):
 2s( 2.00)                                                            
 2p( 2.00)                                                            
Vna: chval, zval:    4.00000   4.00000

Vna:  Cut-off radius for the neutral-atom potential:   5.658549
comcore: Pseudo-core radius Rcore=  1.791422

atom: _________________________________________________________________________

prinput: Basis input ----------------------------------------------------------

PAO.BasisType split     

%block ChemicalSpeciesLabel
    1    7 N                       # Species index, atomic number, species label
    2    6 C                       # Species index, atomic number, species label
%endblock ChemicalSpeciesLabel

%block PAO.Basis                 # Define Basis set
N                     2                    # Species label, number of l-shells
 n=2   0   2                         # n, l, Nzeta 
   4.071      2.905   
   1.000      1.000   
 n=2   1   2 P   1                   # n, l, Nzeta, Polarization, NzetaPol
   4.973      3.054   
   1.000      1.000   
C                     2                    # Species label, number of l-shells
 n=2   0   2                         # n, l, Nzeta 
   4.633      3.432   
   1.000      1.000   
 n=2   1   2 P   1                   # n, l, Nzeta, Polarization, NzetaPol
   5.659      3.653   
   1.000      1.000   
%endblock PAO.Basis

prinput: ----------------------------------------------------------------------

coor:   Atomic-coordinates input format  =     Fractional

siesta: Atomic coordinates (Bohr) and species
siesta:      9.28770  18.72698   0.00000  1        1
siesta:      9.28770  21.41544   0.00000  1        2
siesta:      4.63094  21.41544   0.00000  1        3
siesta:      6.95932  22.75985   0.00000  1        4
siesta:      6.95932  25.44831   0.00000  1        5
siesta:     -0.02582  21.41544   0.00000  1        6
siesta:      2.30256  22.75985   0.00000  1        7
siesta:      2.30256  25.44831   0.00000  1        8
siesta:     -4.68258  18.72698   0.00000  1        9
siesta:     -4.68258  21.41544   0.00000  1       10
siesta:     -2.35420  22.75985   0.00000  1       11
siesta:     -2.35420  25.44831   0.00000  1       12
siesta:     -7.01096  22.75985   0.00000  1       13
siesta:     -7.01096  25.44831   0.00000  1       14
siesta:      4.63094  26.79272   0.00000  1       15
siesta:     -0.02582  26.79272   0.00000  1       16
siesta:     -0.02582  29.48119   0.00000  1       17
siesta:     -4.68258  26.79272   0.00000  1       18
siesta:     -4.68258  29.48119   0.00000  1       19
siesta:     -2.35420  30.82560   0.00000  1       20
siesta:     -2.35420  33.51406   0.00000  1       21
siesta:     -0.02582  34.85847   0.00000  1       22
siesta:     -0.02582   2.59549   0.00000  2       23
siesta:     -0.02582   5.28395   0.00000  2       24
siesta:     -2.35420  38.89134   0.00000  2       25
siesta:     -2.35420  41.57980   0.00000  2       26
siesta:      2.30256  38.89134   0.00000  2       27
siesta:      2.30256  41.57980   0.00000  2       28
siesta:      4.63094  34.85847   0.00000  2       29
siesta:      4.63094  37.54693   0.00000  2       30
siesta:      6.95932  30.82560   0.00000  2       31
siesta:      6.95932  33.51406   0.00000  2       32
siesta:      9.28770  26.79272   0.00000  2       33
siesta:      9.28770  29.48119   0.00000  2       34
siesta:     -4.68258  34.85847   0.00000  2       35
siesta:     -4.68258  37.54693   0.00000  2       36
siesta:      2.30256   6.62836   0.00000  2       37
siesta:      2.30256   9.31683   0.00000  2       38
siesta:      4.63094  10.66124   0.00000  2       39
siesta:      4.63094  13.34970   0.00000  2       40
siesta:      6.95932  14.69411   0.00000  2       41
siesta:      6.95932  17.38257   0.00000  2       42
siesta:     11.61608  22.75985   0.00000  2       43
siesta:     11.61608  25.44831   0.00000  2       44
siesta:     -2.35420   6.62836   0.00000  2       45
siesta:     -2.35420   9.31683   0.00000  2       46
siesta:     -0.02582  10.66124   0.00000  2       47
siesta:     -0.02582  13.34970   0.00000  2       48
siesta:      2.30256  14.69411   0.00000  2       49
siesta:      2.30256  17.38257   0.00000  2       50
siesta:      4.63094  18.72698   0.00000  2       51
siesta:     -4.68258  10.66124   0.00000  2       52
siesta:     -4.68258  13.34970   0.00000  2       53
siesta:     -2.35420  14.69411   0.00000  2       54
siesta:     -2.35420  17.38257   0.00000  2       55
siesta:     -0.02582  18.72698   0.00000  2       56
siesta:     -7.01096  14.69411   0.00000  2       57
siesta:     -7.01096  17.38257   0.00000  2       58
siesta:     -9.33934  18.72698   0.00000  2       59
siesta:     -9.33934  21.41544   0.00000  2       60
siesta:    -11.66772  22.75985   0.00000  2       61
siesta:    -11.66772  25.44831   0.00000  2       62
siesta:     -9.33934  26.79272   0.00000  2       63
siesta:     -9.33934  29.48119   0.00000  2       64
siesta:      4.63094  29.48119   0.00000  2       65
siesta:      2.30256  30.82560   0.00000  2       66
siesta:      2.30256  33.51406   0.00000  2       67
siesta:     -7.01096  30.82560   0.00000  2       68
siesta:     -7.01096  33.51406   0.00000  2       69
siesta:     -0.02582  37.54693   0.00000  2       70
siesta:     -0.02582  42.92421   0.00000  2       71
siesta:     -0.02582  45.61267   0.00000  2       72

siesta: System type = slab      

initatomlists: Number of atoms, orbitals, and projectors:     72   936  1152

siesta: ******************** Simulation parameters ****************************
siesta:
siesta: The following are some of the parameters of the simulation.
siesta: A complete list of the parameters used, including default values,
siesta: can be found in file out.fdf
siesta:
redata: Non-Collinear-spin run           =     F
redata: SpinPolarized (Up/Down) run      =     F
redata: Number of spin components        =     1
redata: Long output                      =     F
redata: Number of Atomic Species         =        2
redata: Charge density info will appear in .RHO file
redata: Write Mulliken Pop.              =     NO
redata: Mesh Cutoff                      =   200.0000  Ry
redata: Net charge of the system         =     0.0000 |e|
redata: Max. number of SCF Iter          =      500
redata: SCF convergence failure will abort job
redata: Performing Pulay mixing using    =    10 iterations
redata: Mix DM in first SCF step ?       =     F
redata: Write Pulay info on disk?        =     F
redata: Discard 1st Pulay DM after  kick =     F
redata: New DM Mixing Weight             =     0.0500
redata: New DM Occupancy tolerance       = 0.000000000001
redata: No kicks to SCF
redata: DM Mixing Weight for Kicks       =     0.5000
redata: DM Tolerance for SCF             =     0.000100
redata: Require Energy convergence for SCF =     F
redata: DM Energy tolerance for SCF      =     0.000100 eV
redata: Require Harris convergence for SCF =     F
redata: DM Harris energy tolerance for SCF =     0.000100 eV
redata: Using Saved Data (generic)   =     F
redata: Use continuation files for DM    =     T
redata: Neglect nonoverlap interactions  =     F
redata: Method of Calculation            =     Diagonalization
redata: Divide and Conquer               =     T
redata: Electronic Temperature           =     0.0019  Ry
redata: Fix the spin of the system       =     F
redata: Dynamics option                  =     Verlet MD run
redata: Initial MD time step             =        1
redata:   Final MD time step             =        1
redata: Length of MD time step           =     1.0000  fs
redata: Initial Temperature of MD run    =     0.0000  K
redata: Perform a MD quench              =     F
redata: ***********************************************************************
Total number of electrons:   310.000000
Total ionic charge:   310.000000

* ProcessorY, Blocksize:    2  24

k-point displ. along   1 input, could be:     0.50    0.00
k-point displ. along   2 input, could be:     0.50    0.00
 Kpoints in:          231 . Kpoints trimmed:          231

siesta: k-grid: Number of k-points =   231
siesta: k-grid: Cutoff (effective) =     5.000 Ang
siesta: k-grid: Supercell and displacements
siesta: k-grid:   21   0   0      0.500
siesta: k-grid:    0  21   0      0.500
siesta: k-grid:    0   0   1      0.000
Naive supercell factors:     2    2    2

superc: Internal auxiliary supercell:     2 x     2 x     2  =       8
superc: Number of atoms, orbitals, and projectors:    576   7488   9216

* Maximum dynamic memory allocated =     4 MB

siesta:                 ==============================
                            Begin MD step =      1
                        ==============================

superc: Internal auxiliary supercell:     2 x     2 x     2  =       8
superc: Number of atoms, orbitals, and projectors:    576   7488   9216

outcell: Unit cell vectors (Ang):
       12.804619    7.392750    0.000000
        0.000000   14.785500    0.000000
        0.000000    0.000000   10.000000

outcell: Cell vector modules (Ang)   :   14.785500   14.785500   10.000000
outcell: Cell angles (23,13,12) (deg):     90.0000     90.0000     60.0000
outcell: Cell volume (Ang**3)        :   1893.2269
New_DM. Step:     1
Initializing Density Matrix...

InitMesh: MESH =   120 x   120 x    90 =     1296000
InitMesh: Mesh cutoff (required, used) =   200.000   223.865 Ry

* Maximum dynamic memory allocated =   184 MB

stepf: Fermi-Dirac step function

siesta: Program's energy decomposition (eV):
siesta: Ebs     =     -6239.379999
siesta: Eions   =     21939.441643
siesta: Ena     =      4941.431911
siesta: Ekin    =      8224.476411
siesta: Enl     =         9.540562
siesta: DEna    =        -0.000015
siesta: DUscf   =         0.000000
siesta: DUext   =         0.000000
siesta: Exc     =     -4713.730354
siesta: eta*DQ  =         0.000000
siesta: Emadel  =         0.000000
siesta: Emeta   =         0.000000
siesta: Emolmec =         0.000000
siesta: Ekinion =         0.000000
siesta: Eharris =    -13124.973808
siesta: Etot    =    -13477.723128
siesta: FreeEng =    -13477.723128

siesta: iscf   Eharris(eV)      E_KS(eV)   FreeEng(eV)   dDmax  Ef(eV)
siesta:    1   -13124.9738   -13477.7231   -13477.7231  6.5034 -6.6207
timer: Routine,Calls,Time,% = IterSCF        1    3375.341  99.66
elaps: Routine,Calls,Wall,% = IterSCF        1     422.793  99.66
siesta:    2   -21608.3001   -12050.5669   -12050.5732 18.3719-10.2401
siesta:    3   -13066.6507   -13315.5410   -13315.5422  3.4907 -5.6464
siesta:    4   -13027.4236   -13149.7513   -13149.7762  1.4279 -4.7096
siesta:    5   -12956.4027   -13078.6582   -13078.7307  1.0477 -3.9811
siesta:    6   -12946.2484   -13000.4797   -13000.5113  0.9131 -3.6799
siesta:    7   -12943.7127   -12985.6590   -12985.7240  0.7189 -3.7346
siesta:    8   -12938.1805   -12958.2242   -12958.2751  0.6745 -3.7881
siesta:    9   -12938.8716   -12940.9081   -12940.9787  0.4874 -3.8740
siesta:   10   -12937.4470   -12933.4194   -12933.4886  0.4885 -3.8405
siesta:   11   -12936.5584   -12924.6579   -12924.7193  0.4379 -3.8217
siesta:   12   -12936.1704   -12909.2411   -12909.3054  0.2014 -3.7358
siesta:   13   -12935.9374   -12905.1815   -12905.2255  0.2036 -3.7447
siesta:   14   -12935.3674   -12909.2603   -12909.2970  0.1435 -3.7431
siesta:   15   -12934.9766   -12910.9946   -12911.0471  0.1350 -3.7526
siesta:   16   -12933.8470   -12915.1816   -12915.2349  1.1683 -3.7770
siesta:   17   -12934.7593   -12914.2005   -12914.2494  0.1014 -3.7749
siesta:   18   -12934.6807   -12918.0473   -12918.0977  0.1026 -3.7995
siesta:   19   -12934.6372   -12924.4384   -12924.4819  0.0834 -3.8205
siesta:   20   -12934.6228   -12930.1221   -12930.1652  0.0644 -3.8241
siesta:   21   -12934.6111   -12933.4532   -12933.4972  0.0515 -3.8252
siesta:   22   -12934.6069   -12934.6179   -12934.6614  0.0450 -3.8221
siesta:   23   -12934.6032   -12935.9922   -12936.0366  0.0322 -3.8177
siesta:   24   -12934.5963   -12935.8598   -12935.9038  0.0193 -3.8044
siesta:   25   -12934.5940   -12935.3353   -12935.3802  0.0109 -3.7983
siesta:   26   -12934.5927   -12935.1722   -12935.2166  0.0069 -3.7991
siesta:   27   -12934.5927   -12934.9226   -12934.9674  0.0051 -3.8002
siesta:   28   -12934.5927   -12935.0040   -12935.0486  0.0033 -3.7997
siesta:   29   -12934.5927   -12934.8448   -12934.8894  0.0022 -3.8002
siesta:   30   -12934.5925   -12934.8127   -12934.8572  0.0016 -3.8001
siesta:   31   -12934.5925   -12934.7145   -12934.7591  0.0011 -3.8001
siesta:   32   -12934.5925   -12934.6657   -12934.7104  0.0007 -3.8004
siesta:   33   -12934.5925   -12934.6229   -12934.6675  0.0003 -3.8006
siesta:   34   -12934.5925   -12934.6078   -12934.6523  0.0003 -3.8007
siesta:   35   -12934.5925   -12934.5925   -12934.6370  0.0002 -3.8007
siesta:   36   -12934.5925   -12934.5856   -12934.6301  0.0001 -3.8007
siesta:   37   -12934.5925   -12934.5839   -12934.6284  0.0001 -3.8007

siesta: E_KS(eV) =           -12934.5849

siesta: E_KS - E_eggbox =    -12934.5849

siesta: Atomic forces (eV/Ang):
----------------------------------------
   Tot   -0.058356   -0.153562    0.000000
----------------------------------------
   Max  686.022629
   Res  168.755924    sqrt( Sum f_i^2 / 3N )
----------------------------------------
   Max  686.022629    constrained

Stress-tensor-Voigt (kbar):     -707.22    -2978.83       -0.04       18.45        0.00        0.00
(Free)E + p*V (eV/cell)   -11482.7450
Target enthalpy (eV/cell)   -12934.6295

siesta: Stress tensor (static) (eV/Ang**3):
        -0.441410    0.011515    0.000000
         0.011515   -1.859218    0.000000
         0.000000    0.000000   -0.000023

siesta: Pressure (static):       1228.69612007  kBar

siesta: Stress tensor (total) (eV/Ang**3):
        -0.441410    0.011515    0.000000
         0.011515   -1.859218    0.000000
         0.000000    0.000000   -0.000023

siesta: Pressure (total):       1228.69612007  kBar

siesta: Temp_ion =       0.000 K

* Maximum dynamic memory allocated =   200 MB
Computing bands...

siesta: Program's energy decomposition (eV):
siesta: Ebs     =     -5086.040767
siesta: Eions   =     21939.441643
siesta: Ena     =      4941.431911
siesta: Ekin    =     11213.293535
siesta: Enl     =     -1630.999227
siesta: DEna    =      -747.636615
siesta: DUscf   =       105.681682
siesta: DUext   =         0.000000
siesta: Exc     =     -4876.914572
siesta: eta*DQ  =         0.000000
siesta: Emadel  =         0.000000
siesta: Emeta   =         0.000000
siesta: Emolmec =         0.000000
siesta: Ekinion =         0.000000
siesta: Eharris =    -12934.592525
siesta: Etot    =    -12934.584929
siesta: FreeEng =    -12934.629517

siesta: Final energy (eV):
siesta:  Band Struct. =   -5086.040767
siesta:       Kinetic =   11213.293535
siesta:       Hartree =   35911.021173
siesta:    Ext. field =       0.000000
siesta:   Exch.-corr. =   -4876.914572
siesta:  Ion-electron =  -82575.902711
siesta:       Ion-ion =   27393.917647
siesta:       Ekinion =       0.000000
siesta:         Total =  -12934.584929

siesta: Atomic forces (eV/Ang):
siesta:      1   -0.618477    2.316292    0.000000
siesta:      2    3.330465   -3.391541    0.000000
siesta:      3   -0.162090   -1.117942    0.000000
siesta:      4   -1.408685    1.352646    0.000000
siesta:      5    0.190013   -0.901322    0.000000
siesta:      6   -0.355887   -4.303575    0.000000
siesta:      7    1.856300   -0.901706    0.000000
siesta:      8    2.778254   -0.189245    0.000000
siesta:      9    0.952889    0.565995    0.000000
siesta:     10   -0.888030    0.968340    0.000000
siesta:     11   -1.445649   -1.103297    0.000000
siesta:     12   -1.955669    0.266995    0.000000
siesta:     13    0.331949    0.760584    0.000000
siesta:     14    0.593238   -0.963726    0.000000
siesta:     15    0.198448    0.067024    0.000000
siesta:     16    0.417760    7.954675    0.000000
siesta:     17   15.063871 -686.022629    0.000000
siesta:     18   -0.878642   -1.231423    0.000000
siesta:     19   -1.524733   -1.416431    0.000000
siesta:     20  -33.326102   10.708647    0.000000
siesta:     21   -7.641656 -674.380865    0.000000
siesta:     22    1.776714  120.143070    0.000000
siesta:     23   -8.786570  642.800328    0.000000
siesta:     24    2.860191 -116.751600    0.000000
siesta:     25    2.194371  126.254075    0.000000
siesta:     26  -15.142887 -549.038308    0.000000
siesta:     27   -1.509530  127.712548    0.000000
siesta:     28   16.377427 -548.835353    0.000000
siesta:     29   26.731140    6.344063    0.000000
siesta:     30   33.898211 -549.207518    0.000000
siesta:     31    1.272238    0.012503    0.000000
siesta:     32   -2.914597    1.477529    0.000000
siesta:     33    1.721763    2.111800    0.000000
siesta:     34   -0.575412   -0.991114    0.000000
siesta:     35  -26.697986   10.048810    0.000000
siesta:     36  -31.849755 -549.227946    0.000000
siesta:     37   -0.040074  544.125548    0.000000
siesta:     38   -0.437212 -123.135702    0.000000
siesta:     39   34.779141  549.260670    0.000000
siesta:     40   26.092713   -7.125869    0.000000
siesta:     41   -2.158706   -0.359305    0.000000
siesta:     42    0.970587    0.934955    0.000000
siesta:     43   -1.691467    1.916983    0.000000
siesta:     44   -0.958003   -3.678645    0.000000
siesta:     45  -16.246381  654.187613    0.000000
siesta:     46   -0.141322 -116.983340    0.000000
siesta:     47    1.147939  544.788325    0.000000
siesta:     48   -1.131082 -128.685462    0.000000
siesta:     49   21.040857  558.975216    0.000000
siesta:     50   23.469875   -6.756552    0.000000
siesta:     51   -1.044685    2.414622    0.000000
siesta:     52  -35.530441  550.379900    0.000000
siesta:     53  -25.900633   -7.199044    0.000000
siesta:     54  -19.775332  561.337377    0.000000
siesta:     55  -23.504042   -7.007565    0.000000
siesta:     56   -1.491508  565.905508    0.000000
siesta:     57    3.325280   -0.621767    0.000000
siesta:     58   -1.868652   -0.169513    0.000000
siesta:     59    1.341995    0.338918    0.000000
siesta:     60   -2.147696   -1.957129    0.000000
siesta:     61    1.129046    4.473664    0.000000
siesta:     62    1.306695   -4.324571    0.000000
siesta:     63   -2.133850    1.870736    0.000000
siesta:     64    1.166541   -0.390307    0.000000
siesta:     65   -1.318855   -2.591241    0.000000
siesta:     66   26.072151    8.043983    0.000000
siesta:     67   23.821203 -559.439956    0.000000
siesta:     68   -1.845904    0.597429    0.000000
siesta:     69    2.688556    0.233685    0.000000
siesta:     70   -4.199573 -535.110858    0.000000
siesta:     71   -1.193361  129.638359    0.000000
siesta:     72    1.484963 -545.930608    0.000000
siesta: ----------------------------------------
siesta:    Tot   -0.058356   -0.153562    0.000000

siesta: Stress tensor (static) (eV/Ang**3):
siesta:    -0.441410    0.011515    0.000000
siesta:     0.011515   -1.859218    0.000000
siesta:     0.000000    0.000000   -0.000023

siesta: Cell volume =       1893.226884 Ang**3

siesta: Pressure (static):
siesta:                Solid            Molecule  Units
siesta:           0.00835234          0.13202383  Ry/Bohr**3
siesta:           0.76688351         12.12197920  eV/Ang**3
siesta:        1228.69612007      19421.76175741  kBar
(Free)E+ p_basis*V_orbitals  =      -12907.037098
(Free)Eharris+ p_basis*V_orbitals  =      -12907.045770

siesta: Electric dipole (a.u.)  =    0.000000    0.000000    0.000000
siesta: Electric dipole (Debye) =    0.000000    0.000000    0.000000

* Maximum dynamic memory allocated : Node    0 =   200 MB
* Maximum dynamic memory allocated : Node    1 =    69 MB
* Maximum dynamic memory allocated : Node    2 =    73 MB
* Maximum dynamic memory allocated : Node    3 =   192 MB
* Maximum dynamic memory allocated : Node    4 =   183 MB
* Maximum dynamic memory allocated : Node    5 =    71 MB
* Maximum dynamic memory allocated : Node    6 =    72 MB
* Maximum dynamic memory allocated : Node    7 =   166 MB

* Maximum memory occured during matrixMtoO                    

timer: CPU execution times:
timer:  Routine       Calls   Time/call    Tot.time        %
timer:  siesta            1  123064.534  123064.534   100.00
timer:  Setup             1       3.773       3.773     0.00
timer:  bands             3     243.980     731.941     0.59
timer:  writewave         1       0.045       0.045     0.00
timer:  KSV_init          1       0.006       0.006     0.00
timer:  IterMD            1  122323.604  122323.604    99.40
timer:  hsparse           1       0.286       0.286     0.00
timer:  overlap           1       7.124       7.124     0.01
timer:  IterSCF          37    3301.954  122172.305    99.27
timer:  kinefsm           2       3.669       7.339     0.01
timer:  nlefsm            2      17.161      34.323     0.03
timer:  DHSCF            38      74.604    2834.941     2.30
timer:  DHSCF1            1       0.744       0.744     0.00
timer:  DHSCF2            1      30.779      30.779     0.03
timer:  REORD           306       0.005       1.532     0.00
timer:  POISON           39       0.867      33.794     0.03
timer:  DHSCF3           38      73.029    2775.101     2.25
timer:  rhoofd           38      15.091     573.466     0.47
timer:  cellXC           38       3.248     123.431     0.10
timer:  vmat             38      33.861    1286.731     1.05
timer:  MolMec            2       0.000       0.000     0.00
timer:  diagon           37    3226.255  119371.441    97.00
timer:  c-eigval       8668       6.041   52365.333    42.55
timer:  c-buildHS      8668       0.046     396.201     0.32
timer:  cdiag         17215       6.171  106236.236    86.33
timer:  cdiag1        17215       0.384    6614.931     5.38
timer:  cdiag2        17215       1.771   30487.973    24.77
timer:  cdiag3        17215       3.750   64552.264    52.45
timer:  cdiag4        17215       0.152    2615.462     2.13
timer:  c-eigvec       8547       6.386   54580.749    44.35
timer:  c-buildD       8547       1.534   13114.832    10.66
timer:  DHSCF4            1      27.571      27.571     0.02
timer:  dfscf             1      25.718      25.718     0.02
timer:  overfsm           1       0.375       0.375     0.00
timer:  optical           1       4.588       4.588     0.00
  

elaps: ELAPSED times:
elaps:  Routine       Calls   Time/call    Tot.time        %
elaps:  siesta            1   15412.112   15412.112   100.00
elaps:  Setup             1       0.489       0.489     0.00
elaps:  bands             3      30.574      91.722     0.60
elaps:  writewave         1       0.006       0.006     0.00
elaps:  KSV_init          1       0.001       0.001     0.00
elaps:  IterMD            1   15319.297   15319.297    99.40
elaps:  hsparse           1       0.034       0.034     0.00
elaps:  overlap           1       0.889       0.889     0.01
elaps:  IterSCF          37     413.526   15300.465    99.28
elaps:  kinefsm           2       0.458       0.916     0.01
elaps:  nlefsm            2       2.131       4.263     0.03
elaps:  DHSCF            38       9.444     358.886     2.33
elaps:  DHSCF1            1       0.096       0.096     0.00
elaps:  DHSCF2            1       3.853       3.853     0.03
elaps:  REORD           306       0.001       0.196     0.00
elaps:  POISON           39       0.109       4.254     0.03
elaps:  DHSCF3           38       9.146     347.556     2.26
elaps:  rhoofd           38       4.363     165.799     1.08
elaps:  cellXC           38       0.407      15.451     0.10
elaps:  vmat             38       4.241     161.149     1.05
elaps:  MolMec            2       0.000       0.000     0.00
elaps:  diagon           37     404.036   14949.329    97.00
elaps:  c-eigval       8668       0.757    6557.848    42.55
elaps:  c-buildHS      8668       0.006      53.382     0.35
elaps:  cdiag         17215       0.772   13283.316    86.19
elaps:  cdiag1        17215       0.049     835.532     5.42
elaps:  cdiag2        17215       0.222    3818.955    24.78
elaps:  cdiag3        17215       0.470    8094.502    52.52
elaps:  cdiag4        17215       0.018     317.303     2.06
elaps:  c-eigvec       8547       0.798    6819.734    44.25
elaps:  c-buildD       8547       0.194    1657.601    10.76
elaps:  DHSCF4            1       7.290       7.290     0.05
elaps:  dfscf             1       6.886       6.886     0.04
elaps:  overfsm           1       0.045       0.045     0.00
elaps:  optical           1       0.001       0.001     0.00
  
>> End of run:  27-APR-2016   3:11:05
