Siesta Version:                                        siesta-3.2-pl-3
Architecture  : x86_64-unknown-linux-gnu--unknown
Compiler flags: mpiifort -g -O2 -fPIC -xSSE4.1 -fp-model source -shared-intel 
PARALLEL version

* Running on   12 nodes in parallel
>> Start of run:   1-MAY-2016  16:48:07

                           ***********************       
                           *  WELCOME TO SIESTA  *       
                           ***********************       

reinit: Reading from standard input
************************** Dump of input data file ****************************
#(1) General system descriptors
SystemName            GRP_doping    # Descriptive name of the system
SystemLabel           GRP_doping    # Short name for naming files
%include STRUCT.fdf
%include KPT.fdf
%include BASIS.fdf
#%include TS.fdf # for transiesta calculation
#(4) DFT, Grid, SCF
XC.functional         GGA           # LDA or GGA (default = LDA)
XC.authors            PBE           # CA (Ceperley-Aldr) = PZ
                                    #    (Perdew-Zunger) - LDA - Default
                                    # PW92 (Perdew-Wang-92) - LDA
                                    # PBE (Perdew-Burke-Ernzerhof) - GGA
MeshCutoff            200.000000    Ry      # Default: 50.0 Ry ~ 0.444 Bohr
                                    #         100.0 Ry ~ 0.314 Bohr
MaxSCFIterations      500           # Default: 50
DM.MixingWeight       0.05          # Default: 0.25
DM.NumberPulay        10            # Default: 0
DM.PulayOnFile        F             # SystemLabel.P1, SystemLabel.P2
DM.Tolerance          1.d-4         # Default: 1.d-4
DM.UseSaveDM          .true.        # because of the bug
SCFMustConverge       .true.
NeglNonOverlapInt     F             # Default: F
#(5) Eigenvalue problem: order-N or diagonalization
SolutionMethod        Diagon        # or Transiesta
ElectronicTemperature 300.0 K       # Default: 300.0 K
#(6) Molecular dynamics and relaxations
#MD.TypeOfRun          CG            # Type of dynamics:
#MD.VariableCell       F
#MD.NumCGsteps         0           # 0 for single-point / 100 for gopt
#MD.MaxCGDispl         0.2 Bohr      # Default: 0.2 Bohr
#MD.MaxForceTol        0.02 eV/Ang   # Default: 0.04 eV/Ang
#MD.MaxStressTol       1.0 GPa       # Default: 1.0 GPa
# Geometry Constraints
#%block GeometryConstraints
#	position from 1 to 44
#%endblock GeometryConstraints
BandLinesScale   pi/a
%block BandLines
 1   0.00000000  0.00000000  0.00000000
50   0.00000000  0.07809418  0.00000000
50   0.04509075  0.07809242  0.00000000
20   0.00000000  0.00000000  0.00000000
%endblock BandLines
************************** End of input data file *****************************

reinit: -----------------------------------------------------------------------
reinit: System Name: GRP_doping
reinit: -----------------------------------------------------------------------
reinit: System Label: GRP_doping                                                  
reinit: -----------------------------------------------------------------------

initatom: Reading input for the pseudopotentials and atomic orbitals ----------
 Species number:            1  Label: N Atomic number:           7
 Species number:            2  Label: C Atomic number:           6
Ground state valence configuration:   2s02  2p03
Reading pseudopotential information in formatted form from N.psf

Valence configuration for pseudopotential generation:
2s( 2.00) rc: 1.48
2p( 3.00) rc: 1.48
3d( 0.00) rc: 1.48
4f( 0.00) rc: 1.48
Ground state valence configuration:   2s02  2p02
Reading pseudopotential information in formatted form from C.psf

Valence configuration for pseudopotential generation:
2s( 2.00) rc: 1.54
2p( 2.00) rc: 1.54
3d( 0.00) rc: 1.54
4f( 0.00) rc: 1.54
For N, standard SIESTA heuristics set lmxkb to 3
 (one more than the basis l, including polarization orbitals).
Use PS.lmax or PS.KBprojectors blocks to override.
For C, standard SIESTA heuristics set lmxkb to 3
 (one more than the basis l, including polarization orbitals).
Use PS.lmax or PS.KBprojectors blocks to override.

<basis_specs>
===============================================================================
N                    Z=   7    Mass=  14.010        Charge= 0.17977+309
Lmxo=1 Lmxkb= 3    BasisType=split      Semic=F
L=0  Nsemic=0  Cnfigmx=2
          n=1  nzeta=2  polorb=0
            splnorm:   0.15000    
               vcte:    0.0000    
               rinn:    0.0000    
                rcs:    0.0000      0.0000    
            lambdas:    1.0000      1.0000    
L=1  Nsemic=0  Cnfigmx=2
          n=1  nzeta=2  polorb=1
            splnorm:   0.15000    
               vcte:    0.0000    
               rinn:    0.0000    
                rcs:    0.0000      0.0000    
            lambdas:    1.0000      1.0000    
-------------------------------------------------------------------------------
L=0  Nkbl=1  erefs: 0.17977+309
L=1  Nkbl=1  erefs: 0.17977+309
L=2  Nkbl=1  erefs: 0.17977+309
L=3  Nkbl=1  erefs: 0.17977+309
===============================================================================
</basis_specs>

atom: Called for N                     (Z =   7)

read_vps: Pseudopotential generation method:
read_vps: ATM3      Troullier-Martins                       
Total valence charge:    5.00000

read_vps: Pseudopotential includes a core correction:
read_vps: Pseudo-core for xc-correction

xc_check: Exchange-correlation functional:
xc_check: GGA Perdew, Burke & Ernzerhof 1996
V l=0 = -2*Zval/r beyond r=  1.4606
V l=1 = -2*Zval/r beyond r=  1.4606
V l=2 = -2*Zval/r beyond r=  1.4606
V l=3 = -2*Zval/r beyond r=  1.4606
All V_l potentials equal beyond r=  1.4606
This should be close to max(r_c) in ps generation
All pots = -2*Zval/r beyond r=  1.4606

VLOCAL1: 99.0% of the norm of Vloc inside     20.347 Ry
VLOCAL1: 99.9% of the norm of Vloc inside     46.372 Ry
atom: Maximum radius for 4*pi*r*r*local-pseudopot. charge    1.76189
atom: Maximum radius for r*vlocal+2*Zval:    1.53550
GHOST: No ghost state for L =  0
GHOST: No ghost state for L =  1
GHOST: No ghost state for L =  2
GHOST: No ghost state for L =  3

KBgen: Kleinman-Bylander projectors: 
   l= 0   rc=  1.634559   el= -1.363963   Ekb=  5.296955   kbcos=  0.335621
   l= 1   rc=  1.614250   el= -0.521451   Ekb= -5.259161   kbcos= -0.433408
   l= 2   rc=  1.718383   el=  0.001991   Ekb= -1.271464   kbcos= -0.007566
   l= 3   rc=  1.761893   el=  0.003093   Ekb= -0.494769   kbcos= -0.001015

KBgen: Total number of  Kleinman-Bylander projectors:   16
atom: -------------------------------------------------------------------------

atom: SANKEY-TYPE ORBITALS:
atom: Selected multiple-zeta basis: split     

SPLIT: Orbitals with angular momentum L= 0

SPLIT: Basis orbitals for state 2s

SPLIT: PAO cut-off radius determined from an
SPLIT: energy shift=  0.007350 Ry

   izeta = 1
                 lambda =    1.000000
                     rc =    4.071465
                 energy =   -1.356470
                kinetic =    1.176977
    potential(screened) =   -2.533447
       potential(ionic) =   -8.057990

   izeta = 2
                 rmatch =    2.905100
              splitnorm =    0.150000
                 energy =   -1.158343
                kinetic =    1.813009
    potential(screened) =   -2.971352
       potential(ionic) =   -8.901931

SPLIT: Orbitals with angular momentum L= 1

SPLIT: Basis orbitals for state 2p

SPLIT: PAO cut-off radius determined from an
SPLIT: energy shift=  0.007350 Ry

   izeta = 1
                 lambda =    1.000000
                     rc =    4.972977
                 energy =   -0.513884
                kinetic =    3.441732
    potential(screened) =   -3.955616
       potential(ionic) =   -9.287901

   izeta = 2
                 rmatch =    3.054066
              splitnorm =    0.150000
                 energy =   -0.318226
                kinetic =    5.125348
    potential(screened) =   -5.443573
       potential(ionic) =  -11.380999

POLgen: Perturbative polarization orbital with L=  2

POLgen: Polarization orbital for state 2p

   izeta = 1
                     rc =    4.972977
                 energy =    1.607437
                kinetic =    3.268125
    potential(screened) =   -1.660688
       potential(ionic) =   -5.973652
atom: Total number of Sankey-type orbitals: 13

atm_pop: Valence configuration (for local Pseudopot. screening):
 2s( 2.00)                                                            
 2p( 3.00)                                                            
Vna: chval, zval:    5.00000   5.00000

Vna:  Cut-off radius for the neutral-atom potential:   4.972977
comcore: Pseudo-core radius Rcore=  1.554824

atom: _________________________________________________________________________

<basis_specs>
===============================================================================
C                    Z=   6    Mass=  12.010        Charge= 0.17977+309
Lmxo=1 Lmxkb= 3    BasisType=split      Semic=F
L=0  Nsemic=0  Cnfigmx=2
          n=1  nzeta=2  polorb=0
            splnorm:   0.15000    
               vcte:    0.0000    
               rinn:    0.0000    
                rcs:    0.0000      0.0000    
            lambdas:    1.0000      1.0000    
L=1  Nsemic=0  Cnfigmx=2
          n=1  nzeta=2  polorb=1
            splnorm:   0.15000    
               vcte:    0.0000    
               rinn:    0.0000    
                rcs:    0.0000      0.0000    
            lambdas:    1.0000      1.0000    
-------------------------------------------------------------------------------
L=0  Nkbl=1  erefs: 0.17977+309
L=1  Nkbl=1  erefs: 0.17977+309
L=2  Nkbl=1  erefs: 0.17977+309
L=3  Nkbl=1  erefs: 0.17977+309
===============================================================================
</basis_specs>

atom: Called for C                     (Z =   6)

read_vps: Pseudopotential generation method:
read_vps: ATM3      Troullier-Martins                       
Total valence charge:    4.00000

read_vps: Pseudopotential includes a core correction:
read_vps: Pseudo-core for xc-correction

xc_check: Exchange-correlation functional:
xc_check: GGA Perdew, Burke & Ernzerhof 1996
V l=0 = -2*Zval/r beyond r=  1.5227
V l=1 = -2*Zval/r beyond r=  1.5227
V l=2 = -2*Zval/r beyond r=  1.5227
V l=3 = -2*Zval/r beyond r=  1.5038
All V_l potentials equal beyond r=  1.5227
This should be close to max(r_c) in ps generation
All pots = -2*Zval/r beyond r=  1.5227

VLOCAL1: 99.0% of the norm of Vloc inside     18.722 Ry
VLOCAL1: 99.9% of the norm of Vloc inside     42.668 Ry
atom: Maximum radius for 4*pi*r*r*local-pseudopot. charge    1.83678
atom: Maximum radius for r*vlocal+2*Zval:    1.58088
GHOST: No ghost state for L =  0
GHOST: No ghost state for L =  1
GHOST: No ghost state for L =  2
GHOST: No ghost state for L =  3

KBgen: Kleinman-Bylander projectors: 
   l= 0   rc=  1.704034   el= -1.009801   Ekb=  5.335044   kbcos=  0.316824
   l= 1   rc=  1.704034   el= -0.388707   Ekb= -3.785862   kbcos= -0.366464
   l= 2   rc=  1.791422   el=  0.001971   Ekb= -0.970471   kbcos= -0.009212
   l= 3   rc=  1.859892   el=  0.003065   Ekb= -0.399525   kbcos= -0.001223

KBgen: Total number of  Kleinman-Bylander projectors:   16
atom: -------------------------------------------------------------------------

atom: SANKEY-TYPE ORBITALS:
atom: Selected multiple-zeta basis: split     

SPLIT: Orbitals with angular momentum L= 0

SPLIT: Basis orbitals for state 2s

SPLIT: PAO cut-off radius determined from an
SPLIT: energy shift=  0.007350 Ry

   izeta = 1
                 lambda =    1.000000
                     rc =    4.632753
                 energy =   -1.002270
                kinetic =    0.855760
    potential(screened) =   -1.858031
       potential(ionic) =   -5.417575

   izeta = 2
                 rmatch =    3.431921
              splitnorm =    0.150000
                 energy =   -0.867111
                kinetic =    1.300804
    potential(screened) =   -2.167915
       potential(ionic) =   -5.962684

SPLIT: Orbitals with angular momentum L= 1

SPLIT: Basis orbitals for state 2p

SPLIT: PAO cut-off radius determined from an
SPLIT: energy shift=  0.007350 Ry

   izeta = 1
                 lambda =    1.000000
                     rc =    5.658549
                 energy =   -0.381140
                kinetic =    2.399701
    potential(screened) =   -2.780841
       potential(ionic) =   -6.206085

   izeta = 2
                 rmatch =    3.653288
              splitnorm =    0.150000
                 energy =   -0.249149
                kinetic =    3.542762
    potential(screened) =   -3.791911
       potential(ionic) =   -7.581078

POLgen: Perturbative polarization orbital with L=  2

POLgen: Polarization orbital for state 2p

   izeta = 1
                     rc =    5.658549
                 energy =    1.109913
                kinetic =    2.304789
    potential(screened) =   -1.194876
       potential(ionic) =   -4.013592
atom: Total number of Sankey-type orbitals: 13

atm_pop: Valence configuration (for local Pseudopot. screening):
 2s( 2.00)                                                            
 2p( 2.00)                                                            
Vna: chval, zval:    4.00000   4.00000

Vna:  Cut-off radius for the neutral-atom potential:   5.658549
comcore: Pseudo-core radius Rcore=  1.791422

atom: _________________________________________________________________________

prinput: Basis input ----------------------------------------------------------

PAO.BasisType split     

%block ChemicalSpeciesLabel
    1    7 N                       # Species index, atomic number, species label
    2    6 C                       # Species index, atomic number, species label
%endblock ChemicalSpeciesLabel

%block PAO.Basis                 # Define Basis set
N                     2                    # Species label, number of l-shells
 n=2   0   2                         # n, l, Nzeta 
   4.071      2.905   
   1.000      1.000   
 n=2   1   2 P   1                   # n, l, Nzeta, Polarization, NzetaPol
   4.973      3.054   
   1.000      1.000   
C                     2                    # Species label, number of l-shells
 n=2   0   2                         # n, l, Nzeta 
   4.633      3.432   
   1.000      1.000   
 n=2   1   2 P   1                   # n, l, Nzeta, Polarization, NzetaPol
   5.659      3.653   
   1.000      1.000   
%endblock PAO.Basis

prinput: ----------------------------------------------------------------------

coor:   Atomic-coordinates input format  =     Fractional

siesta: Atomic coordinates (Bohr) and species
siesta:     -0.02582   5.28395   0.00000  1        1
siesta:      4.63094  34.85847   0.00000  1        2
siesta:      4.63094  21.41544   0.00000  1        3
siesta:      6.95932  22.75985   0.00000  1        4
siesta:     -0.02582  21.41544   0.00000  1        5
siesta:      2.30256  22.75985   0.00000  1        6
siesta:     -2.35420  22.75985   0.00000  1        7
siesta:     -9.33934  18.72698   0.00000  1        8
siesta:     -9.33934  21.41544   0.00000  1        9
siesta:     -7.01096  22.75985   0.00000  1       10
siesta:     -7.01096  25.44831   0.00000  1       11
siesta:     -0.02582  26.79272   0.00000  1       12
siesta:     -0.02582  29.48119   0.00000  1       13
siesta:     -4.68258  26.79272   0.00000  1       14
siesta:      2.30256  30.82560   0.00000  1       15
siesta:      2.30256  33.51406   0.00000  1       16
siesta:     -0.02582  42.92421   0.00000  1       17
siesta:     -0.02582   2.59549   0.00000  2       18
siesta:     -2.35420  38.89134   0.00000  2       19
siesta:     -2.35420  41.57980   0.00000  2       20
siesta:      2.30256  38.89134   0.00000  2       21
siesta:      2.30256  41.57980   0.00000  2       22
siesta:      4.63094  37.54693   0.00000  2       23
siesta:      6.95932  30.82560   0.00000  2       24
siesta:      6.95932  33.51406   0.00000  2       25
siesta:      9.28770  26.79272   0.00000  2       26
siesta:      9.28770  29.48119   0.00000  2       27
siesta:     -4.68258  34.85847   0.00000  2       28
siesta:     -4.68258  37.54693   0.00000  2       29
siesta:      2.30256   6.62836   0.00000  2       30
siesta:      2.30256   9.31683   0.00000  2       31
siesta:      4.63094  10.66124   0.00000  2       32
siesta:      4.63094  13.34970   0.00000  2       33
siesta:      6.95932  14.69411   0.00000  2       34
siesta:      6.95932  17.38257   0.00000  2       35
siesta:      9.28770  18.72698   0.00000  2       36
siesta:      9.28770  21.41544   0.00000  2       37
siesta:     11.61608  22.75985   0.00000  2       38
siesta:     11.61608  25.44831   0.00000  2       39
siesta:     -2.35420   6.62836   0.00000  2       40
siesta:     -2.35420   9.31683   0.00000  2       41
siesta:     -0.02582  10.66124   0.00000  2       42
siesta:     -0.02582  13.34970   0.00000  2       43
siesta:      2.30256  14.69411   0.00000  2       44
siesta:      2.30256  17.38257   0.00000  2       45
siesta:      4.63094  18.72698   0.00000  2       46
siesta:      6.95932  25.44831   0.00000  2       47
siesta:     -4.68258  10.66124   0.00000  2       48
siesta:     -4.68258  13.34970   0.00000  2       49
siesta:     -2.35420  14.69411   0.00000  2       50
siesta:     -2.35420  17.38257   0.00000  2       51
siesta:     -0.02582  18.72698   0.00000  2       52
siesta:      2.30256  25.44831   0.00000  2       53
siesta:     -7.01096  14.69411   0.00000  2       54
siesta:     -7.01096  17.38257   0.00000  2       55
siesta:     -4.68258  18.72698   0.00000  2       56
siesta:     -4.68258  21.41544   0.00000  2       57
siesta:     -2.35420  25.44831   0.00000  2       58
siesta:    -11.66772  22.75985   0.00000  2       59
siesta:    -11.66772  25.44831   0.00000  2       60
siesta:     -9.33934  26.79272   0.00000  2       61
siesta:     -9.33934  29.48119   0.00000  2       62
siesta:      4.63094  26.79272   0.00000  2       63
siesta:      4.63094  29.48119   0.00000  2       64
siesta:     -4.68258  29.48119   0.00000  2       65
siesta:     -2.35420  30.82560   0.00000  2       66
siesta:     -2.35420  33.51406   0.00000  2       67
siesta:     -7.01096  30.82560   0.00000  2       68
siesta:     -7.01096  33.51406   0.00000  2       69
siesta:     -0.02582  34.85847   0.00000  2       70
siesta:     -0.02582  37.54693   0.00000  2       71
siesta:     -0.02582  45.61267   0.00000  2       72

siesta: System type = slab      

initatomlists: Number of atoms, orbitals, and projectors:     72   936  1152

siesta: ******************** Simulation parameters ****************************
siesta:
siesta: The following are some of the parameters of the simulation.
siesta: A complete list of the parameters used, including default values,
siesta: can be found in file out.fdf
siesta:
redata: Non-Collinear-spin run           =     F
redata: SpinPolarized (Up/Down) run      =     F
redata: Number of spin components        =     1
redata: Long output                      =     F
redata: Number of Atomic Species         =        2
redata: Charge density info will appear in .RHO file
redata: Write Mulliken Pop.              =     NO
redata: Mesh Cutoff                      =   200.0000  Ry
redata: Net charge of the system         =     0.0000 |e|
redata: Max. number of SCF Iter          =      500
redata: SCF convergence failure will abort job
redata: Performing Pulay mixing using    =    10 iterations
redata: Mix DM in first SCF step ?       =     F
redata: Write Pulay info on disk?        =     F
redata: Discard 1st Pulay DM after  kick =     F
redata: New DM Mixing Weight             =     0.0500
redata: New DM Occupancy tolerance       = 0.000000000001
redata: No kicks to SCF
redata: DM Mixing Weight for Kicks       =     0.5000
redata: DM Tolerance for SCF             =     0.000100
redata: Require Energy convergence for SCF =     F
redata: DM Energy tolerance for SCF      =     0.000100 eV
redata: Require Harris convergence for SCF =     F
redata: DM Harris energy tolerance for SCF =     0.000100 eV
redata: Using Saved Data (generic)   =     F
redata: Use continuation files for DM    =     T
redata: Neglect nonoverlap interactions  =     F
redata: Method of Calculation            =     Diagonalization
redata: Divide and Conquer               =     T
redata: Electronic Temperature           =     0.0019  Ry
redata: Fix the spin of the system       =     F
redata: Dynamics option                  =     Verlet MD run
redata: Initial MD time step             =        1
redata:   Final MD time step             =        1
redata: Length of MD time step           =     1.0000  fs
redata: Initial Temperature of MD run    =     0.0000  K
redata: Perform a MD quench              =     F
redata: ***********************************************************************
Total number of electrons:   305.000000
Total ionic charge:   305.000000

* ProcessorY, Blocksize:    3  24

k-point displ. along   1 input, could be:     0.50    0.00
k-point displ. along   2 input, could be:     0.50    0.00
 Kpoints in:          231 . Kpoints trimmed:          231

siesta: k-grid: Number of k-points =   231
siesta: k-grid: Cutoff (effective) =     5.000 Ang
siesta: k-grid: Supercell and displacements
siesta: k-grid:   21   0   0      0.500
siesta: k-grid:    0  21   0      0.500
siesta: k-grid:    0   0   1      0.000
Naive supercell factors:     2    2    2

superc: Internal auxiliary supercell:     2 x     2 x     2  =       8
superc: Number of atoms, orbitals, and projectors:    576   7488   9216

* Maximum dynamic memory allocated =     4 MB

siesta:                 ==============================
                            Begin MD step =      1
                        ==============================

superc: Internal auxiliary supercell:     2 x     2 x     2  =       8
superc: Number of atoms, orbitals, and projectors:    576   7488   9216

outcell: Unit cell vectors (Ang):
       12.804619    7.392750    0.000000
        0.000000   14.785500    0.000000
        0.000000    0.000000   10.000000

outcell: Cell vector modules (Ang)   :   14.785500   14.785500   10.000000
outcell: Cell angles (23,13,12) (deg):     90.0000     90.0000     60.0000
outcell: Cell volume (Ang**3)        :   1893.2269
New_DM. Step:     1
Initializing Density Matrix...

InitMesh: MESH =   120 x   120 x    90 =     1296000
InitMesh: Mesh cutoff (required, used) =   200.000   223.865 Ry

* Maximum dynamic memory allocated =   134 MB

stepf: Fermi-Dirac step function

siesta: Program's energy decomposition (eV):
siesta: Ebs     =     -6178.382703
siesta: Eions   =     21135.707422
siesta: Ena     =      4889.295127
siesta: Ekin    =      7804.862351
siesta: Enl     =       138.116894
siesta: DEna    =        -0.000015
siesta: DUscf   =         0.000000
siesta: DUext   =         0.000000
siesta: Exc     =     -4592.807977
siesta: eta*DQ  =         0.000000
siesta: Emadel  =         0.000000
siesta: Emeta   =         0.000000
siesta: Emolmec =         0.000000
siesta: Ekinion =         0.000000
siesta: Eharris =    -12536.079870
siesta: Etot    =    -12896.241041
siesta: FreeEng =    -12896.241041

siesta: iscf   Eharris(eV)      E_KS(eV)   FreeEng(eV)   dDmax  Ef(eV)
siesta:    1   -12536.0799   -12896.2410   -12896.2410  6.7639 -6.9394
timer: Routine,Calls,Time,% = IterSCF        1    3001.185  99.59
elaps: Routine,Calls,Wall,% = IterSCF        1     250.694  99.59
siesta:    2   -18439.8579   -11754.9548   -11755.0091 21.9252 -6.2932
siesta:    3   -12476.2276   -12702.0291   -12702.0642  3.1268 -4.9567
siesta:    4   -12433.1635   -12561.6831   -12561.7451  1.5352 -4.2309
siesta:    5   -12387.7101   -12485.2972   -12485.3564  0.9939 -3.8433
siesta:    6   -12380.6515   -12441.9316   -12441.9827  0.8946 -3.7115
siesta:    7   -12376.4600   -12428.7034   -12428.7840  0.8446 -3.7127
siesta:    8   -12372.0836   -12414.0258   -12414.0866  0.7401 -3.7626
siesta:    9   -12371.2280   -12396.7106   -12396.8030  0.6130 -3.8125
siesta:   10   -12370.2656   -12381.5076   -12381.5774  0.8867 -3.8222
siesta:   11   -12371.0290   -12380.1140   -12380.1628  0.4402 -3.8176
siesta:   12   -12371.3325   -12366.5811   -12366.6321  0.3560 -3.7518
siesta:   13   -12371.5490   -12352.8339   -12352.9145  0.2111 -3.8145
siesta:   14   -12370.6853   -12352.5796   -12352.6404  0.1826 -3.7535
siesta:   15   -12370.3422   -12352.1789   -12352.2564  0.1965 -3.7414
siesta:   16   -12369.5826   -12355.1494   -12355.2265  0.1128 -3.6831
siesta:   17   -12369.3995   -12355.4899   -12355.5779  0.1265 -3.6933
siesta:   18   -12369.3382   -12356.0340   -12356.1206  0.1140 -3.7048
siesta:   19   -12369.2781   -12361.5788   -12361.6667  0.0643 -3.7365
siesta:   20   -12369.2660   -12362.3229   -12362.4040  0.0572 -3.7353
siesta:   21   -12369.2566   -12366.6868   -12366.7703  0.0469 -3.7489
siesta:   22   -12369.2401   -12367.4945   -12367.5749  0.0388 -3.7407
siesta:   23   -12369.2332   -12368.8923   -12368.9774  0.0269 -3.7384
siesta:   24   -12369.2317   -12368.7038   -12368.7907  0.0307 -3.7367
siesta:   25   -12369.2275   -12369.2974   -12369.3823  0.0209 -3.7313
siesta:   26   -12369.2275   -12369.5836   -12369.6711  0.0131 -3.7273
siesta:   27   -12369.2262   -12369.6371   -12369.7249  0.0083 -3.7248
siesta:   28   -12369.2267   -12369.5174   -12369.6056  0.0098 -3.7262
siesta:   29   -12369.2260   -12369.6675   -12369.7546  0.0041 -3.7248
siesta:   30   -12369.2255   -12369.7458   -12369.8334  0.0029 -3.7242
siesta:   31   -12369.2255   -12369.4859   -12369.5736  0.0013 -3.7246
siesta:   32   -12369.2254   -12369.4285   -12369.5162  0.0009 -3.7248
siesta:   33   -12369.2254   -12369.4052   -12369.4929  0.0007 -3.7248
siesta:   34   -12369.2254   -12369.3394   -12369.4271  0.0006 -3.7248
siesta:   35   -12369.2254   -12369.2803   -12369.3680  0.0006 -3.7250
siesta:   36   -12369.2254   -12369.2346   -12369.3223  0.0003 -3.7250
siesta:   37   -12369.2254   -12369.2349   -12369.3225  0.0001 -3.7251
siesta:   38   -12369.2254   -12369.2343   -12369.3219  0.0001 -3.7250
siesta:   39   -12369.2254   -12369.2309   -12369.3186  0.0001 -3.7251
siesta:   40   -12369.2254   -12369.2303   -12369.3180  0.0001 -3.7251

siesta: E_KS(eV) =           -12369.2286

siesta: E_KS - E_eggbox =    -12369.2286

siesta: Atomic forces (eV/Ang):
----------------------------------------
   Tot   -0.072373   -0.197946    0.000000
----------------------------------------
   Max  688.990497
   Res  169.066979    sqrt( Sum f_i^2 / 3N )
----------------------------------------
   Max  688.990497    constrained

Stress-tensor-Voigt (kbar):     -666.78    -3006.43       -0.06      -18.49        0.00        0.00
(Free)E + p*V (eV/cell)   -10922.4812
Target enthalpy (eV/cell)   -12369.3163

siesta: Stress tensor (static) (eV/Ang**3):
        -0.416167   -0.011541    0.000000
        -0.011541   -1.876446    0.000000
         0.000000    0.000000   -0.000036

siesta: Pressure (static):       1224.42296633  kBar

siesta: Stress tensor (total) (eV/Ang**3):
        -0.416167   -0.011541    0.000000
        -0.011541   -1.876446    0.000000
         0.000000    0.000000   -0.000036

siesta: Pressure (total):       1224.42296633  kBar

siesta: Temp_ion =       0.000 K

* Maximum dynamic memory allocated =   146 MB
Computing bands...

siesta: Program's energy decomposition (eV):
siesta: Ebs     =     -4962.180914
siesta: Eions   =     21135.707422
siesta: Ena     =      4889.295127
siesta: Ekin    =     10836.721698
siesta: Enl     =     -1530.291384
siesta: DEna    =      -773.450719
siesta: DUscf   =       106.034580
siesta: DUext   =         0.000000
siesta: Exc     =     -4761.830483
siesta: eta*DQ  =         0.000000
siesta: Emadel  =         0.000000
siesta: Emeta   =         0.000000
siesta: Emolmec =         0.000000
siesta: Ekinion =         0.000000
siesta: Eharris =    -12369.225392
siesta: Etot    =    -12369.228602
siesta: FreeEng =    -12369.316297

siesta: Final energy (eV):
siesta:  Band Struct. =   -4962.180914
siesta:       Kinetic =   10836.721698
siesta:       Hartree =   35009.351917
siesta:    Ext. field =       0.000000
siesta:   Exch.-corr. =   -4761.830483
siesta:  Ion-electron =  -80404.876354
siesta:       Ion-ion =   26951.404620
siesta:       Ekinion =       0.000000
siesta:         Total =  -12369.228602

siesta: Atomic forces (eV/Ang):
siesta:      1   -1.529196 -116.411905    0.000000
siesta:      2   31.589493    9.843317    0.000000
siesta:      3    0.409240   -1.466965    0.000000
siesta:      4    0.251150    2.447655    0.000000
siesta:      5    0.304087   -1.525253    0.000000
siesta:      6   -0.392539    1.531264    0.000000
siesta:      7   -1.375812    1.250519    0.000000
siesta:      8    1.331398    1.612287    0.000000
siesta:      9   -2.530091   -2.407384    0.000000
siesta:     10    3.228457    0.687974    0.000000
siesta:     11   -0.972804   -0.087760    0.000000
siesta:     12   -1.305685    1.131393    0.000000
siesta:     13   -9.299546 -688.990497    0.000000
siesta:     14    1.208951   -0.865860    0.000000
siesta:     15   32.184398    7.520404    0.000000
siesta:     16   -7.808878 -671.196297    0.000000
siesta:     17   -0.236121  119.551881    0.000000
siesta:     18    5.931541  640.765052    0.000000
siesta:     19    0.668178  127.100316    0.000000
siesta:     20  -19.446058 -552.713721    0.000000
siesta:     21   -0.718012  126.805600    0.000000
siesta:     22   20.062526 -552.763260    0.000000
siesta:     23   24.961391 -548.715511    0.000000
siesta:     24    0.597381    0.408871    0.000000
siesta:     25   -1.122510    1.236458    0.000000
siesta:     26    1.189758    1.582494    0.000000
siesta:     27   -0.938246    0.833834    0.000000
siesta:     28  -26.143487    6.011921    0.000000
siesta:     29  -33.066499 -550.591626    0.000000
siesta:     30   34.012554  652.896031    0.000000
siesta:     31    0.602485 -116.562612    0.000000
siesta:     32   35.900351  549.768097    0.000000
siesta:     33   25.980741   -6.275705    0.000000
siesta:     34   -3.228516   -1.590742    0.000000
siesta:     35    2.282256    0.394957    0.000000
siesta:     36   -0.871236   -0.300453    0.000000
siesta:     37    1.184468   -1.481080    0.000000
siesta:     38   -0.749704    5.295363    0.000000
siesta:     39    0.064691   -5.925400    0.000000
siesta:     40  -15.175308  552.841437    0.000000
siesta:     41    0.110114 -125.841554    0.000000
siesta:     42   -1.530623  545.656540    0.000000
siesta:     43    0.148461 -124.159317    0.000000
siesta:     44    8.244934  559.013183    0.000000
siesta:     45   24.175441   -3.311683    0.000000
siesta:     46   -2.427468    2.871324    0.000000
siesta:     47   -0.146856   -1.583095    0.000000
siesta:     48  -34.562713  550.523083    0.000000
siesta:     49  -25.388104   -7.509476    0.000000
siesta:     50   -7.882622  557.875052    0.000000
siesta:     51  -24.428685   -3.882768    0.000000
siesta:     52   -0.232819  572.551305    0.000000
siesta:     53    0.557249    0.173191    0.000000
siesta:     54    1.654502   -0.112842    0.000000
siesta:     55   -2.243521    0.126472    0.000000
siesta:     56    2.552736    3.860051    0.000000
siesta:     57   -0.216642   -0.354003    0.000000
siesta:     58   -1.249478    0.080843    0.000000
siesta:     59    1.614213    2.036275    0.000000
siesta:     60    0.598806   -4.216166    0.000000
siesta:     61   -1.073131    1.740007    0.000000
siesta:     62    0.925348   -0.276742    0.000000
siesta:     63   -1.114685    0.135774    0.000000
siesta:     64   -1.409890   -2.488584    0.000000
siesta:     65    1.325269   -2.748601    0.000000
siesta:     66  -26.341874    5.888424    0.000000
siesta:     67  -10.658881 -556.037084    0.000000
siesta:     68   -1.533012   -0.258295    0.000000
siesta:     69    2.766298    1.515099    0.000000
siesta:     70   -2.543762  126.065630    0.000000
siesta:     71    3.319578 -547.979546    0.000000
siesta:     72   -0.115802 -541.195535    0.000000
siesta: ----------------------------------------
siesta:    Tot   -0.072373   -0.197946    0.000000

siesta: Stress tensor (static) (eV/Ang**3):
siesta:    -0.416167   -0.011541    0.000000
siesta:    -0.011541   -1.876446    0.000000
siesta:     0.000000    0.000000   -0.000036

siesta: Cell volume =       1893.226884 Ang**3

siesta: Pressure (static):
siesta:                Solid            Molecule  Units
siesta:           0.00832329          0.13263710  Ry/Bohr**3
siesta:           0.76421645         12.17828703  eV/Ang**3
siesta:        1224.42296633      19511.97782738  kBar
(Free)E+ p_basis*V_orbitals  =      -12341.009060
(Free)Eharris+ p_basis*V_orbitals  =      -12341.004135

siesta: Electric dipole (a.u.)  =    0.000000    0.000000    0.000000
siesta: Electric dipole (Debye) =    0.000000    0.000000    0.000000

* Maximum dynamic memory allocated : Node    0 =   144 MB
* Maximum dynamic memory allocated : Node    1 =    57 MB
* Maximum dynamic memory allocated : Node    2 =    60 MB
* Maximum dynamic memory allocated : Node    3 =   133 MB
* Maximum dynamic memory allocated : Node    4 =   146 MB
* Maximum dynamic memory allocated : Node    5 =    53 MB
* Maximum dynamic memory allocated : Node    6 =    56 MB
* Maximum dynamic memory allocated : Node    7 =   138 MB
* Maximum dynamic memory allocated : Node    8 =   124 MB
* Maximum dynamic memory allocated : Node    9 =    52 MB
* Maximum dynamic memory allocated : Node   10 =    54 MB
* Maximum dynamic memory allocated : Node   11 =   121 MB

* Maximum memory occured during matrixMtoO                    

timer: CPU execution times:
timer:  Routine       Calls   Time/call    Tot.time        %
timer:  siesta            1  117919.183  117919.183   100.00
timer:  Setup             1       3.270       3.270     0.00
timer:  bands             3     226.116     678.348     0.58
timer:  writewave         1       0.023       0.023     0.00
timer:  KSV_init          1       0.004       0.004     0.00
timer:  IterMD            1  117230.650  117230.650    99.42
timer:  hsparse           1       0.169       0.169     0.00
timer:  overlap           1       7.562       7.562     0.01
timer:  IterSCF          40    2927.633  117105.322    99.31
timer:  kinefsm           2       3.829       7.658     0.01
timer:  nlefsm            2      18.192      36.385     0.03
timer:  DHSCF            41      62.406    2558.637     2.17
timer:  DHSCF1            1       0.898       0.898     0.00
timer:  DHSCF2            1      24.854      24.854     0.02
timer:  REORD           330       0.003       0.840     0.00
timer:  POISON           42       0.452      18.981     0.02
timer:  DHSCF3           41      61.264    2511.827     2.13
timer:  rhoofd           41      12.173     499.108     0.42
timer:  cellXC           41       2.422      99.290     0.08
timer:  vmat             41      28.812    1181.280     1.00
timer:  MolMec            2       0.000       0.000     0.00
timer:  diagon           40    2864.064  114562.575    97.15
timer:  c-eigval       9361       5.594   52360.822    44.40
timer:  c-buildHS      9361       0.033     305.745     0.26
timer:  cdiag         18601       5.691  105858.950    89.77
timer:  cdiag1        18601       0.261    4849.603     4.11
timer:  cdiag2        18601       1.838   34180.062    28.99
timer:  cdiag3        18601       3.388   63012.627    53.44
timer:  cdiag4        18601       0.090    1667.791     1.41
timer:  c-eigvec       9240       5.850   54056.622    45.84
timer:  c-buildD       9240       0.949    8772.651     7.44
timer:  DHSCF4            1      20.766      20.766     0.02
timer:  dfscf             1      19.346      19.346     0.02
timer:  overfsm           1       0.279       0.279     0.00
timer:  optical           1       6.314       6.314     0.01
  

elaps: ELAPSED times:
elaps:  Routine       Calls   Time/call    Tot.time        %
elaps:  siesta            1    9849.738    9849.738   100.00
elaps:  Setup             1       0.276       0.276     0.00
elaps:  bands             3      18.903      56.708     0.58
elaps:  writewave         1       0.002       0.002     0.00
elaps:  KSV_init          1       0.000       0.000     0.00
elaps:  IterMD            1    9792.222    9792.222    99.42
elaps:  hsparse           1       0.016       0.016     0.00
elaps:  overlap           1       0.714       0.714     0.01
elaps:  IterSCF          40     244.544    9781.752    99.31
elaps:  kinefsm           2       0.362       0.725     0.01
elaps:  nlefsm            2       1.609       3.218     0.03
elaps:  DHSCF            41       5.253     215.383     2.19
elaps:  DHSCF1            1       0.077       0.077     0.00
elaps:  DHSCF2            1       2.075       2.075     0.02
elaps:  REORD           330       0.000       0.099     0.00
elaps:  POISON           42       0.038       1.595     0.02
elaps:  DHSCF3           41       5.118     209.822     2.13
elaps:  rhoofd           41       2.119      86.892     0.88
elaps:  cellXC           41       0.202       8.278     0.08
elaps:  vmat             41       2.407      98.692     1.00
elaps:  MolMec            2       0.000       0.000     0.00
elaps:  diagon           40     239.240    9569.586    97.16
elaps:  c-eigval       9361       0.467    4373.629    44.40
elaps:  c-buildHS      9361       0.003      32.704     0.33
elaps:  cdiag         18601       0.471    8761.152    88.95
elaps:  cdiag1        18601       0.021     398.853     4.05
elaps:  cdiag2        18601       0.154    2857.657    29.01
elaps:  cdiag3        18601       0.283    5271.322    53.52
elaps:  cdiag4        18601       0.007     133.793     1.36
elaps:  c-eigvec       9240       0.481    4447.549    45.15
elaps:  c-buildD       9240       0.087     800.347     8.13
elaps:  DHSCF4            1       3.354       3.354     0.03
elaps:  dfscf             1       3.168       3.168     0.03
elaps:  overfsm           1       0.030       0.030     0.00
elaps:  optical           1       0.000       0.000     0.00
  
>> End of run:   1-MAY-2016  19:32:17
