Siesta Version:                                        siesta-3.2-pl-3
Architecture  : x86_64-unknown-linux-gnu--unknown
Compiler flags: mpiifort -g -O2 -fPIC -xSSE4.1 -fp-model source -shared-intel 
PARALLEL version

* Running on   12 nodes in parallel
>> Start of run:   6-APR-2016  13:53:10

                           ***********************       
                           *  WELCOME TO SIESTA  *       
                           ***********************       

reinit: Reading from standard input
************************** Dump of input data file ****************************
#(1) General system descriptors
SystemName            GRP_doping    # Descriptive name of the system
SystemLabel           GRP_doping    # Short name for naming files
%include STRUCT.fdf
%include KPT.fdf
%include BASIS.fdf
#%include TS.fdf # for transiesta calculation
#(4) DFT, Grid, SCF
XC.functional         GGA           # LDA or GGA (default = LDA)
XC.authors            PBE           # CA (Ceperley-Aldr) = PZ
                                    #    (Perdew-Zunger) - LDA - Default
                                    # PW92 (Perdew-Wang-92) - LDA
                                    # PBE (Perdew-Burke-Ernzerhof) - GGA
MeshCutoff            200.000000    Ry      # Default: 50.0 Ry ~ 0.444 Bohr
                                    #         100.0 Ry ~ 0.314 Bohr
MaxSCFIterations      500           # Default: 50
DM.MixingWeight       0.05          # Default: 0.25
DM.NumberPulay        10            # Default: 0
DM.PulayOnFile        F             # SystemLabel.P1, SystemLabel.P2
DM.Tolerance          1.d-4         # Default: 1.d-4
DM.UseSaveDM          .true.        # because of the bug
SCFMustConverge       .true.
NeglNonOverlapInt     F             # Default: F
Diag.ParallelOverK    .true.
#(5) Eigenvalue problem: order-N or diagonalization
SolutionMethod        Diagon        # or Transiesta
ElectronicTemperature 300.0 K       # Default: 300.0 K
#(6) Molecular dynamics and relaxations
#MD.TypeOfRun          CG            # Type of dynamics:
#MD.VariableCell       F
#MD.NumCGsteps         0           # 0 for single-point / 100 for gopt
#MD.MaxCGDispl         0.2 Bohr      # Default: 0.2 Bohr
#MD.MaxForceTol        0.02 eV/Ang   # Default: 0.04 eV/Ang
#MD.MaxStressTol       1.0 GPa       # Default: 1.0 GPa
************************** End of input data file *****************************

reinit: -----------------------------------------------------------------------
reinit: System Name: GRP_doping
reinit: -----------------------------------------------------------------------
reinit: System Label: GRP_doping                                                  
reinit: -----------------------------------------------------------------------

initatom: Reading input for the pseudopotentials and atomic orbitals ----------
 Species number:            1  Label: C Atomic number:           6
 Species number:            2  Label: B Atomic number:           5
Ground state valence configuration:   2s02  2p02
Reading pseudopotential information in formatted form from C.psf

Valence configuration for pseudopotential generation:
2s( 2.00) rc: 1.54
2p( 2.00) rc: 1.54
3d( 0.00) rc: 1.54
4f( 0.00) rc: 1.54
Ground state valence configuration:   2s02  2p01
Reading pseudopotential information in formatted form from B.psf

Valence configuration for pseudopotential generation:
2s( 2.00) rc: 1.74
2p( 1.00) rc: 1.74
3d( 0.00) rc: 1.74
4f( 0.00) rc: 1.74
For C, standard SIESTA heuristics set lmxkb to 3
 (one more than the basis l, including polarization orbitals).
Use PS.lmax or PS.KBprojectors blocks to override.
For B, standard SIESTA heuristics set lmxkb to 3
 (one more than the basis l, including polarization orbitals).
Use PS.lmax or PS.KBprojectors blocks to override.

<basis_specs>
===============================================================================
C                    Z=   6    Mass=  12.010        Charge= 0.17977+309
Lmxo=1 Lmxkb= 3    BasisType=split      Semic=F
L=0  Nsemic=0  Cnfigmx=2
          n=1  nzeta=2  polorb=0
            splnorm:   0.15000    
               vcte:    0.0000    
               rinn:    0.0000    
                rcs:    0.0000      0.0000    
            lambdas:    1.0000      1.0000    
L=1  Nsemic=0  Cnfigmx=2
          n=1  nzeta=2  polorb=1
            splnorm:   0.15000    
               vcte:    0.0000    
               rinn:    0.0000    
                rcs:    0.0000      0.0000    
            lambdas:    1.0000      1.0000    
-------------------------------------------------------------------------------
L=0  Nkbl=1  erefs: 0.17977+309
L=1  Nkbl=1  erefs: 0.17977+309
L=2  Nkbl=1  erefs: 0.17977+309
L=3  Nkbl=1  erefs: 0.17977+309
===============================================================================
</basis_specs>

atom: Called for C                     (Z =   6)

read_vps: Pseudopotential generation method:
read_vps: ATM3      Troullier-Martins                       
Total valence charge:    4.00000

read_vps: Pseudopotential includes a core correction:
read_vps: Pseudo-core for xc-correction

xc_check: Exchange-correlation functional:
xc_check: GGA Perdew, Burke & Ernzerhof 1996
V l=0 = -2*Zval/r beyond r=  1.5227
V l=1 = -2*Zval/r beyond r=  1.5227
V l=2 = -2*Zval/r beyond r=  1.5227
V l=3 = -2*Zval/r beyond r=  1.5038
All V_l potentials equal beyond r=  1.5227
This should be close to max(r_c) in ps generation
All pots = -2*Zval/r beyond r=  1.5227

VLOCAL1: 99.0% of the norm of Vloc inside     18.722 Ry
VLOCAL1: 99.9% of the norm of Vloc inside     42.668 Ry
atom: Maximum radius for 4*pi*r*r*local-pseudopot. charge    1.83678
atom: Maximum radius for r*vlocal+2*Zval:    1.58088
GHOST: No ghost state for L =  0
GHOST: No ghost state for L =  1
GHOST: No ghost state for L =  2
GHOST: No ghost state for L =  3

KBgen: Kleinman-Bylander projectors: 
   l= 0   rc=  1.704034   el= -1.009801   Ekb=  5.335044   kbcos=  0.316824
   l= 1   rc=  1.704034   el= -0.388707   Ekb= -3.785862   kbcos= -0.366464
   l= 2   rc=  1.791422   el=  0.001971   Ekb= -0.970471   kbcos= -0.009212
   l= 3   rc=  1.859892   el=  0.003065   Ekb= -0.399525   kbcos= -0.001223

KBgen: Total number of  Kleinman-Bylander projectors:   16
atom: -------------------------------------------------------------------------

atom: SANKEY-TYPE ORBITALS:
atom: Selected multiple-zeta basis: split     

SPLIT: Orbitals with angular momentum L= 0

SPLIT: Basis orbitals for state 2s

SPLIT: PAO cut-off radius determined from an
SPLIT: energy shift=  0.007350 Ry

   izeta = 1
                 lambda =    1.000000
                     rc =    4.632753
                 energy =   -1.002270
                kinetic =    0.855760
    potential(screened) =   -1.858031
       potential(ionic) =   -5.417575

   izeta = 2
                 rmatch =    3.431921
              splitnorm =    0.150000
                 energy =   -0.867111
                kinetic =    1.300804
    potential(screened) =   -2.167915
       potential(ionic) =   -5.962684

SPLIT: Orbitals with angular momentum L= 1

SPLIT: Basis orbitals for state 2p

SPLIT: PAO cut-off radius determined from an
SPLIT: energy shift=  0.007350 Ry

   izeta = 1
                 lambda =    1.000000
                     rc =    5.658549
                 energy =   -0.381140
                kinetic =    2.399701
    potential(screened) =   -2.780841
       potential(ionic) =   -6.206085

   izeta = 2
                 rmatch =    3.653288
              splitnorm =    0.150000
                 energy =   -0.249149
                kinetic =    3.542762
    potential(screened) =   -3.791911
       potential(ionic) =   -7.581078

POLgen: Perturbative polarization orbital with L=  2

POLgen: Polarization orbital for state 2p

   izeta = 1
                     rc =    5.658549
                 energy =    1.109913
                kinetic =    2.304789
    potential(screened) =   -1.194876
       potential(ionic) =   -4.013592
atom: Total number of Sankey-type orbitals: 13

atm_pop: Valence configuration (for local Pseudopot. screening):
 2s( 2.00)                                                            
 2p( 2.00)                                                            
Vna: chval, zval:    4.00000   4.00000

Vna:  Cut-off radius for the neutral-atom potential:   5.658549
comcore: Pseudo-core radius Rcore=  1.791422

atom: _________________________________________________________________________

<basis_specs>
===============================================================================
B                    Z=   5    Mass=  10.810        Charge= 0.17977+309
Lmxo=1 Lmxkb= 3    BasisType=split      Semic=F
L=0  Nsemic=0  Cnfigmx=2
          n=1  nzeta=2  polorb=0
            splnorm:   0.15000    
               vcte:    0.0000    
               rinn:    0.0000    
                rcs:    0.0000      0.0000    
            lambdas:    1.0000      1.0000    
L=1  Nsemic=0  Cnfigmx=2
          n=1  nzeta=2  polorb=1
            splnorm:   0.15000    
               vcte:    0.0000    
               rinn:    0.0000    
                rcs:    0.0000      0.0000    
            lambdas:    1.0000      1.0000    
-------------------------------------------------------------------------------
L=0  Nkbl=1  erefs: 0.17977+309
L=1  Nkbl=1  erefs: 0.17977+309
L=2  Nkbl=1  erefs: 0.17977+309
L=3  Nkbl=1  erefs: 0.17977+309
===============================================================================
</basis_specs>

atom: Called for B                     (Z =   5)

read_vps: Pseudopotential generation method:
read_vps: ATM3      Troullier-Martins                       
Total valence charge:    3.00000

read_vps: Pseudopotential includes a core correction:
read_vps: Pseudo-core for xc-correction

xc_check: Exchange-correlation functional:
xc_check: GGA Perdew, Burke & Ernzerhof 1996
V l=0 = -2*Zval/r beyond r=  1.7165
V l=1 = -2*Zval/r beyond r=  1.7165
V l=2 = -2*Zval/r beyond r=  1.7165
V l=3 = -2*Zval/r beyond r=  1.6951
All V_l potentials equal beyond r=  1.7165
This should be close to max(r_c) in ps generation
All pots = -2*Zval/r beyond r=  1.7165

VLOCAL1: 99.0% of the norm of Vloc inside     14.733 Ry
VLOCAL1: 99.9% of the norm of Vloc inside     33.577 Ry
atom: Maximum radius for 4*pi*r*r*local-pseudopot. charge    2.04484
atom: Maximum radius for r*vlocal+2*Zval:    1.75994
GHOST: No ghost state for L =  0
GHOST: No ghost state for L =  1
GHOST: No ghost state for L =  2
GHOST: No ghost state for L =  3

KBgen: Kleinman-Bylander projectors: 
   l= 0   rc=  1.897051   el= -0.693730   Ekb=  4.595746   kbcos=  0.286105
   l= 1   rc=  1.920920   el= -0.265236   Ekb= -2.350715   kbcos= -0.315747
   l= 2   rc=  2.044840   el=  0.002055   Ekb= -0.690767   kbcos= -0.013822
   l= 3   rc=  2.149707   el=  0.003188   Ekb= -0.315358   kbcos= -0.002055

KBgen: Total number of  Kleinman-Bylander projectors:   16
atom: -------------------------------------------------------------------------

atom: SANKEY-TYPE ORBITALS:
atom: Selected multiple-zeta basis: split     

SPLIT: Orbitals with angular momentum L= 0

SPLIT: Basis orbitals for state 2s

SPLIT: PAO cut-off radius determined from an
SPLIT: energy shift=  0.007350 Ry

   izeta = 1
                 lambda =    1.000000
                     rc =    5.422032
                 energy =   -0.686029
                kinetic =    0.576707
    potential(screened) =   -1.262736
       potential(ionic) =   -3.271094

   izeta = 2
                 rmatch =    4.222573
              splitnorm =    0.150000
                 energy =   -0.602132
                kinetic =    0.858975
    potential(screened) =   -1.461107
       potential(ionic) =   -3.582536

SPLIT: Orbitals with angular momentum L= 1

SPLIT: Basis orbitals for state 2p

SPLIT: PAO cut-off radius determined from an
SPLIT: energy shift=  0.007350 Ry

   izeta = 1
                 lambda =    1.000000
                     rc =    6.790259
                 energy =   -0.258578
                kinetic =    1.481412
    potential(screened) =   -1.739989
       potential(ionic) =   -3.657461

   izeta = 2
                 rmatch =    4.608740
              splitnorm =    0.150000
                 energy =   -0.173757
                kinetic =    2.186690
    potential(screened) =   -2.360447
       potential(ionic) =   -4.464260

POLgen: Perturbative polarization orbital with L=  2

POLgen: Polarization orbital for state 2p

   izeta = 1
                     rc =    6.790259
                 energy =    0.684082
                kinetic =    1.471481
    potential(screened) =   -0.787399
       potential(ionic) =   -2.406985
atom: Total number of Sankey-type orbitals: 13

atm_pop: Valence configuration (for local Pseudopot. screening):
 2s( 2.00)                                                            
 2p( 1.00)                                                            
Vna: chval, zval:    3.00000   3.00000

Vna:  Cut-off radius for the neutral-atom potential:   6.790259
comcore: Pseudo-core radius Rcore=  2.122997

atom: _________________________________________________________________________

prinput: Basis input ----------------------------------------------------------

PAO.BasisType split     

%block ChemicalSpeciesLabel
    1    6 C                       # Species index, atomic number, species label
    2    5 B                       # Species index, atomic number, species label
%endblock ChemicalSpeciesLabel

%block PAO.Basis                 # Define Basis set
C                     2                    # Species label, number of l-shells
 n=2   0   2                         # n, l, Nzeta 
   4.633      3.432   
   1.000      1.000   
 n=2   1   2 P   1                   # n, l, Nzeta, Polarization, NzetaPol
   5.659      3.653   
   1.000      1.000   
B                     2                    # Species label, number of l-shells
 n=2   0   2                         # n, l, Nzeta 
   5.422      4.223   
   1.000      1.000   
 n=2   1   2 P   1                   # n, l, Nzeta, Polarization, NzetaPol
   6.790      4.609   
   1.000      1.000   
%endblock PAO.Basis

prinput: ----------------------------------------------------------------------

coor:   Atomic-coordinates input format  =     Cartesian coordinates
coor:                                          (in Angstroms)

siesta: Atomic coordinates (Bohr) and species
siesta:      2.23554   1.32097   0.00000  1        1
siesta:     32.50328  21.48508   0.00000  1        2
siesta:     34.83141  22.82873   0.00000  1        3
siesta:     34.83116  17.45226   0.00000  1        4
siesta:     37.15930  18.79590   0.00000  1        5
siesta:     32.50291  13.41944   0.00000  1        6
siesta:     30.17465   9.38661   0.00000  1        7
siesta:     32.50278  10.73026   0.00000  1        8
siesta:     27.84639   5.35379   0.00000  1        9
siesta:     27.84714  21.48508   0.00000  1       10
siesta:      6.89168   1.32097   0.00000  1       11
siesta:      9.21981   2.66461   0.00000  1       12
siesta:     11.54782   1.32097   0.00000  1       13
siesta:     16.20396   1.32097   0.00000  1       14
siesta:     18.53210   2.66461   0.00000  1       15
siesta:     20.86199   1.32097   0.00000  1       16
siesta:     25.51813   1.32097   0.00000  1       17
siesta:     27.84627   2.66461   0.00000  1       18
siesta:      4.56380   5.35379   0.00000  1       19
siesta:      6.89193   6.69743   0.00000  1       20
siesta:      9.21994   5.35379   0.00000  1       21
siesta:     13.87608   5.35379   0.00000  1       22
siesta:     16.20421   6.69743   0.00000  1       23
siesta:     18.53411   5.35379   0.00000  1       24
siesta:     23.19025   5.35379   0.00000  1       25
siesta:     25.51838   6.69743   0.00000  1       26
siesta:      6.89205   9.38661   0.00000  1       27
siesta:     11.54820   9.38661   0.00000  1       28
siesta:     13.87633  10.73026   0.00000  1       29
siesta:     16.20434   9.38661   0.00000  1       30
siesta:     20.86237   9.38661   0.00000  1       31
siesta:     23.19050  10.73026   0.00000  1       32
siesta:      9.22031  13.41944   0.00000  1       33
siesta:     11.54845  14.76308   0.00000  1       34
siesta:     13.87645  13.41944   0.00000  1       35
siesta:     18.53448  13.41944   0.00000  1       36
siesta:     20.86262  14.76308   0.00000  1       37
siesta:     11.54857  17.45226   0.00000  1       38
siesta:     16.20471  17.45226   0.00000  1       39
siesta:     18.53284  18.79590   0.00000  1       40
siesta:     13.87683  21.48508   0.00000  1       41
siesta:     16.20496  22.82873   0.00000  1       42
siesta:     18.53486  21.48508   0.00000  1       43
siesta:     25.51851   9.38661   0.00000  1       44
siesta:     23.19063  13.41944   0.00000  1       45
siesta:     20.86274  17.45226   0.00000  1       46
siesta:     27.84677  13.41944   0.00000  1       47
siesta:     30.17490  14.76308   0.00000  1       48
siesta:     25.51888  17.45226   0.00000  1       49
siesta:     27.84702  18.79590   0.00000  1       50
siesta:     23.19100  21.48508   0.00000  1       51
siesta:     25.51913  22.82873   0.00000  1       52
siesta:     30.17503  17.45226   0.00000  1       53
siesta:     37.16131  21.48508   0.00000  1       54
siesta:      4.56367   2.66461   0.00000  2       55
siesta:     34.83104  14.76308   0.00000  2       56
siesta:     30.17453   6.69743   0.00000  2       57
siesta:     30.17527  22.82873   0.00000  2       58
siesta:     13.87595   2.66461   0.00000  2       59
siesta:     23.19013   2.66461   0.00000  2       60
siesta:     11.54807   6.69743   0.00000  2       61
siesta:     20.86224   6.69743   0.00000  2       62
siesta:      9.22019  10.73026   0.00000  2       63
siesta:     18.53247  10.73026   0.00000  2       64
siesta:     16.20459  14.76308   0.00000  2       65
siesta:     13.87670  18.79590   0.00000  2       66
siesta:     20.86299  22.82873   0.00000  2       67
siesta:     27.84664  10.73026   0.00000  2       68
siesta:     25.51876  14.76308   0.00000  2       69
siesta:     23.19088  18.79590   0.00000  2       70
siesta:     32.50316  18.79590   0.00000  2       71
siesta:     39.48945  22.82873   0.00000  2       72

siesta: System type = slab      

initatomlists: Number of atoms, orbitals, and projectors:     72   936  1152

siesta: ******************** Simulation parameters ****************************
siesta:
siesta: The following are some of the parameters of the simulation.
siesta: A complete list of the parameters used, including default values,
siesta: can be found in file out.fdf
siesta:
redata: Non-Collinear-spin run           =     F
redata: SpinPolarized (Up/Down) run      =     F
redata: Number of spin components        =     1
redata: Long output                      =     F
redata: Number of Atomic Species         =        2
redata: Charge density info will appear in .RHO file
redata: Write Mulliken Pop.              =     NO
redata: Mesh Cutoff                      =   200.0000  Ry
redata: Net charge of the system         =     0.0000 |e|
redata: Max. number of SCF Iter          =      500
redata: SCF convergence failure will abort job
redata: Performing Pulay mixing using    =    10 iterations
redata: Mix DM in first SCF step ?       =     F
redata: Write Pulay info on disk?        =     F
redata: Discard 1st Pulay DM after  kick =     F
redata: New DM Mixing Weight             =     0.0500
redata: New DM Occupancy tolerance       = 0.000000000001
redata: No kicks to SCF
redata: DM Mixing Weight for Kicks       =     0.5000
redata: DM Tolerance for SCF             =     0.000100
redata: Require Energy convergence for SCF =     F
redata: DM Energy tolerance for SCF      =     0.000100 eV
redata: Require Harris convergence for SCF =     F
redata: DM Harris energy tolerance for SCF =     0.000100 eV
redata: Using Saved Data (generic)   =     F
redata: Use continuation files for DM    =     T
redata: Neglect nonoverlap interactions  =     F
redata: Method of Calculation            =     Diagonalization
redata: Divide and Conquer               =     T
redata: Electronic Temperature           =     0.0019  Ry
redata: Fix the spin of the system       =     F
redata: Dynamics option                  =     Verlet MD run
redata: Initial MD time step             =        1
redata:   Final MD time step             =        1
redata: Length of MD time step           =     1.0000  fs
redata: Initial Temperature of MD run    =     0.0000  K
redata: Perform a MD quench              =     F
redata: ***********************************************************************
Total number of electrons:   270.000000
Total ionic charge:   270.000000

* ProcessorY, Blocksize:    3  24

k-point displ. along   1 input, could be:     0.50    0.00
k-point displ. along   2 input, could be:     0.50    0.00
 Kpoints in:          231 . Kpoints trimmed:          231

siesta: k-grid: Number of k-points =   231
siesta: k-grid: Cutoff (effective) =     5.000 Ang
siesta: k-grid: Supercell and displacements
siesta: k-grid:   21   0   0      0.500
siesta: k-grid:    0  21   0      0.500
siesta: k-grid:    0   0   1      0.000
Naive supercell factors:     2    2    2

superc: Internal auxiliary supercell:     2 x     2 x     2  =       8
superc: Number of atoms, orbitals, and projectors:    576   7488   9216

* Maximum dynamic memory allocated =     4 MB

siesta:                 ==============================
                            Begin MD step =      1
                        ==============================

superc: Internal auxiliary supercell:     2 x     2 x     2  =       8
superc: Number of atoms, orbitals, and projectors:    576   7488   9216

outcell: Unit cell vectors (Ang):
       14.785000    0.000000    0.000000
        7.393000   12.805052    0.000000
        0.000000    0.000000   10.000000

outcell: Cell vector modules (Ang)   :   14.785000   14.786000   10.000000
outcell: Cell angles (23,13,12) (deg):     90.0000     90.0000     60.0000
outcell: Cell volume (Ang**3)        :   1893.2269
New_DM. Step:     1
Initializing Density Matrix...

iodm: Reading Density Matrix from files

InitMesh: MESH =   120 x   120 x    90 =     1296000
InitMesh: Mesh cutoff (required, used) =   200.000   223.865 Ry

* Maximum dynamic memory allocated =   157 MB

stepf: Fermi-Dirac step function

siesta: Program's energy decomposition (eV):
siesta: Ebs     =     -3467.027835
siesta: Eions   =     16097.990269
siesta: Ena     =      3563.275432
siesta: Ekin    =      6978.728011
siesta: Enl     =      -593.390794
siesta: DEna    =      -388.945703
siesta: DUscf   =        45.016844
siesta: DUext   =         0.000000
siesta: Exc     =     -4105.813335
siesta: eta*DQ  =         0.000000
siesta: Emadel  =         0.000000
siesta: Emeta   =         0.000000
siesta: Emolmec =         0.000000
siesta: Ekinion =         0.000000
siesta: Eharris =    -10599.111606
siesta: Etot    =    -10599.119814
siesta: FreeEng =    -10599.119814

siesta: iscf   Eharris(eV)      E_KS(eV)   FreeEng(eV)   dDmax  Ef(eV)
siesta:    1   -10599.1116   -10599.1198   -10599.1198  0.0001 -6.1156
timer: Routine,Calls,Time,% = IterSCF        1    1193.504  98.96
elaps: Routine,Calls,Wall,% = IterSCF        1      99.702  98.96

siesta: E_KS(eV) =           -10599.1116

siesta: E_KS - E_eggbox =    -10599.1116

siesta: Atomic forces (eV/Ang):
----------------------------------------
   Tot    0.362071   -0.117935    0.000000
----------------------------------------
   Max    3.757830
   Res    1.580945    sqrt( Sum f_i^2 / 3N )
----------------------------------------
   Max    3.757830    constrained

Stress-tensor-Voigt (kbar):     -205.17     -189.37       -0.50      -13.31        0.00        0.00
(Free)E + p*V (eV/cell)   -10443.5669
Target enthalpy (eV/cell)   -10599.1665

siesta: Stress tensor (static) (eV/Ang**3):
        -0.128053   -0.008305    0.000000
        -0.008305   -0.118196    0.000000
         0.000000    0.000000   -0.000314

siesta: Pressure (static):        131.68029600  kBar

siesta: Stress tensor (total) (eV/Ang**3):
        -0.128053   -0.008305    0.000000
        -0.008305   -0.118196    0.000000
         0.000000    0.000000   -0.000314

siesta: Pressure (total):        131.68029600  kBar

siesta: Temp_ion =       0.000 K

* Maximum dynamic memory allocated =   256 MB

siesta: Program's energy decomposition (eV):
siesta: Ebs     =     -3467.027835
siesta: Eions   =     16097.990269
siesta: Ena     =      3563.275432
siesta: Ekin    =      6978.816505
siesta: Enl     =      -593.436702
siesta: DEna    =      -388.971016
siesta: DUscf   =        45.016098
siesta: DUext   =         0.000000
siesta: Exc     =     -4105.821651
siesta: eta*DQ  =         0.000000
siesta: Emadel  =         0.000000
siesta: Emeta   =         0.000000
siesta: Emolmec =         0.000000
siesta: Ekinion =         0.000000
siesta: Eharris =    -10599.111606
siesta: Etot    =    -10599.111603
siesta: FreeEng =    -10599.166485

siesta: Final energy (eV):
siesta:  Band Struct. =   -3467.027835
siesta:       Kinetic =    6978.816505
siesta:       Hartree =   20275.991069
siesta:    Ext. field =       0.000000
siesta:   Exch.-corr. =   -4105.821651
siesta:  Ion-electron =  -46825.837717
siesta:       Ion-ion =   13077.740190
siesta:       Ekinion =       0.000000
siesta:         Total =  -10599.111603

siesta: Atomic forces (eV/Ang):
siesta:      1   -2.594357   -1.515402    0.000000
siesta:      2    3.738256    2.151195    0.000000
siesta:      3   -1.332054   -0.778466    0.000000
siesta:      4    3.736108    2.148415    0.000000
siesta:      5   -1.343670   -0.794500    0.000000
siesta:      6   -2.573261   -1.498696    0.000000
siesta:      7    3.734668    2.145085    0.000000
siesta:      8   -1.353587   -0.796916    0.000000
siesta:      9   -2.573679   -1.499071    0.000000
siesta:     10   -2.576087   -1.493833    0.000000
siesta:     11    3.732797    2.120960    0.000000
siesta:     12   -1.365970   -0.796215    0.000000
siesta:     13   -2.571216   -1.515857    0.000000
siesta:     14    3.738317    2.123455    0.000000
siesta:     15   -1.330309   -0.800436    0.000000
siesta:     16   -2.608139   -1.513286    0.000000
siesta:     17    3.735851    2.121927    0.000000
siesta:     18   -1.355329   -0.796787    0.000000
siesta:     19    3.716628    2.152709    0.000000
siesta:     20   -1.367385   -0.792622    0.000000
siesta:     21   -2.574311   -1.497145    0.000000
siesta:     22    3.738721    2.146004    0.000000
siesta:     23   -1.339762   -0.798311    0.000000
siesta:     24   -2.611194   -1.490415    0.000000
siesta:     25    3.734675    2.146479    0.000000
siesta:     26   -1.367424   -0.792513    0.000000
siesta:     27   -2.586597   -1.493377    0.000000
siesta:     28    3.734051    2.146576    0.000000
siesta:     29   -1.368382   -0.790322    0.000000
siesta:     30   -2.570337   -1.500596    0.000000
siesta:     31    3.701898    2.160613    0.000000
siesta:     32   -1.371268   -0.791546    0.000000
siesta:     33    3.718692    2.152573    0.000000
siesta:     34   -1.367779   -0.789529    0.000000
siesta:     35   -2.570460   -1.500636    0.000000
siesta:     36    3.698009    2.161331    0.000000
siesta:     37   -1.371013   -0.791669    0.000000
siesta:     38   -2.587633   -1.496013    0.000000
siesta:     39    3.739979    2.147672    0.000000
siesta:     40   -1.330078   -0.799576    0.000000
siesta:     41    3.757830    2.142415    0.000000
siesta:     42   -1.330669   -0.779492    0.000000
siesta:     43   -2.614319   -1.489732    0.000000
siesta:     44   -2.573370   -1.500140    0.000000
siesta:     45   -2.572466   -1.499259    0.000000
siesta:     46   -2.603327   -1.489753    0.000000
siesta:     47    3.733523    2.145435    0.000000
siesta:     48   -1.366343   -0.791705    0.000000
siesta:     49    3.733303    2.146650    0.000000
siesta:     50   -1.366338   -0.793055    0.000000
siesta:     51    3.733735    2.148577    0.000000
siesta:     52   -1.368677   -0.774610    0.000000
siesta:     53   -2.575588   -1.496281    0.000000
siesta:     54   -2.614971   -1.489353    0.000000
siesta:     55    0.225985    0.133723    0.000000
siesta:     56    0.243849    0.131642    0.000000
siesta:     57    0.241872    0.129141    0.000000
siesta:     58    0.226609    0.162836    0.000000
siesta:     59    0.227493    0.134997    0.000000
siesta:     60    0.223934    0.134389    0.000000
siesta:     61    0.226507    0.137226    0.000000
siesta:     62    0.222152    0.135471    0.000000
siesta:     63    0.225357    0.138077    0.000000
siesta:     64    0.263292    0.122010    0.000000
siesta:     65    0.259673    0.123285    0.000000
siesta:     66    0.226281    0.138725    0.000000
siesta:     67    0.225440    0.159756    0.000000
siesta:     68    0.226177    0.137582    0.000000
siesta:     69    0.226577    0.137802    0.000000
siesta:     70    0.226240    0.137905    0.000000
siesta:     71    0.228195    0.138139    0.000000
siesta:     72    0.206751    0.168402    0.000000
siesta: ----------------------------------------
siesta:    Tot    0.362071   -0.117935    0.000000

siesta: Stress tensor (static) (eV/Ang**3):
siesta:    -0.128053   -0.008305    0.000000
siesta:    -0.008305   -0.118196    0.000000
siesta:     0.000000    0.000000   -0.000314

siesta: Cell volume =       1893.226895 Ang**3

siesta: Pressure (static):
siesta:                Solid            Molecule  Units
siesta:           0.00089513          0.00095590  Ry/Bohr**3
siesta:           0.08218749          0.08776721  eV/Ang**3
siesta:         131.68029600        140.62010046  kBar
(Free)E+ p_basis*V_orbitals  =      -10562.741707
(Free)Eharris+ p_basis*V_orbitals  =      -10562.733499

siesta: Electric dipole (a.u.)  =    0.000000    0.000000    0.000000
siesta: Electric dipole (Debye) =    0.000000    0.000000    0.000000

* Maximum dynamic memory allocated : Node    0 =   256 MB
* Maximum dynamic memory allocated : Node    1 =   158 MB
* Maximum dynamic memory allocated : Node    2 =   160 MB
* Maximum dynamic memory allocated : Node    3 =   243 MB
* Maximum dynamic memory allocated : Node    4 =   250 MB
* Maximum dynamic memory allocated : Node    5 =   153 MB
* Maximum dynamic memory allocated : Node    6 =   155 MB
* Maximum dynamic memory allocated : Node    7 =   244 MB
* Maximum dynamic memory allocated : Node    8 =   251 MB
* Maximum dynamic memory allocated : Node    9 =   153 MB
* Maximum dynamic memory allocated : Node   10 =   155 MB
* Maximum dynamic memory allocated : Node   11 =   244 MB

* Maximum memory occured during cdiag                         

timer: CPU execution times:
timer:  Routine       Calls   Time/call    Tot.time        %
timer:  siesta            1    1350.586    1350.586   100.00
timer:  Setup             1       3.227       3.227     0.24
timer:  bands             1       0.008       0.008     0.00
timer:  writewave         1       0.022       0.022     0.00
timer:  KSV_init          1       0.003       0.003     0.00
timer:  IterMD            1    1340.990    1340.990    99.29
timer:  hsparse           1       0.280       0.280     0.02
timer:  overlap           1       7.734       7.734     0.57
timer:  IterSCF           1    1193.504    1193.504    88.37
timer:  kinefsm           2       3.935       7.870     0.58
timer:  nlefsm            2      20.397      40.794     3.02
timer:  DHSCF             2     108.842     217.684    16.12
timer:  DHSCF1            1       1.190       1.190     0.09
timer:  DHSCF2            1      32.143      32.143     2.38
timer:  REORD            18       0.004       0.064     0.00
timer:  POISON            3       0.473       1.419     0.11
timer:  DHSCF3            2      78.329     156.658    11.60
timer:  rhoofd            2      15.841      31.682     2.35
timer:  cellXC            2       2.532       5.064     0.37
timer:  vmat              2      40.980      81.960     6.07
timer:  MolMec            2       0.000       0.000     0.00
timer:  diagon            1    1036.392    1036.392    76.74
timer:  cdiag            40      17.736     682.709    50.55
timer:  cdiag1           40       0.871      33.507     2.48
timer:  cdiag2           40       3.008     115.746     8.57
timer:  cdiag3           40      13.661     525.922    38.94
timer:  cdiag4           40       0.192       7.414     0.55
timer:  DHSCF4            1      27.642      27.642     2.05
timer:  dfscf             1      25.552      25.552     1.89
timer:  overfsm           1       0.323       0.323     0.02
timer:  optical           1       5.833       5.833     0.43
  

elaps: ELAPSED times:
elaps:  Routine       Calls   Time/call    Tot.time        %
elaps:  siesta            1     112.823     112.823   100.00
elaps:  Setup             1       0.269       0.269     0.24
elaps:  bands             1       0.001       0.001     0.00
elaps:  writewave         1       0.002       0.002     0.00
elaps:  KSV_init          1       0.000       0.000     0.00
elaps:  IterMD            1     112.021     112.021    99.29
elaps:  hsparse           1       0.028       0.028     0.02
elaps:  overlap           1       0.708       0.708     0.63
elaps:  IterSCF           1      99.702      99.702    88.37
elaps:  kinefsm           2       0.363       0.726     0.64
elaps:  nlefsm            2       1.861       3.723     3.30
elaps:  DHSCF             2      10.010      20.019    17.74
elaps:  DHSCF1            1       0.101       0.101     0.09
elaps:  DHSCF2            1       2.684       2.684     2.38
elaps:  REORD            18       0.000       0.005     0.00
elaps:  POISON            3       0.040       0.120     0.11
elaps:  DHSCF3            2       6.543      13.086    11.60
elaps:  rhoofd            2       2.388       4.775     4.23
elaps:  cellXC            2       0.212       0.423     0.38
elaps:  vmat              2       3.423       6.846     6.07
elaps:  MolMec            2       0.000       0.000     0.00
elaps:  diagon            1      86.578      86.578    76.74
elaps:  cdiag            40       1.466      58.634    51.97
elaps:  cdiag1           40       0.069       2.766     2.45
elaps:  cdiag2           40       0.240       9.585     8.50
elaps:  cdiag3           40       1.140      45.591    40.41
elaps:  cdiag4           40       0.017       0.683     0.61
elaps:  DHSCF4            1       4.145       4.145     3.67
elaps:  dfscf             1       3.891       3.891     3.45
elaps:  overfsm           1       0.032       0.032     0.03
elaps:  optical           1       0.000       0.000     0.00
  
>> End of run:   6-APR-2016  13:55:03
