Siesta Version:                                        siesta-3.2-pl-3
Architecture  : x86_64-unknown-linux-gnu--unknown
Compiler flags: mpiifort -g -O2 -fPIC -xSSE4.1 -fp-model source -shared-intel 
PARALLEL version

* Running on    8 nodes in parallel
>> Start of run:   9-MAY-2016   5:06:18

                           ***********************       
                           *  WELCOME TO SIESTA  *       
                           ***********************       

reinit: Reading from standard input
************************** Dump of input data file ****************************
#(1) General system descriptors
SystemName            GRP_doping    # Descriptive name of the system
SystemLabel           GRP_doping    # Short name for naming files
%include STRUCT.fdf
%include KPT.fdf
%include BASIS.fdf
#%include TS.fdf # for transiesta calculation
#(4) DFT, Grid, SCF
XC.functional         GGA           # LDA or GGA (default = LDA)
XC.authors            PBE           # CA (Ceperley-Aldr) = PZ
                                    #    (Perdew-Zunger) - LDA - Default
                                    # PW92 (Perdew-Wang-92) - LDA
                                    # PBE (Perdew-Burke-Ernzerhof) - GGA
MeshCutoff            200.000000    Ry      # Default: 50.0 Ry ~ 0.444 Bohr
                                    #         100.0 Ry ~ 0.314 Bohr
MaxSCFIterations      500           # Default: 50
DM.MixingWeight       0.05          # Default: 0.25
DM.NumberPulay        10            # Default: 0
DM.PulayOnFile        F             # SystemLabel.P1, SystemLabel.P2
DM.Tolerance          1.d-4         # Default: 1.d-4
DM.UseSaveDM          .true.        # because of the bug
SCFMustConverge       .true.
NeglNonOverlapInt     F             # Default: F
#(5) Eigenvalue problem: order-N or diagonalization
SolutionMethod        Diagon        # or Transiesta
ElectronicTemperature 300.0 K       # Default: 300.0 K
#(6) Molecular dynamics and relaxations
#MD.TypeOfRun          CG            # Type of dynamics:
#MD.VariableCell       F
#MD.NumCGsteps         0           # 0 for single-point / 100 for gopt
#MD.MaxCGDispl         0.2 Bohr      # Default: 0.2 Bohr
#MD.MaxForceTol        0.02 eV/Ang   # Default: 0.04 eV/Ang
#MD.MaxStressTol       1.0 GPa       # Default: 1.0 GPa
# Geometry Constraints
#%block GeometryConstraints
#	position from 1 to 44
#%endblock GeometryConstraints
BandLinesScale   pi/a
%block BandLines
 1   0.00000000  0.00000000  0.00000000
50   0.00000000  0.07809418  0.00000000
50   0.04509075  0.07809242  0.00000000
20   0.00000000  0.00000000  0.00000000
%endblock BandLines
************************** End of input data file *****************************

reinit: -----------------------------------------------------------------------
reinit: System Name: GRP_doping
reinit: -----------------------------------------------------------------------
reinit: System Label: GRP_doping                                                  
reinit: -----------------------------------------------------------------------

initatom: Reading input for the pseudopotentials and atomic orbitals ----------
 Species number:            1  Label: B Atomic number:           5
 Species number:            2  Label: C Atomic number:           6
Ground state valence configuration:   2s02  2p01
Reading pseudopotential information in formatted form from B.psf

Valence configuration for pseudopotential generation:
2s( 2.00) rc: 1.74
2p( 1.00) rc: 1.74
3d( 0.00) rc: 1.74
4f( 0.00) rc: 1.74
Ground state valence configuration:   2s02  2p02
Reading pseudopotential information in formatted form from C.psf

Valence configuration for pseudopotential generation:
2s( 2.00) rc: 1.54
2p( 2.00) rc: 1.54
3d( 0.00) rc: 1.54
4f( 0.00) rc: 1.54
For B, standard SIESTA heuristics set lmxkb to 3
 (one more than the basis l, including polarization orbitals).
Use PS.lmax or PS.KBprojectors blocks to override.
For C, standard SIESTA heuristics set lmxkb to 3
 (one more than the basis l, including polarization orbitals).
Use PS.lmax or PS.KBprojectors blocks to override.

<basis_specs>
===============================================================================
B                    Z=   5    Mass=  10.810        Charge= 0.17977+309
Lmxo=1 Lmxkb= 3    BasisType=split      Semic=F
L=0  Nsemic=0  Cnfigmx=2
          n=1  nzeta=2  polorb=0
            splnorm:   0.15000    
               vcte:    0.0000    
               rinn:    0.0000    
                rcs:    0.0000      0.0000    
            lambdas:    1.0000      1.0000    
L=1  Nsemic=0  Cnfigmx=2
          n=1  nzeta=2  polorb=1
            splnorm:   0.15000    
               vcte:    0.0000    
               rinn:    0.0000    
                rcs:    0.0000      0.0000    
            lambdas:    1.0000      1.0000    
-------------------------------------------------------------------------------
L=0  Nkbl=1  erefs: 0.17977+309
L=1  Nkbl=1  erefs: 0.17977+309
L=2  Nkbl=1  erefs: 0.17977+309
L=3  Nkbl=1  erefs: 0.17977+309
===============================================================================
</basis_specs>

atom: Called for B                     (Z =   5)

read_vps: Pseudopotential generation method:
read_vps: ATM3      Troullier-Martins                       
Total valence charge:    3.00000

read_vps: Pseudopotential includes a core correction:
read_vps: Pseudo-core for xc-correction

xc_check: Exchange-correlation functional:
xc_check: GGA Perdew, Burke & Ernzerhof 1996
V l=0 = -2*Zval/r beyond r=  1.7165
V l=1 = -2*Zval/r beyond r=  1.7165
V l=2 = -2*Zval/r beyond r=  1.7165
V l=3 = -2*Zval/r beyond r=  1.6951
All V_l potentials equal beyond r=  1.7165
This should be close to max(r_c) in ps generation
All pots = -2*Zval/r beyond r=  1.7165

VLOCAL1: 99.0% of the norm of Vloc inside     14.733 Ry
VLOCAL1: 99.9% of the norm of Vloc inside     33.577 Ry
atom: Maximum radius for 4*pi*r*r*local-pseudopot. charge    2.04484
atom: Maximum radius for r*vlocal+2*Zval:    1.75994
GHOST: No ghost state for L =  0
GHOST: No ghost state for L =  1
GHOST: No ghost state for L =  2
GHOST: No ghost state for L =  3

KBgen: Kleinman-Bylander projectors: 
   l= 0   rc=  1.897051   el= -0.693730   Ekb=  4.595746   kbcos=  0.286105
   l= 1   rc=  1.920920   el= -0.265236   Ekb= -2.350715   kbcos= -0.315747
   l= 2   rc=  2.044840   el=  0.002055   Ekb= -0.690767   kbcos= -0.013822
   l= 3   rc=  2.149707   el=  0.003188   Ekb= -0.315358   kbcos= -0.002055

KBgen: Total number of  Kleinman-Bylander projectors:   16
atom: -------------------------------------------------------------------------

atom: SANKEY-TYPE ORBITALS:
atom: Selected multiple-zeta basis: split     

SPLIT: Orbitals with angular momentum L= 0

SPLIT: Basis orbitals for state 2s

SPLIT: PAO cut-off radius determined from an
SPLIT: energy shift=  0.007350 Ry

   izeta = 1
                 lambda =    1.000000
                     rc =    5.422032
                 energy =   -0.686029
                kinetic =    0.576707
    potential(screened) =   -1.262736
       potential(ionic) =   -3.271094

   izeta = 2
                 rmatch =    4.222573
              splitnorm =    0.150000
                 energy =   -0.602132
                kinetic =    0.858975
    potential(screened) =   -1.461107
       potential(ionic) =   -3.582536

SPLIT: Orbitals with angular momentum L= 1

SPLIT: Basis orbitals for state 2p

SPLIT: PAO cut-off radius determined from an
SPLIT: energy shift=  0.007350 Ry

   izeta = 1
                 lambda =    1.000000
                     rc =    6.790259
                 energy =   -0.258578
                kinetic =    1.481412
    potential(screened) =   -1.739989
       potential(ionic) =   -3.657461

   izeta = 2
                 rmatch =    4.608740
              splitnorm =    0.150000
                 energy =   -0.173757
                kinetic =    2.186690
    potential(screened) =   -2.360447
       potential(ionic) =   -4.464260

POLgen: Perturbative polarization orbital with L=  2

POLgen: Polarization orbital for state 2p

   izeta = 1
                     rc =    6.790259
                 energy =    0.684082
                kinetic =    1.471481
    potential(screened) =   -0.787399
       potential(ionic) =   -2.406985
atom: Total number of Sankey-type orbitals: 13

atm_pop: Valence configuration (for local Pseudopot. screening):
 2s( 2.00)                                                            
 2p( 1.00)                                                            
Vna: chval, zval:    3.00000   3.00000

Vna:  Cut-off radius for the neutral-atom potential:   6.790259
comcore: Pseudo-core radius Rcore=  2.122997

atom: _________________________________________________________________________

<basis_specs>
===============================================================================
C                    Z=   6    Mass=  12.010        Charge= 0.17977+309
Lmxo=1 Lmxkb= 3    BasisType=split      Semic=F
L=0  Nsemic=0  Cnfigmx=2
          n=1  nzeta=2  polorb=0
            splnorm:   0.15000    
               vcte:    0.0000    
               rinn:    0.0000    
                rcs:    0.0000      0.0000    
            lambdas:    1.0000      1.0000    
L=1  Nsemic=0  Cnfigmx=2
          n=1  nzeta=2  polorb=1
            splnorm:   0.15000    
               vcte:    0.0000    
               rinn:    0.0000    
                rcs:    0.0000      0.0000    
            lambdas:    1.0000      1.0000    
-------------------------------------------------------------------------------
L=0  Nkbl=1  erefs: 0.17977+309
L=1  Nkbl=1  erefs: 0.17977+309
L=2  Nkbl=1  erefs: 0.17977+309
L=3  Nkbl=1  erefs: 0.17977+309
===============================================================================
</basis_specs>

atom: Called for C                     (Z =   6)

read_vps: Pseudopotential generation method:
read_vps: ATM3      Troullier-Martins                       
Total valence charge:    4.00000

read_vps: Pseudopotential includes a core correction:
read_vps: Pseudo-core for xc-correction

xc_check: Exchange-correlation functional:
xc_check: GGA Perdew, Burke & Ernzerhof 1996
V l=0 = -2*Zval/r beyond r=  1.5227
V l=1 = -2*Zval/r beyond r=  1.5227
V l=2 = -2*Zval/r beyond r=  1.5227
V l=3 = -2*Zval/r beyond r=  1.5038
All V_l potentials equal beyond r=  1.5227
This should be close to max(r_c) in ps generation
All pots = -2*Zval/r beyond r=  1.5227

VLOCAL1: 99.0% of the norm of Vloc inside     18.722 Ry
VLOCAL1: 99.9% of the norm of Vloc inside     42.668 Ry
atom: Maximum radius for 4*pi*r*r*local-pseudopot. charge    1.83678
atom: Maximum radius for r*vlocal+2*Zval:    1.58088
GHOST: No ghost state for L =  0
GHOST: No ghost state for L =  1
GHOST: No ghost state for L =  2
GHOST: No ghost state for L =  3

KBgen: Kleinman-Bylander projectors: 
   l= 0   rc=  1.704034   el= -1.009801   Ekb=  5.335044   kbcos=  0.316824
   l= 1   rc=  1.704034   el= -0.388707   Ekb= -3.785862   kbcos= -0.366464
   l= 2   rc=  1.791422   el=  0.001971   Ekb= -0.970471   kbcos= -0.009212
   l= 3   rc=  1.859892   el=  0.003065   Ekb= -0.399525   kbcos= -0.001223

KBgen: Total number of  Kleinman-Bylander projectors:   16
atom: -------------------------------------------------------------------------

atom: SANKEY-TYPE ORBITALS:
atom: Selected multiple-zeta basis: split     

SPLIT: Orbitals with angular momentum L= 0

SPLIT: Basis orbitals for state 2s

SPLIT: PAO cut-off radius determined from an
SPLIT: energy shift=  0.007350 Ry

   izeta = 1
                 lambda =    1.000000
                     rc =    4.632753
                 energy =   -1.002270
                kinetic =    0.855760
    potential(screened) =   -1.858031
       potential(ionic) =   -5.417575

   izeta = 2
                 rmatch =    3.431921
              splitnorm =    0.150000
                 energy =   -0.867111
                kinetic =    1.300804
    potential(screened) =   -2.167915
       potential(ionic) =   -5.962684

SPLIT: Orbitals with angular momentum L= 1

SPLIT: Basis orbitals for state 2p

SPLIT: PAO cut-off radius determined from an
SPLIT: energy shift=  0.007350 Ry

   izeta = 1
                 lambda =    1.000000
                     rc =    5.658549
                 energy =   -0.381140
                kinetic =    2.399701
    potential(screened) =   -2.780841
       potential(ionic) =   -6.206085

   izeta = 2
                 rmatch =    3.653288
              splitnorm =    0.150000
                 energy =   -0.249149
                kinetic =    3.542762
    potential(screened) =   -3.791911
       potential(ionic) =   -7.581078

POLgen: Perturbative polarization orbital with L=  2

POLgen: Polarization orbital for state 2p

   izeta = 1
                     rc =    5.658549
                 energy =    1.109913
                kinetic =    2.304789
    potential(screened) =   -1.194876
       potential(ionic) =   -4.013592
atom: Total number of Sankey-type orbitals: 13

atm_pop: Valence configuration (for local Pseudopot. screening):
 2s( 2.00)                                                            
 2p( 2.00)                                                            
Vna: chval, zval:    4.00000   4.00000

Vna:  Cut-off radius for the neutral-atom potential:   5.658549
comcore: Pseudo-core radius Rcore=  1.791422

atom: _________________________________________________________________________

prinput: Basis input ----------------------------------------------------------

PAO.BasisType split     

%block ChemicalSpeciesLabel
    1    5 B                       # Species index, atomic number, species label
    2    6 C                       # Species index, atomic number, species label
%endblock ChemicalSpeciesLabel

%block PAO.Basis                 # Define Basis set
B                     2                    # Species label, number of l-shells
 n=2   0   2                         # n, l, Nzeta 
   5.422      4.223   
   1.000      1.000   
 n=2   1   2 P   1                   # n, l, Nzeta, Polarization, NzetaPol
   6.790      4.609   
   1.000      1.000   
C                     2                    # Species label, number of l-shells
 n=2   0   2                         # n, l, Nzeta 
   4.633      3.432   
   1.000      1.000   
 n=2   1   2 P   1                   # n, l, Nzeta, Polarization, NzetaPol
   5.659      3.653   
   1.000      1.000   
%endblock PAO.Basis

prinput: ----------------------------------------------------------------------

coor:   Atomic-coordinates input format  =     Fractional

siesta: Atomic coordinates (Bohr) and species
siesta:      6.95932  17.38257   0.00000  1        1
siesta:      9.28770  18.72698   0.00000  1        2
siesta:      9.28770  21.41544   0.00000  1        3
siesta:      2.30256  17.38257   0.00000  1        4
siesta:      4.63094  18.72698   0.00000  1        5
siesta:      6.95932  22.75985   0.00000  1        6
siesta:      6.95932  25.44831   0.00000  1        7
siesta:     -2.35420  17.38257   0.00000  1        8
siesta:     -0.02582  18.72698   0.00000  1        9
siesta:     -0.02582  21.41544   0.00000  1       10
siesta:      2.30256  25.44831   0.00000  1       11
siesta:     -2.35420  25.44831   0.00000  1       12
siesta:      4.63094  26.79272   0.00000  1       13
siesta:      4.63094  29.48119   0.00000  1       14
siesta:     -0.02582   2.59549   0.00000  2       15
siesta:     -0.02582   5.28395   0.00000  2       16
siesta:     -2.35420  38.89134   0.00000  2       17
siesta:     -2.35420  41.57980   0.00000  2       18
siesta:      2.30256  38.89134   0.00000  2       19
siesta:      2.30256  41.57980   0.00000  2       20
siesta:      4.63094  34.85847   0.00000  2       21
siesta:      4.63094  37.54693   0.00000  2       22
siesta:      6.95932  30.82560   0.00000  2       23
siesta:      6.95932  33.51406   0.00000  2       24
siesta:      9.28770  26.79272   0.00000  2       25
siesta:      9.28770  29.48119   0.00000  2       26
siesta:     -4.68258  34.85847   0.00000  2       27
siesta:     -4.68258  37.54693   0.00000  2       28
siesta:      2.30256   6.62836   0.00000  2       29
siesta:      2.30256   9.31683   0.00000  2       30
siesta:      4.63094  10.66124   0.00000  2       31
siesta:      4.63094  13.34970   0.00000  2       32
siesta:      6.95932  14.69411   0.00000  2       33
siesta:     11.61608  22.75985   0.00000  2       34
siesta:     11.61608  25.44831   0.00000  2       35
siesta:     -2.35420   6.62836   0.00000  2       36
siesta:     -2.35420   9.31683   0.00000  2       37
siesta:     -0.02582  10.66124   0.00000  2       38
siesta:     -0.02582  13.34970   0.00000  2       39
siesta:      2.30256  14.69411   0.00000  2       40
siesta:      4.63094  21.41544   0.00000  2       41
siesta:     -4.68258  10.66124   0.00000  2       42
siesta:     -4.68258  13.34970   0.00000  2       43
siesta:     -2.35420  14.69411   0.00000  2       44
siesta:      2.30256  22.75985   0.00000  2       45
siesta:     -7.01096  14.69411   0.00000  2       46
siesta:     -7.01096  17.38257   0.00000  2       47
siesta:     -4.68258  18.72698   0.00000  2       48
siesta:     -4.68258  21.41544   0.00000  2       49
siesta:     -2.35420  22.75985   0.00000  2       50
siesta:     -9.33934  18.72698   0.00000  2       51
siesta:     -9.33934  21.41544   0.00000  2       52
siesta:     -7.01096  22.75985   0.00000  2       53
siesta:     -7.01096  25.44831   0.00000  2       54
siesta:    -11.66772  22.75985   0.00000  2       55
siesta:    -11.66772  25.44831   0.00000  2       56
siesta:     -9.33934  26.79272   0.00000  2       57
siesta:     -9.33934  29.48119   0.00000  2       58
siesta:     -0.02582  26.79272   0.00000  2       59
siesta:     -0.02582  29.48119   0.00000  2       60
siesta:     -4.68258  26.79272   0.00000  2       61
siesta:     -4.68258  29.48119   0.00000  2       62
siesta:      2.30256  30.82560   0.00000  2       63
siesta:      2.30256  33.51406   0.00000  2       64
siesta:     -2.35420  30.82560   0.00000  2       65
siesta:     -2.35420  33.51406   0.00000  2       66
siesta:     -7.01096  30.82560   0.00000  2       67
siesta:     -7.01096  33.51406   0.00000  2       68
siesta:     -0.02582  34.85847   0.00000  2       69
siesta:     -0.02582  37.54693   0.00000  2       70
siesta:     -0.02582  42.92421   0.00000  2       71
siesta:     -0.02582  45.61267   0.00000  2       72

siesta: System type = slab      

initatomlists: Number of atoms, orbitals, and projectors:     72   936  1152

siesta: ******************** Simulation parameters ****************************
siesta:
siesta: The following are some of the parameters of the simulation.
siesta: A complete list of the parameters used, including default values,
siesta: can be found in file out.fdf
siesta:
redata: Non-Collinear-spin run           =     F
redata: SpinPolarized (Up/Down) run      =     F
redata: Number of spin components        =     1
redata: Long output                      =     F
redata: Number of Atomic Species         =        2
redata: Charge density info will appear in .RHO file
redata: Write Mulliken Pop.              =     NO
redata: Mesh Cutoff                      =   200.0000  Ry
redata: Net charge of the system         =     0.0000 |e|
redata: Max. number of SCF Iter          =      500
redata: SCF convergence failure will abort job
redata: Performing Pulay mixing using    =    10 iterations
redata: Mix DM in first SCF step ?       =     F
redata: Write Pulay info on disk?        =     F
redata: Discard 1st Pulay DM after  kick =     F
redata: New DM Mixing Weight             =     0.0500
redata: New DM Occupancy tolerance       = 0.000000000001
redata: No kicks to SCF
redata: DM Mixing Weight for Kicks       =     0.5000
redata: DM Tolerance for SCF             =     0.000100
redata: Require Energy convergence for SCF =     F
redata: DM Energy tolerance for SCF      =     0.000100 eV
redata: Require Harris convergence for SCF =     F
redata: DM Harris energy tolerance for SCF =     0.000100 eV
redata: Using Saved Data (generic)   =     F
redata: Use continuation files for DM    =     T
redata: Neglect nonoverlap interactions  =     F
redata: Method of Calculation            =     Diagonalization
redata: Divide and Conquer               =     T
redata: Electronic Temperature           =     0.0019  Ry
redata: Fix the spin of the system       =     F
redata: Dynamics option                  =     Verlet MD run
redata: Initial MD time step             =        1
redata:   Final MD time step             =        1
redata: Length of MD time step           =     1.0000  fs
redata: Initial Temperature of MD run    =     0.0000  K
redata: Perform a MD quench              =     F
redata: ***********************************************************************
Total number of electrons:   274.000000
Total ionic charge:   274.000000

* ProcessorY, Blocksize:    2  24

k-point displ. along   1 input, could be:     0.00    0.50
k-point displ. along   2 input, could be:     0.00    0.50
 Kpoints in:          364 . Kpoints trimmed:          352

siesta: k-grid: Number of k-points =   352
siesta: k-grid: Cutoff (effective) =     5.000 Ang
siesta: k-grid: Supercell and displacements
siesta: k-grid:   26   0   0      0.000
siesta: k-grid:    0  26   0      0.000
siesta: k-grid:    0   0   1      0.000
Naive supercell factors:     2    2    2

superc: Internal auxiliary supercell:     2 x     2 x     2  =       8
superc: Number of atoms, orbitals, and projectors:    576   7488   9216

* Maximum dynamic memory allocated =     6 MB

siesta:                 ==============================
                            Begin MD step =      1
                        ==============================

superc: Internal auxiliary supercell:     2 x     2 x     2  =       8
superc: Number of atoms, orbitals, and projectors:    576   7488   9216

outcell: Unit cell vectors (Ang):
       12.804619    7.392750    0.000000
        0.000000   14.785500    0.000000
        0.000000    0.000000   10.000000

outcell: Cell vector modules (Ang)   :   14.785500   14.785500   10.000000
outcell: Cell angles (23,13,12) (deg):     90.0000     90.0000     60.0000
outcell: Cell volume (Ang**3)        :   1893.2269
New_DM. Step:     1
Initializing Density Matrix...

InitMesh: MESH =   120 x   120 x    90 =     1296000
InitMesh: Mesh cutoff (required, used) =   200.000   223.865 Ry

* Maximum dynamic memory allocated =   214 MB

stepf: Fermi-Dirac step function

siesta: Program's energy decomposition (eV):
siesta: Ebs     =     -5663.854894
siesta: Eions   =     16610.217114
siesta: Ena     =      4387.324459
siesta: Ekin    =      5639.844840
siesta: Enl     =       748.658877
siesta: DEna    =        -0.000010
siesta: DUscf   =         0.000000
siesta: DUext   =         0.000000
siesta: Exc     =     -4196.167098
siesta: eta*DQ  =         0.000000
siesta: Emadel  =         0.000000
siesta: Emeta   =         0.000000
siesta: Emolmec =         0.000000
siesta: Ekinion =         0.000000
siesta: Eharris =     -9727.625885
siesta: Etot    =    -10030.556047
siesta: FreeEng =    -10030.556047

siesta: iscf   Eharris(eV)      E_KS(eV)   FreeEng(eV)   dDmax  Ef(eV)
siesta:    1    -9727.6259   -10030.5560   -10030.5560  6.7074 -8.1949
timer: Routine,Calls,Time,% = IterSCF        1    5236.891  99.79
elaps: Routine,Calls,Wall,% = IterSCF        1     655.877  99.79
siesta:    2   -13649.2706    -9086.9491    -9086.9627 21.4065 -1.5990
siesta:    3    -9654.8324    -9894.3221    -9894.3678  3.7113 -6.9625
siesta:    4    -9631.2541    -9722.6574    -9722.6984  1.2517 -5.6152
siesta:    5    -9598.4157    -9642.9101    -9642.9534  0.8079 -5.2319
siesta:    6    -9582.9158    -9621.2037    -9621.2551  0.7964 -5.1883
siesta:    7    -9579.0529    -9613.1396    -9613.1511  0.7777 -5.2208
siesta:    8    -9576.1780    -9596.0734    -9596.0911  0.6809 -5.1764
siesta:    9    -9575.0547    -9590.4932    -9590.5262  0.6532 -5.1391
siesta:   10    -9574.7304    -9576.7824    -9576.8508  0.4707 -5.0110
siesta:   11    -9574.4436    -9565.4818    -9565.5506  0.3235 -4.9593
siesta:   12    -9574.5670    -9554.0928    -9554.1626  0.2323 -4.8864
siesta:   13    -9574.4569    -9551.2292    -9551.2748  0.1495 -4.8864
siesta:   14    -9573.9688    -9554.2733    -9554.3340  0.1157 -4.9136
siesta:   15    -9573.6445    -9557.6979    -9557.7499  0.0777 -4.9665
siesta:   16    -9573.5534    -9562.8276    -9562.8886  0.0469 -5.0026
siesta:   17    -9573.5178    -9565.2609    -9565.3227  0.0353 -5.0010
siesta:   18    -9573.5009    -9567.8898    -9567.9517  0.0299 -4.9940
siesta:   19    -9573.4913    -9569.1622    -9569.2251  0.0168 -4.9958
siesta:   20    -9573.4889    -9570.6457    -9570.7117  0.0202 -4.9997
siesta:   21    -9573.4880    -9571.7486    -9571.8125  0.0161 -5.0052
siesta:   22    -9573.4854    -9572.7265    -9572.7899  0.0102 -5.0047
siesta:   23    -9573.4855    -9572.9553    -9573.0193  0.0076 -5.0024
siesta:   24    -9573.4851    -9573.1942    -9573.2578  0.0055 -4.9996
siesta:   25    -9573.4843    -9573.2189    -9573.2825  0.0044 -4.9976
siesta:   26    -9573.4844    -9573.4870    -9573.5509  0.0027 -4.9967
siesta:   27    -9573.4842    -9573.5483    -9573.6121  0.0014 -4.9964
siesta:   28    -9573.4842    -9573.5970    -9573.6609  0.0012 -4.9966
siesta:   29    -9573.4841    -9573.5908    -9573.6547  0.0006 -4.9968
siesta:   30    -9573.4841    -9573.5453    -9573.6093  0.0006 -4.9969
siesta:   31    -9573.4841    -9573.5096    -9573.5736  0.0005 -4.9968
siesta:   32    -9573.4842    -9573.5139    -9573.5779  0.0004 -4.9967
siesta:   33    -9573.4842    -9573.5068    -9573.5708  0.0003 -4.9968
siesta:   34    -9573.4842    -9573.4968    -9573.5608  0.0003 -4.9968
siesta:   35    -9573.4841    -9573.4842    -9573.5482  0.0002 -4.9969
siesta:   36    -9573.4842    -9573.4823    -9573.5463  0.0001 -4.9968
siesta:   37    -9573.4842    -9573.4845    -9573.5485  0.0001 -4.9968

siesta: E_KS(eV) =            -9573.4852

siesta: E_KS - E_eggbox =     -9573.4852

siesta: Atomic forces (eV/Ang):
----------------------------------------
   Tot   -0.171854   -0.036061    0.000000
----------------------------------------
   Max  565.789314
   Res  157.312788    sqrt( Sum f_i^2 / 3N )
----------------------------------------
   Max  565.789314    constrained

Stress-tensor-Voigt (kbar):     -802.48    -2849.43       -0.56       -8.04        0.00        0.00
(Free)E + p*V (eV/cell)    -8134.9076
Target enthalpy (eV/cell)    -9573.5492

siesta: Stress tensor (static) (eV/Ang**3):
        -0.500860   -0.005018    0.000000
        -0.005018   -1.778453    0.000000
         0.000000    0.000000   -0.000352

siesta: Pressure (static):       1217.48898731  kBar

siesta: Stress tensor (total) (eV/Ang**3):
        -0.500860   -0.005018    0.000000
        -0.005018   -1.778453    0.000000
         0.000000    0.000000   -0.000352

siesta: Pressure (total):       1217.48898731  kBar

siesta: Temp_ion =       0.000 K

* Maximum dynamic memory allocated =   230 MB
Computing bands...

siesta: Program's energy decomposition (eV):
siesta: Ebs     =     -4291.975512
siesta: Eions   =     16610.217114
siesta: Ena     =      4387.324459
siesta: Ekin    =      8592.111468
siesta: Enl     =      -865.683306
siesta: DEna    =      -812.945935
siesta: DUscf   =       108.488327
siesta: DUext   =         0.000000
siesta: Exc     =     -4372.563123
siesta: eta*DQ  =         0.000000
siesta: Emadel  =         0.000000
siesta: Emeta   =         0.000000
siesta: Emolmec =         0.000000
siesta: Ekinion =         0.000000
siesta: Eharris =     -9573.484154
siesta: Etot    =     -9573.485225
siesta: FreeEng =     -9573.549206

siesta: Final energy (eV):
siesta:  Band Struct. =   -4291.975512
siesta:       Kinetic =    8592.111468
siesta:       Hartree =   28393.543395
siesta:    Ext. field =       0.000000
siesta:   Exch.-corr. =   -4372.563123
siesta:  Ion-electron =  -65065.057906
siesta:       Ion-ion =   22878.480940
siesta:       Ekinion =       0.000000
siesta:         Total =   -9573.485225

siesta: Atomic forces (eV/Ang):
siesta:      1    2.527631   -6.985367    0.000000
siesta:      2    4.251306   -1.741940    0.000000
siesta:      3    8.755484    2.158025    0.000000
siesta:      4   16.201983   -2.963621    0.000000
siesta:      5   -0.559677    2.838535    0.000000
siesta:      6   -4.497291   -3.301104    0.000000
siesta:      7    2.938373    3.782718    0.000000
siesta:      8  -20.513931   -1.123399    0.000000
siesta:      9    0.299119  409.252134    0.000000
siesta:     10   -0.683218    3.226772    0.000000
siesta:     11   -4.198697    0.202785    0.000000
siesta:     12   -0.375250    0.419496    0.000000
siesta:     13    0.182649   -1.663039    0.000000
siesta:     14   -1.039829    3.999412    0.000000
siesta:     15   -1.549474  550.297442    0.000000
siesta:     16    0.781980 -128.123332    0.000000
siesta:     17    1.624460  127.871695    0.000000
siesta:     18  -17.118262 -552.318356    0.000000
siesta:     19   -2.029317  126.703353    0.000000
siesta:     20   18.425566 -553.656895    0.000000
siesta:     21   26.314510    6.085713    0.000000
siesta:     22   33.708555 -549.192319    0.000000
siesta:     23    6.211658    3.337850    0.000000
siesta:     24   -2.478019    0.750746    0.000000
siesta:     25    5.855638    3.006064    0.000000
siesta:     26   -1.298971   -0.063453    0.000000
siesta:     27  -26.938692    5.484980    0.000000
siesta:     28  -34.082726 -549.222826    0.000000
siesta:     29   16.570103  546.842105    0.000000
siesta:     30   -2.409376 -126.454511    0.000000
siesta:     31   31.891066  548.866590    0.000000
siesta:     32   26.402399   -4.828790    0.000000
siesta:     33   -3.704796   -4.747351    0.000000
siesta:     34    2.340255    6.899592    0.000000
siesta:     35    0.499358   -5.746786    0.000000
siesta:     36  -14.180392  547.473558    0.000000
siesta:     37    2.004282 -127.409812    0.000000
siesta:     38   -0.105910  546.734773    0.000000
siesta:     39    0.030744 -124.650594    0.000000
siesta:     40   23.921261  557.653257    0.000000
siesta:     41   -4.944560    3.182031    0.000000
siesta:     42  -31.827173  548.635558    0.000000
siesta:     43  -26.362483   -3.829670    0.000000
siesta:     44  -25.592073  555.017891    0.000000
siesta:     45    3.652656   -3.298929    0.000000
siesta:     46    2.302499   -2.130967    0.000000
siesta:     47   -2.876694    0.178513    0.000000
siesta:     48   -0.487642    1.636344    0.000000
siesta:     49    0.259938    0.571558    0.000000
siesta:     50   -2.688285   -2.236280    0.000000
siesta:     51    1.349761   -1.229489    0.000000
siesta:     52   -2.503170   -1.331829    0.000000
siesta:     53   -0.018978    0.687864    0.000000
siesta:     54    0.235161   -0.270967    0.000000
siesta:     55    0.413755    6.676530    0.000000
siesta:     56   -0.021059   -6.924734    0.000000
siesta:     57   -1.922632    2.250394    0.000000
siesta:     58    0.804780    0.200124    0.000000
siesta:     59    0.486190    3.425062    0.000000
siesta:     60    1.020633 -565.789314    0.000000
siesta:     61   -3.123373    2.167639    0.000000
siesta:     62    0.705670   -2.397490    0.000000
siesta:     63   19.385615    5.776325    0.000000
siesta:     64   21.853875 -556.838966    0.000000
siesta:     65  -21.855362    5.830710    0.000000
siesta:     66  -24.626993 -556.739765    0.000000
siesta:     67   -1.932075    0.179183    0.000000
siesta:     68    2.530603    1.903881    0.000000
siesta:     69   -0.156135  126.006582    0.000000
siesta:     70    1.238483 -544.041225    0.000000
siesta:     71    1.606255  127.298656    0.000000
siesta:     72   -1.053594 -404.295386    0.000000
siesta: ----------------------------------------
siesta:    Tot   -0.171854   -0.036061    0.000000

siesta: Stress tensor (static) (eV/Ang**3):
siesta:    -0.500860   -0.005018    0.000000
siesta:    -0.005018   -1.778453    0.000000
siesta:     0.000000    0.000000   -0.000352

siesta: Cell volume =       1893.226884 Ang**3

siesta: Pressure (static):
siesta:                Solid            Molecule  Units
siesta:           0.00827616          0.12194225  Ry/Bohr**3
siesta:           0.75988864         11.19632270  eV/Ang**3
siesta:        1217.48898731      17938.68051307  kBar
(Free)E+ p_basis*V_orbitals  =       -9538.388241
(Free)Eharris+ p_basis*V_orbitals  =       -9538.387865

siesta: Electric dipole (a.u.)  =    0.000000    0.000000    0.000000
siesta: Electric dipole (Debye) =    0.000000    0.000000    0.000000

* Maximum dynamic memory allocated : Node    0 =   230 MB
* Maximum dynamic memory allocated : Node    1 =    81 MB
* Maximum dynamic memory allocated : Node    2 =    83 MB
* Maximum dynamic memory allocated : Node    3 =   217 MB
* Maximum dynamic memory allocated : Node    4 =   227 MB
* Maximum dynamic memory allocated : Node    5 =    83 MB
* Maximum dynamic memory allocated : Node    6 =    86 MB
* Maximum dynamic memory allocated : Node    7 =   210 MB

* Maximum memory occured during matrixMtoO                    

timer: CPU execution times:
timer:  Routine       Calls   Time/call    Tot.time        %
timer:  siesta            1  191400.767  191400.767   100.00
timer:  Setup             1       2.813       2.813     0.00
timer:  bands             3     243.960     731.881     0.38
timer:  writewave         1       0.022       0.022     0.00
timer:  KSV_init          1       0.000       0.000     0.00
timer:  IterMD            1  190658.388  190658.388    99.61
timer:  hsparse           1       0.520       0.520     0.00
timer:  overlap           1       7.191       7.191     0.00
timer:  IterSCF          37    5147.802  190468.663    99.51
timer:  kinefsm           2       3.737       7.473     0.00
timer:  nlefsm            2      19.377      38.753     0.02
timer:  DHSCF            38      96.783    3677.744     1.92
timer:  DHSCF1            1       0.993       0.993     0.00
timer:  DHSCF2            1      40.651      40.651     0.02
timer:  REORD           306       0.005       1.566     0.00
timer:  POISON           39       0.920      35.863     0.02
timer:  DHSCF3           38      94.662    3597.156     1.88
timer:  rhoofd           38      22.021     836.815     0.44
timer:  cellXC           38       3.350     127.285     0.07
timer:  vmat             38      44.750    1700.485     0.89
timer:  MolMec            2       0.000       0.000     0.00
timer:  diagon           37    5050.401  186864.831    97.63
timer:  c-eigval      13145       6.034   79316.365    41.44
timer:  c-buildHS     13145       0.051     672.985     0.35
timer:  cdiag         26169       6.181  161761.403    84.51
timer:  cdiag1        26169       0.386   10107.170     5.28
timer:  cdiag2        26169       1.770   46326.702    24.20
timer:  cdiag3        26169       3.731   97647.088    51.02
timer:  cdiag4        26169       0.160    4190.102     2.19
timer:  c-eigvec      13024       6.426   83685.791    43.72
timer:  c-buildD      13024       1.883   24526.861    12.81
timer:  DHSCF4            1      38.189      38.189     0.02
timer:  dfscf             1      35.479      35.479     0.02
timer:  overfsm           1       0.443       0.443     0.00
timer:  optical           1       6.715       6.715     0.00
  

elaps: ELAPSED times:
elaps:  Routine       Calls   Time/call    Tot.time        %
elaps:  siesta            1   23970.260   23970.260   100.00
elaps:  Setup             1       0.352       0.352     0.00
elaps:  bands             3      30.569      91.708     0.38
elaps:  writewave         1       0.002       0.002     0.00
elaps:  KSV_init          1       0.000       0.000     0.00
elaps:  IterMD            1   23877.288   23877.288    99.61
elaps:  hsparse           1       0.065       0.065     0.00
elaps:  overlap           1       0.908       0.908     0.00
elaps:  IterSCF          37     644.690   23853.529    99.51
elaps:  kinefsm           2       0.472       0.944     0.00
elaps:  nlefsm            2       2.487       4.974     0.02
elaps:  DHSCF            38      12.238     465.040     1.94
elaps:  DHSCF1            1       0.126       0.126     0.00
elaps:  DHSCF2            1       5.092       5.092     0.02
elaps:  REORD           306       0.001       0.212     0.00
elaps:  POISON           39       0.116       4.527     0.02
elaps:  DHSCF3           38      11.856     450.519     1.88
elaps:  rhoofd           38       5.653     214.799     0.90
elaps:  cellXC           38       0.419      15.911     0.07
elaps:  vmat             38       5.605     212.975     0.89
elaps:  MolMec            2       0.000       0.000     0.00
elaps:  diagon           37     632.502   23402.566    97.63
elaps:  c-eigval      13145       0.756    9933.071    41.44
elaps:  c-buildHS     13145       0.007      92.643     0.39
elaps:  cdiag         26169       0.768   20104.219    83.87
elaps:  cdiag1        26169       0.049    1271.324     5.30
elaps:  cdiag2        26169       0.222    5803.056    24.21
elaps:  cdiag3        26169       0.468   12245.074    51.08
elaps:  cdiag4        26169       0.020     513.102     2.14
elaps:  c-eigvec      13024       0.794   10343.740    43.15
elaps:  c-buildD      13024       0.246    3205.751    13.37
elaps:  DHSCF4            1       9.216       9.216     0.04
elaps:  dfscf             1       8.686       8.686     0.04
elaps:  overfsm           1       0.057       0.057     0.00
elaps:  optical           1       0.000       0.000     0.00
  
>> End of run:   9-MAY-2016  11:45:48
