Siesta Version:                                        siesta-3.2-pl-3
Architecture  : x86_64-unknown-linux-gnu--unknown
Compiler flags: mpiifort -g -O2 -fPIC -xSSE4.1 -fp-model source -shared-intel 
PARALLEL version

* Running on    8 nodes in parallel
>> Start of run:   1-MAY-2016  11:44:13

                           ***********************       
                           *  WELCOME TO SIESTA  *       
                           ***********************       

reinit: Reading from standard input
************************** Dump of input data file ****************************
#(1) General system descriptors
SystemName            GRP_doping    # Descriptive name of the system
SystemLabel           GRP_doping    # Short name for naming files
%include STRUCT.fdf
%include KPT.fdf
%include BASIS.fdf
#%include TS.fdf # for transiesta calculation
#(4) DFT, Grid, SCF
XC.functional         GGA           # LDA or GGA (default = LDA)
XC.authors            PBE           # CA (Ceperley-Aldr) = PZ
                                    #    (Perdew-Zunger) - LDA - Default
                                    # PW92 (Perdew-Wang-92) - LDA
                                    # PBE (Perdew-Burke-Ernzerhof) - GGA
MeshCutoff            200.000000    Ry      # Default: 50.0 Ry ~ 0.444 Bohr
                                    #         100.0 Ry ~ 0.314 Bohr
MaxSCFIterations      500           # Default: 50
DM.MixingWeight       0.05          # Default: 0.25
DM.NumberPulay        10            # Default: 0
DM.PulayOnFile        F             # SystemLabel.P1, SystemLabel.P2
DM.Tolerance          1.d-4         # Default: 1.d-4
DM.UseSaveDM          .true.        # because of the bug
SCFMustConverge       .true.
NeglNonOverlapInt     F             # Default: F
#(5) Eigenvalue problem: order-N or diagonalization
SolutionMethod        Diagon        # or Transiesta
ElectronicTemperature 300.0 K       # Default: 300.0 K
#(6) Molecular dynamics and relaxations
#MD.TypeOfRun          CG            # Type of dynamics:
#MD.VariableCell       F
#MD.NumCGsteps         0           # 0 for single-point / 100 for gopt
#MD.MaxCGDispl         0.2 Bohr      # Default: 0.2 Bohr
#MD.MaxForceTol        0.02 eV/Ang   # Default: 0.04 eV/Ang
#MD.MaxStressTol       1.0 GPa       # Default: 1.0 GPa
# Geometry Constraints
#%block GeometryConstraints
#	position from 1 to 44
#%endblock GeometryConstraints
BandLinesScale   pi/a
%block BandLines
 1   0.00000000  0.00000000  0.00000000
50   0.00000000  0.07809418  0.00000000
50   0.04509075  0.07809242  0.00000000
20   0.00000000  0.00000000  0.00000000
%endblock BandLines
************************** End of input data file *****************************

reinit: -----------------------------------------------------------------------
reinit: System Name: GRP_doping
reinit: -----------------------------------------------------------------------
reinit: System Label: GRP_doping                                                  
reinit: -----------------------------------------------------------------------

initatom: Reading input for the pseudopotentials and atomic orbitals ----------
 Species number:            1  Label: N Atomic number:           7
 Species number:            2  Label: C Atomic number:           6
Ground state valence configuration:   2s02  2p03
Reading pseudopotential information in formatted form from N.psf

Valence configuration for pseudopotential generation:
2s( 2.00) rc: 1.48
2p( 3.00) rc: 1.48
3d( 0.00) rc: 1.48
4f( 0.00) rc: 1.48
Ground state valence configuration:   2s02  2p02
Reading pseudopotential information in formatted form from C.psf

Valence configuration for pseudopotential generation:
2s( 2.00) rc: 1.54
2p( 2.00) rc: 1.54
3d( 0.00) rc: 1.54
4f( 0.00) rc: 1.54
For N, standard SIESTA heuristics set lmxkb to 3
 (one more than the basis l, including polarization orbitals).
Use PS.lmax or PS.KBprojectors blocks to override.
For C, standard SIESTA heuristics set lmxkb to 3
 (one more than the basis l, including polarization orbitals).
Use PS.lmax or PS.KBprojectors blocks to override.

<basis_specs>
===============================================================================
N                    Z=   7    Mass=  14.010        Charge= 0.17977+309
Lmxo=1 Lmxkb= 3    BasisType=split      Semic=F
L=0  Nsemic=0  Cnfigmx=2
          n=1  nzeta=2  polorb=0
            splnorm:   0.15000    
               vcte:    0.0000    
               rinn:    0.0000    
                rcs:    0.0000      0.0000    
            lambdas:    1.0000      1.0000    
L=1  Nsemic=0  Cnfigmx=2
          n=1  nzeta=2  polorb=1
            splnorm:   0.15000    
               vcte:    0.0000    
               rinn:    0.0000    
                rcs:    0.0000      0.0000    
            lambdas:    1.0000      1.0000    
-------------------------------------------------------------------------------
L=0  Nkbl=1  erefs: 0.17977+309
L=1  Nkbl=1  erefs: 0.17977+309
L=2  Nkbl=1  erefs: 0.17977+309
L=3  Nkbl=1  erefs: 0.17977+309
===============================================================================
</basis_specs>

atom: Called for N                     (Z =   7)

read_vps: Pseudopotential generation method:
read_vps: ATM3      Troullier-Martins                       
Total valence charge:    5.00000

read_vps: Pseudopotential includes a core correction:
read_vps: Pseudo-core for xc-correction

xc_check: Exchange-correlation functional:
xc_check: GGA Perdew, Burke & Ernzerhof 1996
V l=0 = -2*Zval/r beyond r=  1.4606
V l=1 = -2*Zval/r beyond r=  1.4606
V l=2 = -2*Zval/r beyond r=  1.4606
V l=3 = -2*Zval/r beyond r=  1.4606
All V_l potentials equal beyond r=  1.4606
This should be close to max(r_c) in ps generation
All pots = -2*Zval/r beyond r=  1.4606

VLOCAL1: 99.0% of the norm of Vloc inside     20.347 Ry
VLOCAL1: 99.9% of the norm of Vloc inside     46.372 Ry
atom: Maximum radius for 4*pi*r*r*local-pseudopot. charge    1.76189
atom: Maximum radius for r*vlocal+2*Zval:    1.53550
GHOST: No ghost state for L =  0
GHOST: No ghost state for L =  1
GHOST: No ghost state for L =  2
GHOST: No ghost state for L =  3

KBgen: Kleinman-Bylander projectors: 
   l= 0   rc=  1.634559   el= -1.363963   Ekb=  5.296955   kbcos=  0.335621
   l= 1   rc=  1.614250   el= -0.521451   Ekb= -5.259161   kbcos= -0.433408
   l= 2   rc=  1.718383   el=  0.001991   Ekb= -1.271464   kbcos= -0.007566
   l= 3   rc=  1.761893   el=  0.003093   Ekb= -0.494769   kbcos= -0.001015

KBgen: Total number of  Kleinman-Bylander projectors:   16
atom: -------------------------------------------------------------------------

atom: SANKEY-TYPE ORBITALS:
atom: Selected multiple-zeta basis: split     

SPLIT: Orbitals with angular momentum L= 0

SPLIT: Basis orbitals for state 2s

SPLIT: PAO cut-off radius determined from an
SPLIT: energy shift=  0.007350 Ry

   izeta = 1
                 lambda =    1.000000
                     rc =    4.071465
                 energy =   -1.356470
                kinetic =    1.176977
    potential(screened) =   -2.533447
       potential(ionic) =   -8.057990

   izeta = 2
                 rmatch =    2.905100
              splitnorm =    0.150000
                 energy =   -1.158343
                kinetic =    1.813009
    potential(screened) =   -2.971352
       potential(ionic) =   -8.901931

SPLIT: Orbitals with angular momentum L= 1

SPLIT: Basis orbitals for state 2p

SPLIT: PAO cut-off radius determined from an
SPLIT: energy shift=  0.007350 Ry

   izeta = 1
                 lambda =    1.000000
                     rc =    4.972977
                 energy =   -0.513884
                kinetic =    3.441732
    potential(screened) =   -3.955616
       potential(ionic) =   -9.287901

   izeta = 2
                 rmatch =    3.054066
              splitnorm =    0.150000
                 energy =   -0.318226
                kinetic =    5.125348
    potential(screened) =   -5.443573
       potential(ionic) =  -11.380999

POLgen: Perturbative polarization orbital with L=  2

POLgen: Polarization orbital for state 2p

   izeta = 1
                     rc =    4.972977
                 energy =    1.607437
                kinetic =    3.268125
    potential(screened) =   -1.660688
       potential(ionic) =   -5.973652
atom: Total number of Sankey-type orbitals: 13

atm_pop: Valence configuration (for local Pseudopot. screening):
 2s( 2.00)                                                            
 2p( 3.00)                                                            
Vna: chval, zval:    5.00000   5.00000

Vna:  Cut-off radius for the neutral-atom potential:   4.972977
comcore: Pseudo-core radius Rcore=  1.554824

atom: _________________________________________________________________________

<basis_specs>
===============================================================================
C                    Z=   6    Mass=  12.010        Charge= 0.17977+309
Lmxo=1 Lmxkb= 3    BasisType=split      Semic=F
L=0  Nsemic=0  Cnfigmx=2
          n=1  nzeta=2  polorb=0
            splnorm:   0.15000    
               vcte:    0.0000    
               rinn:    0.0000    
                rcs:    0.0000      0.0000    
            lambdas:    1.0000      1.0000    
L=1  Nsemic=0  Cnfigmx=2
          n=1  nzeta=2  polorb=1
            splnorm:   0.15000    
               vcte:    0.0000    
               rinn:    0.0000    
                rcs:    0.0000      0.0000    
            lambdas:    1.0000      1.0000    
-------------------------------------------------------------------------------
L=0  Nkbl=1  erefs: 0.17977+309
L=1  Nkbl=1  erefs: 0.17977+309
L=2  Nkbl=1  erefs: 0.17977+309
L=3  Nkbl=1  erefs: 0.17977+309
===============================================================================
</basis_specs>

atom: Called for C                     (Z =   6)

read_vps: Pseudopotential generation method:
read_vps: ATM3      Troullier-Martins                       
Total valence charge:    4.00000

read_vps: Pseudopotential includes a core correction:
read_vps: Pseudo-core for xc-correction

xc_check: Exchange-correlation functional:
xc_check: GGA Perdew, Burke & Ernzerhof 1996
V l=0 = -2*Zval/r beyond r=  1.5227
V l=1 = -2*Zval/r beyond r=  1.5227
V l=2 = -2*Zval/r beyond r=  1.5227
V l=3 = -2*Zval/r beyond r=  1.5038
All V_l potentials equal beyond r=  1.5227
This should be close to max(r_c) in ps generation
All pots = -2*Zval/r beyond r=  1.5227

VLOCAL1: 99.0% of the norm of Vloc inside     18.722 Ry
VLOCAL1: 99.9% of the norm of Vloc inside     42.668 Ry
atom: Maximum radius for 4*pi*r*r*local-pseudopot. charge    1.83678
atom: Maximum radius for r*vlocal+2*Zval:    1.58088
GHOST: No ghost state for L =  0
GHOST: No ghost state for L =  1
GHOST: No ghost state for L =  2
GHOST: No ghost state for L =  3

KBgen: Kleinman-Bylander projectors: 
   l= 0   rc=  1.704034   el= -1.009801   Ekb=  5.335044   kbcos=  0.316824
   l= 1   rc=  1.704034   el= -0.388707   Ekb= -3.785862   kbcos= -0.366464
   l= 2   rc=  1.791422   el=  0.001971   Ekb= -0.970471   kbcos= -0.009212
   l= 3   rc=  1.859892   el=  0.003065   Ekb= -0.399525   kbcos= -0.001223

KBgen: Total number of  Kleinman-Bylander projectors:   16
atom: -------------------------------------------------------------------------

atom: SANKEY-TYPE ORBITALS:
atom: Selected multiple-zeta basis: split     

SPLIT: Orbitals with angular momentum L= 0

SPLIT: Basis orbitals for state 2s

SPLIT: PAO cut-off radius determined from an
SPLIT: energy shift=  0.007350 Ry

   izeta = 1
                 lambda =    1.000000
                     rc =    4.632753
                 energy =   -1.002270
                kinetic =    0.855760
    potential(screened) =   -1.858031
       potential(ionic) =   -5.417575

   izeta = 2
                 rmatch =    3.431921
              splitnorm =    0.150000
                 energy =   -0.867111
                kinetic =    1.300804
    potential(screened) =   -2.167915
       potential(ionic) =   -5.962684

SPLIT: Orbitals with angular momentum L= 1

SPLIT: Basis orbitals for state 2p

SPLIT: PAO cut-off radius determined from an
SPLIT: energy shift=  0.007350 Ry

   izeta = 1
                 lambda =    1.000000
                     rc =    5.658549
                 energy =   -0.381140
                kinetic =    2.399701
    potential(screened) =   -2.780841
       potential(ionic) =   -6.206085

   izeta = 2
                 rmatch =    3.653288
              splitnorm =    0.150000
                 energy =   -0.249149
                kinetic =    3.542762
    potential(screened) =   -3.791911
       potential(ionic) =   -7.581078

POLgen: Perturbative polarization orbital with L=  2

POLgen: Polarization orbital for state 2p

   izeta = 1
                     rc =    5.658549
                 energy =    1.109913
                kinetic =    2.304789
    potential(screened) =   -1.194876
       potential(ionic) =   -4.013592
atom: Total number of Sankey-type orbitals: 13

atm_pop: Valence configuration (for local Pseudopot. screening):
 2s( 2.00)                                                            
 2p( 2.00)                                                            
Vna: chval, zval:    4.00000   4.00000

Vna:  Cut-off radius for the neutral-atom potential:   5.658549
comcore: Pseudo-core radius Rcore=  1.791422

atom: _________________________________________________________________________

prinput: Basis input ----------------------------------------------------------

PAO.BasisType split     

%block ChemicalSpeciesLabel
    1    7 N                       # Species index, atomic number, species label
    2    6 C                       # Species index, atomic number, species label
%endblock ChemicalSpeciesLabel

%block PAO.Basis                 # Define Basis set
N                     2                    # Species label, number of l-shells
 n=2   0   2                         # n, l, Nzeta 
   4.071      2.905   
   1.000      1.000   
 n=2   1   2 P   1                   # n, l, Nzeta, Polarization, NzetaPol
   4.973      3.054   
   1.000      1.000   
C                     2                    # Species label, number of l-shells
 n=2   0   2                         # n, l, Nzeta 
   4.633      3.432   
   1.000      1.000   
 n=2   1   2 P   1                   # n, l, Nzeta, Polarization, NzetaPol
   5.659      3.653   
   1.000      1.000   
%endblock PAO.Basis

prinput: ----------------------------------------------------------------------

coor:   Atomic-coordinates input format  =     Fractional

siesta: Atomic coordinates (Bohr) and species
siesta:     -2.35420  41.57980   0.00000  1        1
siesta:      2.30256  38.89134   0.00000  1        2
siesta:      2.30256  41.57980   0.00000  1        3
siesta:      4.63094  34.85847   0.00000  1        4
siesta:      4.63094  37.54693   0.00000  1        5
siesta:      6.95932  30.82560   0.00000  1        6
siesta:      6.95932  33.51406   0.00000  1        7
siesta:      9.28770  26.79272   0.00000  1        8
siesta:      9.28770  29.48119   0.00000  1        9
siesta:      4.63094  10.66124   0.00000  1       10
siesta:      4.63094  13.34970   0.00000  1       11
siesta:      2.30256  14.69411   0.00000  1       12
siesta:     -4.68258  21.41544   0.00000  1       13
siesta:     -2.35420  22.75985   0.00000  1       14
siesta:     -7.01096  22.75985   0.00000  1       15
siesta:     -7.01096  25.44831   0.00000  1       16
siesta:     -9.33934  26.79272   0.00000  1       17
siesta:     -0.02582  42.92421   0.00000  1       18
siesta:     -0.02582  45.61267   0.00000  1       19
siesta:     -0.02582   2.59549   0.00000  2       20
siesta:     -0.02582   5.28395   0.00000  2       21
siesta:     -2.35420  38.89134   0.00000  2       22
siesta:     -4.68258  34.85847   0.00000  2       23
siesta:     -4.68258  37.54693   0.00000  2       24
siesta:      2.30256   6.62836   0.00000  2       25
siesta:      2.30256   9.31683   0.00000  2       26
siesta:      6.95932  14.69411   0.00000  2       27
siesta:      6.95932  17.38257   0.00000  2       28
siesta:      9.28770  18.72698   0.00000  2       29
siesta:      9.28770  21.41544   0.00000  2       30
siesta:     11.61608  22.75985   0.00000  2       31
siesta:     11.61608  25.44831   0.00000  2       32
siesta:     -2.35420   6.62836   0.00000  2       33
siesta:     -2.35420   9.31683   0.00000  2       34
siesta:     -0.02582  10.66124   0.00000  2       35
siesta:     -0.02582  13.34970   0.00000  2       36
siesta:      2.30256  17.38257   0.00000  2       37
siesta:      4.63094  18.72698   0.00000  2       38
siesta:      4.63094  21.41544   0.00000  2       39
siesta:      6.95932  22.75985   0.00000  2       40
siesta:      6.95932  25.44831   0.00000  2       41
siesta:     -4.68258  10.66124   0.00000  2       42
siesta:     -4.68258  13.34970   0.00000  2       43
siesta:     -2.35420  14.69411   0.00000  2       44
siesta:     -2.35420  17.38257   0.00000  2       45
siesta:     -0.02582  18.72698   0.00000  2       46
siesta:     -0.02582  21.41544   0.00000  2       47
siesta:      2.30256  22.75985   0.00000  2       48
siesta:      2.30256  25.44831   0.00000  2       49
siesta:     -7.01096  14.69411   0.00000  2       50
siesta:     -7.01096  17.38257   0.00000  2       51
siesta:     -4.68258  18.72698   0.00000  2       52
siesta:     -2.35420  25.44831   0.00000  2       53
siesta:     -9.33934  18.72698   0.00000  2       54
siesta:     -9.33934  21.41544   0.00000  2       55
siesta:    -11.66772  22.75985   0.00000  2       56
siesta:    -11.66772  25.44831   0.00000  2       57
siesta:     -9.33934  29.48119   0.00000  2       58
siesta:      4.63094  26.79272   0.00000  2       59
siesta:      4.63094  29.48119   0.00000  2       60
siesta:     -0.02582  26.79272   0.00000  2       61
siesta:     -0.02582  29.48119   0.00000  2       62
siesta:     -4.68258  26.79272   0.00000  2       63
siesta:     -4.68258  29.48119   0.00000  2       64
siesta:      2.30256  30.82560   0.00000  2       65
siesta:      2.30256  33.51406   0.00000  2       66
siesta:     -2.35420  30.82560   0.00000  2       67
siesta:     -2.35420  33.51406   0.00000  2       68
siesta:     -7.01096  30.82560   0.00000  2       69
siesta:     -7.01096  33.51406   0.00000  2       70
siesta:     -0.02582  34.85847   0.00000  2       71
siesta:     -0.02582  37.54693   0.00000  2       72

siesta: System type = slab      

initatomlists: Number of atoms, orbitals, and projectors:     72   936  1152

siesta: ******************** Simulation parameters ****************************
siesta:
siesta: The following are some of the parameters of the simulation.
siesta: A complete list of the parameters used, including default values,
siesta: can be found in file out.fdf
siesta:
redata: Non-Collinear-spin run           =     F
redata: SpinPolarized (Up/Down) run      =     F
redata: Number of spin components        =     1
redata: Long output                      =     F
redata: Number of Atomic Species         =        2
redata: Charge density info will appear in .RHO file
redata: Write Mulliken Pop.              =     NO
redata: Mesh Cutoff                      =   200.0000  Ry
redata: Net charge of the system         =     0.0000 |e|
redata: Max. number of SCF Iter          =      500
redata: SCF convergence failure will abort job
redata: Performing Pulay mixing using    =    10 iterations
redata: Mix DM in first SCF step ?       =     F
redata: Write Pulay info on disk?        =     F
redata: Discard 1st Pulay DM after  kick =     F
redata: New DM Mixing Weight             =     0.0500
redata: New DM Occupancy tolerance       = 0.000000000001
redata: No kicks to SCF
redata: DM Mixing Weight for Kicks       =     0.5000
redata: DM Tolerance for SCF             =     0.000100
redata: Require Energy convergence for SCF =     F
redata: DM Energy tolerance for SCF      =     0.000100 eV
redata: Require Harris convergence for SCF =     F
redata: DM Harris energy tolerance for SCF =     0.000100 eV
redata: Using Saved Data (generic)   =     F
redata: Use continuation files for DM    =     T
redata: Neglect nonoverlap interactions  =     F
redata: Method of Calculation            =     Diagonalization
redata: Divide and Conquer               =     T
redata: Electronic Temperature           =     0.0019  Ry
redata: Fix the spin of the system       =     F
redata: Dynamics option                  =     Verlet MD run
redata: Initial MD time step             =        1
redata:   Final MD time step             =        1
redata: Length of MD time step           =     1.0000  fs
redata: Initial Temperature of MD run    =     0.0000  K
redata: Perform a MD quench              =     F
redata: ***********************************************************************
Total number of electrons:   307.000000
Total ionic charge:   307.000000

* ProcessorY, Blocksize:    2  24

k-point displ. along   1 input, could be:     0.50    0.00
k-point displ. along   2 input, could be:     0.50    0.00
 Kpoints in:          231 . Kpoints trimmed:          231

siesta: k-grid: Number of k-points =   231
siesta: k-grid: Cutoff (effective) =     5.000 Ang
siesta: k-grid: Supercell and displacements
siesta: k-grid:   21   0   0      0.500
siesta: k-grid:    0  21   0      0.500
siesta: k-grid:    0   0   1      0.000
Naive supercell factors:     2    2    2

superc: Internal auxiliary supercell:     2 x     2 x     2  =       8
superc: Number of atoms, orbitals, and projectors:    576   7488   9216

* Maximum dynamic memory allocated =     4 MB

siesta:                 ==============================
                            Begin MD step =      1
                        ==============================

superc: Internal auxiliary supercell:     2 x     2 x     2  =       8
superc: Number of atoms, orbitals, and projectors:    576   7488   9216

outcell: Unit cell vectors (Ang):
       12.804619    7.392750    0.000000
        0.000000   14.785500    0.000000
        0.000000    0.000000   10.000000

outcell: Cell vector modules (Ang)   :   14.785500   14.785500   10.000000
outcell: Cell angles (23,13,12) (deg):     90.0000     90.0000     60.0000
outcell: Cell volume (Ang**3)        :   1893.2269
New_DM. Step:     1
Initializing Density Matrix...

InitMesh: MESH =   120 x   120 x    90 =     1296000
InitMesh: Mesh cutoff (required, used) =   200.000   223.865 Ry

* Maximum dynamic memory allocated =   184 MB

stepf: Fermi-Dirac step function

siesta: Program's energy decomposition (eV):
siesta: Ebs     =     -6292.338400
siesta: Eions   =     21457.201110
siesta: Ena     =      4933.928794
siesta: Ekin    =      7972.707975
siesta: Enl     =        62.968353
siesta: DEna    =        -0.000015
siesta: DUscf   =         0.000000
siesta: DUext   =         0.000000
siesta: Exc     =     -4655.914235
siesta: eta*DQ  =         0.000000
siesta: Emadel  =         0.000000
siesta: Emeta   =         0.000000
siesta: Emolmec =         0.000000
siesta: Ekinion =         0.000000
siesta: Eharris =    -12743.829882
siesta: Etot    =    -13143.510238
siesta: FreeEng =    -13143.510238

siesta: iscf   Eharris(eV)      E_KS(eV)   FreeEng(eV)   dDmax  Ef(eV)
siesta:    1   -12743.8299   -13143.5102   -13143.5102  6.1437 -6.7230
timer: Routine,Calls,Time,% = IterSCF        1    3403.043  99.70
elaps: Routine,Calls,Wall,% = IterSCF        1     426.190  99.70
siesta:    2   -16217.7550   -12165.7652   -12165.8281  9.3894 -3.8127
siesta:    3   -12745.2711   -12853.6853   -12853.7280  1.7125 -3.8743
siesta:    4   -12661.4723   -12791.7079   -12791.7677  1.3890 -3.7601
siesta:    5   -12621.2630   -12739.6459   -12739.6913  0.8753 -3.7239
siesta:    6   -12612.4003   -12709.1738   -12709.2429  0.7715 -3.6406
siesta:    7   -12602.4681   -12689.4403   -12689.5094  0.7070 -3.6059
siesta:    8   -12594.0174   -12672.4189   -12672.4691  0.5493 -3.5966
siesta:    9   -12591.9708   -12654.2748   -12654.3167  0.4775 -3.6923
siesta:   10   -12591.6047   -12640.7803   -12640.8613  0.3726 -3.7492
siesta:   11   -12591.7915   -12625.0901   -12625.1810  0.2971 -3.7202
siesta:   12   -12592.1504   -12600.6647   -12600.7158  0.2896 -3.7120
siesta:   13   -12591.4796   -12595.9275   -12595.9831  0.2949 -3.6996
siesta:   14   -12591.5187   -12592.4759   -12592.5724  0.2983 -3.6718
siesta:   15   -12591.2991   -12593.9230   -12593.9836  0.2508 -3.6656
siesta:   16   -12591.0778   -12592.8802   -12592.9739  0.2298 -3.6914
siesta:   17   -12590.9851   -12592.2833   -12592.3727  0.2711 -3.7002
siesta:   18   -12590.8268   -12590.6904   -12590.7609  0.0735 -3.7403
siesta:   19   -12590.8246   -12590.0790   -12590.1847  0.0934 -3.7305
siesta:   20   -12590.7898   -12589.3634   -12589.4563  0.0637 -3.7346
siesta:   21   -12590.7736   -12589.2430   -12589.3479  0.0370 -3.7323
siesta:   22   -12590.7592   -12588.9692   -12589.0729  0.0339 -3.7290
siesta:   23   -12590.7642   -12590.4950   -12590.6001  0.0559 -3.7271
siesta:   24   -12590.7562   -12590.9185   -12591.0149  0.0420 -3.7309
siesta:   25   -12590.7540   -12591.0206   -12591.1206  0.0365 -3.7306
siesta:   26   -12590.7495   -12590.9127   -12591.0133  0.0187 -3.7332
siesta:   27   -12590.7499   -12590.5614   -12590.6645  0.0067 -3.7330
siesta:   28   -12590.7494   -12590.5144   -12590.6172  0.0033 -3.7323
siesta:   29   -12590.7494   -12590.4848   -12590.5874  0.0037 -3.7317
siesta:   30   -12590.7489   -12590.6091   -12590.7116  0.0026 -3.7335
siesta:   31   -12590.7491   -12590.6767   -12590.7795  0.0013 -3.7339
siesta:   32   -12590.7490   -12590.7101   -12590.8126  0.0015 -3.7346
siesta:   33   -12590.7491   -12590.7338   -12590.8364  0.0008 -3.7345
siesta:   34   -12590.7492   -12590.7640   -12590.8665  0.0021 -3.7343
siesta:   35   -12590.7491   -12590.7782   -12590.8806  0.0018 -3.7341
siesta:   36   -12590.7491   -12590.7799   -12590.8824  0.0007 -3.7340
siesta:   37   -12590.7490   -12590.7677   -12590.8702  0.0003 -3.7339
siesta:   38   -12590.7490   -12590.7682   -12590.8708  0.0001 -3.7339
siesta:   39   -12590.7490   -12590.7681   -12590.8707  0.0001 -3.7339
siesta:   40   -12590.7490   -12590.7650   -12590.8675  0.0002 -3.7339
siesta:   41   -12590.7490   -12590.7614   -12590.8639  0.0001 -3.7339
siesta:   42   -12590.7490   -12590.7590   -12590.8616  0.0001 -3.7340

siesta: E_KS(eV) =           -12590.7578

siesta: E_KS - E_eggbox =    -12590.7578

siesta: Atomic forces (eV/Ang):
----------------------------------------
   Tot   -0.170032    0.096396    0.000000
----------------------------------------
   Max  779.684489
   Res  183.787449    sqrt( Sum f_i^2 / 3N )
----------------------------------------
   Max  779.684489    constrained

Stress-tensor-Voigt (kbar):     -641.89    -3275.65       -0.06       -6.19        0.00        0.00
(Free)E + p*V (eV/cell)   -11047.7856
Target enthalpy (eV/cell)   -12590.8604

siesta: Stress tensor (static) (eV/Ang**3):
        -0.400635   -0.003863    0.000000
        -0.003863   -2.044480    0.000000
         0.000000    0.000000   -0.000036

siesta: Pressure (static):       1305.86839913  kBar

siesta: Stress tensor (total) (eV/Ang**3):
        -0.400635   -0.003863    0.000000
        -0.003863   -2.044480    0.000000
         0.000000    0.000000   -0.000036

siesta: Pressure (total):       1305.86839913  kBar

siesta: Temp_ion =       0.000 K

* Maximum dynamic memory allocated =   201 MB
Computing bands...

siesta: Program's energy decomposition (eV):
siesta: Ebs     =     -5084.145066
siesta: Eions   =     21457.201110
siesta: Ena     =      4933.928794
siesta: Ekin    =     11131.076306
siesta: Enl     =     -1678.425693
siesta: DEna    =      -798.836579
siesta: DUscf   =       108.912856
siesta: DUext   =         0.000000
siesta: Exc     =     -4830.212406
siesta: eta*DQ  =         0.000000
siesta: Emadel  =         0.000000
siesta: Emeta   =         0.000000
siesta: Emolmec =         0.000000
siesta: Ekinion =         0.000000
siesta: Eharris =    -12590.749039
siesta: Etot    =    -12590.757833
siesta: FreeEng =    -12590.860398

siesta: Final energy (eV):
siesta:  Band Struct. =   -5084.145066
siesta:       Kinetic =   11131.076306
siesta:       Hartree =   35947.409560
siesta:    Ext. field =       0.000000
siesta:   Exch.-corr. =   -4830.212406
siesta:  Ion-electron =  -82614.736646
siesta:       Ion-ion =   27775.705354
siesta:       Ekinion =       0.000000
siesta:         Total =  -12590.757833

siesta: Atomic forces (eV/Ang):
siesta:      1  -20.260666 -660.831323    0.000000
siesta:      2   -7.769985  108.586650    0.000000
siesta:      3   22.301020 -748.734291    0.000000
siesta:      4   23.169207   -3.743851    0.000000
siesta:      5   27.481520 -752.105732    0.000000
siesta:      6   -1.730427   -0.967701    0.000000
siesta:      7    0.487753   -3.363309    0.000000
siesta:      8   -0.379775    0.364358    0.000000
siesta:      9    0.488524    0.504394    0.000000
siesta:     10   24.529802  757.162344    0.000000
siesta:     11   36.860256    0.575239    0.000000
siesta:     12   -2.424974  779.684489    0.000000
siesta:     13    0.778676    0.180679    0.000000
siesta:     14   -1.311156   -0.006714    0.000000
siesta:     15   -0.352349    0.499406    0.000000
siesta:     16    2.796330   -0.727517    0.000000
siesta:     17   -2.781248    2.975823    0.000000
siesta:     18   -3.572320  110.514878    0.000000
siesta:     19    6.095388 -647.255512    0.000000
siesta:     20   -2.273704  548.642331    0.000000
siesta:     21    3.623093 -128.300267    0.000000
siesta:     22   -2.027940  116.386351    0.000000
siesta:     23  -26.561765    5.415605    0.000000
siesta:     24  -34.800963 -552.189041    0.000000
siesta:     25   34.750700  550.811911    0.000000
siesta:     26   -6.883569 -121.274602    0.000000
siesta:     27   -2.514429   -0.373110    0.000000
siesta:     28    1.149549   -1.346558    0.000000
siesta:     29   -0.594758    0.140617    0.000000
siesta:     30    1.704779   -2.854632    0.000000
siesta:     31   -0.178070    6.227491    0.000000
siesta:     32   -1.447870   -2.868550    0.000000
siesta:     33  -12.827092  545.365813    0.000000
siesta:     34    3.954208 -127.980913    0.000000
siesta:     35   17.962801  547.347784    0.000000
siesta:     36   -2.937720 -122.897310    0.000000
siesta:     37   23.359671   -2.352830    0.000000
siesta:     38   -1.632903    2.999082    0.000000
siesta:     39   -0.058032   -0.385212    0.000000
siesta:     40    0.285952    1.117973    0.000000
siesta:     41    0.758415   -0.203844    0.000000
siesta:     42  -26.814265  551.072800    0.000000
siesta:     43  -25.982617   -6.405289    0.000000
siesta:     44    0.234526  678.125317    0.000000
siesta:     45  -24.826506   -1.870388    0.000000
siesta:     46   -4.455384  685.794102    0.000000
siesta:     47   -0.080427   -0.237105    0.000000
siesta:     48   -0.262198   -0.001866    0.000000
siesta:     49    0.417981    0.377180    0.000000
siesta:     50    2.723664   -1.192123    0.000000
siesta:     51   -1.444663    0.341971    0.000000
siesta:     52    1.731833    3.747503    0.000000
siesta:     53   -0.674778    0.038063    0.000000
siesta:     54    0.691165   -0.114792    0.000000
siesta:     55   -0.721005   -1.146070    0.000000
siesta:     56    0.622933    4.041191    0.000000
siesta:     57    1.521343   -2.621554    0.000000
siesta:     58   -0.549180   -2.269768    0.000000
siesta:     59    0.810031    0.011301    0.000000
siesta:     60    0.105938   -1.228770    0.000000
siesta:     61   -0.315598   -1.245153    0.000000
siesta:     62    1.635189 -563.760952    0.000000
siesta:     63   -0.916970   -1.240459    0.000000
siesta:     64    1.193658   -2.201472    0.000000
siesta:     65   23.534160    6.624098    0.000000
siesta:     66    5.784568 -571.129327    0.000000
siesta:     67  -22.987341    6.144523    0.000000
siesta:     68  -26.205618 -558.363052    0.000000
siesta:     69   -0.784259    0.051438    0.000000
siesta:     70    2.497733    1.343228    0.000000
siesta:     71   -1.280521  127.420315    0.000000
siesta:     72   -2.589353 -554.748899    0.000000
siesta: ----------------------------------------
siesta:    Tot   -0.170032    0.096396    0.000000

siesta: Stress tensor (static) (eV/Ang**3):
siesta:    -0.400635   -0.003863    0.000000
siesta:    -0.003863   -2.044480    0.000000
siesta:     0.000000    0.000000   -0.000036

siesta: Cell volume =       1893.226884 Ang**3

siesta: Pressure (static):
siesta:                Solid            Molecule  Units
siesta:           0.00887694          0.14560788  Ry/Bohr**3
siesta:           0.81505014         13.36922047  eV/Ang**3
siesta:        1305.86839913      21420.08418615  kBar
(Free)E+ p_basis*V_orbitals  =      -12562.839088
(Free)Eharris+ p_basis*V_orbitals  =      -12562.829081

siesta: Electric dipole (a.u.)  =    0.000000    0.000000    0.000000
siesta: Electric dipole (Debye) =    0.000000    0.000000    0.000000

* Maximum dynamic memory allocated : Node    0 =   201 MB
* Maximum dynamic memory allocated : Node    1 =    73 MB
* Maximum dynamic memory allocated : Node    2 =    74 MB
* Maximum dynamic memory allocated : Node    3 =   192 MB
* Maximum dynamic memory allocated : Node    4 =   187 MB
* Maximum dynamic memory allocated : Node    5 =    70 MB
* Maximum dynamic memory allocated : Node    6 =    72 MB
* Maximum dynamic memory allocated : Node    7 =   173 MB

* Maximum memory occured during matrixMtoO                    

timer: CPU execution times:
timer:  Routine       Calls   Time/call    Tot.time        %
timer:  siesta            1  138703.296  138703.296   100.00
timer:  Setup             1       2.681       2.681     0.00
timer:  bands             3     244.310     732.930     0.53
timer:  writewave         1       0.022       0.022     0.00
timer:  KSV_init          1       0.001       0.001     0.00
timer:  IterMD            1  137962.456  137962.456    99.47
timer:  hsparse           1       0.279       0.279     0.00
timer:  overlap           1       7.127       7.127     0.01
timer:  IterSCF          42    3281.243  137812.193    99.36
timer:  kinefsm           2       3.672       7.345     0.01
timer:  nlefsm            2      17.239      34.478     0.02
timer:  DHSCF            43      74.835    3217.912     2.32
timer:  DHSCF1            1       0.746       0.746     0.00
timer:  DHSCF2            1      30.664      30.664     0.02
timer:  REORD           346       0.005       1.679     0.00
timer:  POISON           44       0.878      38.633     0.03
timer:  DHSCF3           43      73.422    3157.133     2.28
timer:  rhoofd           43      15.600     670.781     0.48
timer:  cellXC           43       3.234     139.042     0.10
timer:  vmat             43      33.980    1461.157     1.05
timer:  MolMec            2       0.000       0.000     0.00
timer:  diagon           42    3205.709  134639.787    97.07
timer:  c-eigval       9823       6.040   59329.147    42.77
timer:  c-buildHS      9823       0.047     460.874     0.33
timer:  cdiag         19525       6.161  120285.917    86.72
timer:  cdiag1        19525       0.386    7542.672     5.44
timer:  cdiag2        19525       1.772   34596.924    24.94
timer:  cdiag3        19525       3.744   73108.326    52.71
timer:  cdiag4        19525       0.151    2939.413     2.12
timer:  c-eigvec       9702       6.369   61788.877    44.55
timer:  c-buildD       9702       1.464   14205.154    10.24
timer:  DHSCF4            1      28.471      28.471     0.02
timer:  dfscf             1      26.592      26.592     0.02
timer:  overfsm           1       0.381       0.381     0.00
timer:  optical           1       4.566       4.566     0.00
  

elaps: ELAPSED times:
elaps:  Routine       Calls   Time/call    Tot.time        %
elaps:  siesta            1   17369.989   17369.989   100.00
elaps:  Setup             1       0.335       0.335     0.00
elaps:  bands             3      30.613      91.840     0.53
elaps:  writewave         1       0.002       0.002     0.00
elaps:  KSV_init          1       0.000       0.000     0.00
elaps:  IterMD            1   17277.211   17277.211    99.47
elaps:  hsparse           1       0.035       0.035     0.00
elaps:  overlap           1       0.892       0.892     0.01
elaps:  IterSCF          42     410.914   17258.398    99.36
elaps:  kinefsm           2       0.459       0.918     0.01
elaps:  nlefsm            2       2.126       4.252     0.02
elaps:  DHSCF            43       9.459     406.757     2.34
elaps:  DHSCF1            1       0.096       0.096     0.00
elaps:  DHSCF2            1       3.838       3.838     0.02
elaps:  REORD           346       0.001       0.230     0.00
elaps:  POISON           44       0.110       4.856     0.03
elaps:  DHSCF3           43       9.195     395.395     2.28
elaps:  rhoofd           43       4.355     187.272     1.08
elaps:  cellXC           43       0.405      17.398     0.10
elaps:  vmat             43       4.256     182.990     1.05
elaps:  MolMec            2       0.000       0.000     0.00
elaps:  diagon           42     401.453   16861.028    97.07
elaps:  c-eigval       9823       0.756    7429.844    42.77
elaps:  c-buildHS      9823       0.007      64.609     0.37
elaps:  cdiag         19525       0.772   15067.168    86.74
elaps:  cdiag1        19525       0.048     946.584     5.45
elaps:  cdiag2        19525       0.222    4333.443    24.95
elaps:  cdiag3        19525       0.470    9167.375    52.78
elaps:  cdiag4        19525       0.018     360.025     2.07
elaps:  c-eigvec       9702       0.799    7756.474    44.65
elaps:  c-buildD       9702       0.181    1759.756    10.13
elaps:  DHSCF4            1       7.314       7.314     0.04
elaps:  dfscf             1       6.904       6.904     0.04
elaps:  overfsm           1       0.046       0.046     0.00
elaps:  optical           1       0.000       0.000     0.00
  
>> End of run:   1-MAY-2016  16:33:43
