Siesta Version:                                        siesta-3.2-pl-3
Architecture  : x86_64-unknown-linux-gnu--unknown
Compiler flags: mpiifort -g -O2 -fPIC -xSSE4.1 -fp-model source -shared-intel 
PARALLEL version

* Running on    8 nodes in parallel
>> Start of run:  26-APR-2016  17:56:19

                           ***********************       
                           *  WELCOME TO SIESTA  *       
                           ***********************       

reinit: Reading from standard input
************************** Dump of input data file ****************************
#(1) General system descriptors
SystemName            GRP_doping    # Descriptive name of the system
SystemLabel           GRP_doping    # Short name for naming files
%include STRUCT.fdf
%include KPT.fdf
%include BASIS.fdf
#%include TS.fdf # for transiesta calculation
#(4) DFT, Grid, SCF
XC.functional         GGA           # LDA or GGA (default = LDA)
XC.authors            PBE           # CA (Ceperley-Aldr) = PZ
                                    #    (Perdew-Zunger) - LDA - Default
                                    # PW92 (Perdew-Wang-92) - LDA
                                    # PBE (Perdew-Burke-Ernzerhof) - GGA
MeshCutoff            200.000000    Ry      # Default: 50.0 Ry ~ 0.444 Bohr
                                    #         100.0 Ry ~ 0.314 Bohr
MaxSCFIterations      500           # Default: 50
DM.MixingWeight       0.05          # Default: 0.25
DM.NumberPulay        10            # Default: 0
DM.PulayOnFile        F             # SystemLabel.P1, SystemLabel.P2
DM.Tolerance          1.d-4         # Default: 1.d-4
DM.UseSaveDM          .true.        # because of the bug
SCFMustConverge       .true.
NeglNonOverlapInt     F             # Default: F
#(5) Eigenvalue problem: order-N or diagonalization
SolutionMethod        Diagon        # or Transiesta
ElectronicTemperature 300.0 K       # Default: 300.0 K
#(6) Molecular dynamics and relaxations
#MD.TypeOfRun          CG            # Type of dynamics:
#MD.VariableCell       F
#MD.NumCGsteps         0           # 0 for single-point / 100 for gopt
#MD.MaxCGDispl         0.2 Bohr      # Default: 0.2 Bohr
#MD.MaxForceTol        0.02 eV/Ang   # Default: 0.04 eV/Ang
#MD.MaxStressTol       1.0 GPa       # Default: 1.0 GPa
# Geometry Constraints
#%block GeometryConstraints
#	position from 1 to 44
#%endblock GeometryConstraints
BandLinesScale   pi/a
%block BandLines
 1   0.00000000  0.00000000  0.00000000
50   0.00000000  0.07809418  0.00000000
50   0.04509075  0.07809242  0.00000000
20   0.00000000  0.00000000  0.00000000
%endblock BandLines
************************** End of input data file *****************************

reinit: -----------------------------------------------------------------------
reinit: System Name: GRP_doping
reinit: -----------------------------------------------------------------------
reinit: System Label: GRP_doping                                                  
reinit: -----------------------------------------------------------------------

initatom: Reading input for the pseudopotentials and atomic orbitals ----------
 Species number:            1  Label: N Atomic number:           7
 Species number:            2  Label: C Atomic number:           6
Ground state valence configuration:   2s02  2p03
Reading pseudopotential information in formatted form from N.psf

Valence configuration for pseudopotential generation:
2s( 2.00) rc: 1.48
2p( 3.00) rc: 1.48
3d( 0.00) rc: 1.48
4f( 0.00) rc: 1.48
Ground state valence configuration:   2s02  2p02
Reading pseudopotential information in formatted form from C.psf

Valence configuration for pseudopotential generation:
2s( 2.00) rc: 1.54
2p( 2.00) rc: 1.54
3d( 0.00) rc: 1.54
4f( 0.00) rc: 1.54
For N, standard SIESTA heuristics set lmxkb to 3
 (one more than the basis l, including polarization orbitals).
Use PS.lmax or PS.KBprojectors blocks to override.
For C, standard SIESTA heuristics set lmxkb to 3
 (one more than the basis l, including polarization orbitals).
Use PS.lmax or PS.KBprojectors blocks to override.

<basis_specs>
===============================================================================
N                    Z=   7    Mass=  14.010        Charge= 0.17977+309
Lmxo=1 Lmxkb= 3    BasisType=split      Semic=F
L=0  Nsemic=0  Cnfigmx=2
          n=1  nzeta=2  polorb=0
            splnorm:   0.15000    
               vcte:    0.0000    
               rinn:    0.0000    
                rcs:    0.0000      0.0000    
            lambdas:    1.0000      1.0000    
L=1  Nsemic=0  Cnfigmx=2
          n=1  nzeta=2  polorb=1
            splnorm:   0.15000    
               vcte:    0.0000    
               rinn:    0.0000    
                rcs:    0.0000      0.0000    
            lambdas:    1.0000      1.0000    
-------------------------------------------------------------------------------
L=0  Nkbl=1  erefs: 0.17977+309
L=1  Nkbl=1  erefs: 0.17977+309
L=2  Nkbl=1  erefs: 0.17977+309
L=3  Nkbl=1  erefs: 0.17977+309
===============================================================================
</basis_specs>

atom: Called for N                     (Z =   7)

read_vps: Pseudopotential generation method:
read_vps: ATM3      Troullier-Martins                       
Total valence charge:    5.00000

read_vps: Pseudopotential includes a core correction:
read_vps: Pseudo-core for xc-correction

xc_check: Exchange-correlation functional:
xc_check: GGA Perdew, Burke & Ernzerhof 1996
V l=0 = -2*Zval/r beyond r=  1.4606
V l=1 = -2*Zval/r beyond r=  1.4606
V l=2 = -2*Zval/r beyond r=  1.4606
V l=3 = -2*Zval/r beyond r=  1.4606
All V_l potentials equal beyond r=  1.4606
This should be close to max(r_c) in ps generation
All pots = -2*Zval/r beyond r=  1.4606

VLOCAL1: 99.0% of the norm of Vloc inside     20.347 Ry
VLOCAL1: 99.9% of the norm of Vloc inside     46.372 Ry
atom: Maximum radius for 4*pi*r*r*local-pseudopot. charge    1.76189
atom: Maximum radius for r*vlocal+2*Zval:    1.53550
GHOST: No ghost state for L =  0
GHOST: No ghost state for L =  1
GHOST: No ghost state for L =  2
GHOST: No ghost state for L =  3

KBgen: Kleinman-Bylander projectors: 
   l= 0   rc=  1.634559   el= -1.363963   Ekb=  5.296955   kbcos=  0.335621
   l= 1   rc=  1.614250   el= -0.521451   Ekb= -5.259161   kbcos= -0.433408
   l= 2   rc=  1.718383   el=  0.001991   Ekb= -1.271464   kbcos= -0.007566
   l= 3   rc=  1.761893   el=  0.003093   Ekb= -0.494769   kbcos= -0.001015

KBgen: Total number of  Kleinman-Bylander projectors:   16
atom: -------------------------------------------------------------------------

atom: SANKEY-TYPE ORBITALS:
atom: Selected multiple-zeta basis: split     

SPLIT: Orbitals with angular momentum L= 0

SPLIT: Basis orbitals for state 2s

SPLIT: PAO cut-off radius determined from an
SPLIT: energy shift=  0.007350 Ry

   izeta = 1
                 lambda =    1.000000
                     rc =    4.071465
                 energy =   -1.356470
                kinetic =    1.176977
    potential(screened) =   -2.533447
       potential(ionic) =   -8.057990

   izeta = 2
                 rmatch =    2.905100
              splitnorm =    0.150000
                 energy =   -1.158343
                kinetic =    1.813009
    potential(screened) =   -2.971352
       potential(ionic) =   -8.901931

SPLIT: Orbitals with angular momentum L= 1

SPLIT: Basis orbitals for state 2p

SPLIT: PAO cut-off radius determined from an
SPLIT: energy shift=  0.007350 Ry

   izeta = 1
                 lambda =    1.000000
                     rc =    4.972977
                 energy =   -0.513884
                kinetic =    3.441732
    potential(screened) =   -3.955616
       potential(ionic) =   -9.287901

   izeta = 2
                 rmatch =    3.054066
              splitnorm =    0.150000
                 energy =   -0.318226
                kinetic =    5.125348
    potential(screened) =   -5.443573
       potential(ionic) =  -11.380999

POLgen: Perturbative polarization orbital with L=  2

POLgen: Polarization orbital for state 2p

   izeta = 1
                     rc =    4.972977
                 energy =    1.607437
                kinetic =    3.268125
    potential(screened) =   -1.660688
       potential(ionic) =   -5.973652
atom: Total number of Sankey-type orbitals: 13

atm_pop: Valence configuration (for local Pseudopot. screening):
 2s( 2.00)                                                            
 2p( 3.00)                                                            
Vna: chval, zval:    5.00000   5.00000

Vna:  Cut-off radius for the neutral-atom potential:   4.972977
comcore: Pseudo-core radius Rcore=  1.554824

atom: _________________________________________________________________________

<basis_specs>
===============================================================================
C                    Z=   6    Mass=  12.010        Charge= 0.17977+309
Lmxo=1 Lmxkb= 3    BasisType=split      Semic=F
L=0  Nsemic=0  Cnfigmx=2
          n=1  nzeta=2  polorb=0
            splnorm:   0.15000    
               vcte:    0.0000    
               rinn:    0.0000    
                rcs:    0.0000      0.0000    
            lambdas:    1.0000      1.0000    
L=1  Nsemic=0  Cnfigmx=2
          n=1  nzeta=2  polorb=1
            splnorm:   0.15000    
               vcte:    0.0000    
               rinn:    0.0000    
                rcs:    0.0000      0.0000    
            lambdas:    1.0000      1.0000    
-------------------------------------------------------------------------------
L=0  Nkbl=1  erefs: 0.17977+309
L=1  Nkbl=1  erefs: 0.17977+309
L=2  Nkbl=1  erefs: 0.17977+309
L=3  Nkbl=1  erefs: 0.17977+309
===============================================================================
</basis_specs>

atom: Called for C                     (Z =   6)

read_vps: Pseudopotential generation method:
read_vps: ATM3      Troullier-Martins                       
Total valence charge:    4.00000

read_vps: Pseudopotential includes a core correction:
read_vps: Pseudo-core for xc-correction

xc_check: Exchange-correlation functional:
xc_check: GGA Perdew, Burke & Ernzerhof 1996
V l=0 = -2*Zval/r beyond r=  1.5227
V l=1 = -2*Zval/r beyond r=  1.5227
V l=2 = -2*Zval/r beyond r=  1.5227
V l=3 = -2*Zval/r beyond r=  1.5038
All V_l potentials equal beyond r=  1.5227
This should be close to max(r_c) in ps generation
All pots = -2*Zval/r beyond r=  1.5227

VLOCAL1: 99.0% of the norm of Vloc inside     18.722 Ry
VLOCAL1: 99.9% of the norm of Vloc inside     42.668 Ry
atom: Maximum radius for 4*pi*r*r*local-pseudopot. charge    1.83678
atom: Maximum radius for r*vlocal+2*Zval:    1.58088
GHOST: No ghost state for L =  0
GHOST: No ghost state for L =  1
GHOST: No ghost state for L =  2
GHOST: No ghost state for L =  3

KBgen: Kleinman-Bylander projectors: 
   l= 0   rc=  1.704034   el= -1.009801   Ekb=  5.335044   kbcos=  0.316824
   l= 1   rc=  1.704034   el= -0.388707   Ekb= -3.785862   kbcos= -0.366464
   l= 2   rc=  1.791422   el=  0.001971   Ekb= -0.970471   kbcos= -0.009212
   l= 3   rc=  1.859892   el=  0.003065   Ekb= -0.399525   kbcos= -0.001223

KBgen: Total number of  Kleinman-Bylander projectors:   16
atom: -------------------------------------------------------------------------

atom: SANKEY-TYPE ORBITALS:
atom: Selected multiple-zeta basis: split     

SPLIT: Orbitals with angular momentum L= 0

SPLIT: Basis orbitals for state 2s

SPLIT: PAO cut-off radius determined from an
SPLIT: energy shift=  0.007350 Ry

   izeta = 1
                 lambda =    1.000000
                     rc =    4.632753
                 energy =   -1.002270
                kinetic =    0.855760
    potential(screened) =   -1.858031
       potential(ionic) =   -5.417575

   izeta = 2
                 rmatch =    3.431921
              splitnorm =    0.150000
                 energy =   -0.867111
                kinetic =    1.300804
    potential(screened) =   -2.167915
       potential(ionic) =   -5.962684

SPLIT: Orbitals with angular momentum L= 1

SPLIT: Basis orbitals for state 2p

SPLIT: PAO cut-off radius determined from an
SPLIT: energy shift=  0.007350 Ry

   izeta = 1
                 lambda =    1.000000
                     rc =    5.658549
                 energy =   -0.381140
                kinetic =    2.399701
    potential(screened) =   -2.780841
       potential(ionic) =   -6.206085

   izeta = 2
                 rmatch =    3.653288
              splitnorm =    0.150000
                 energy =   -0.249149
                kinetic =    3.542762
    potential(screened) =   -3.791911
       potential(ionic) =   -7.581078

POLgen: Perturbative polarization orbital with L=  2

POLgen: Polarization orbital for state 2p

   izeta = 1
                     rc =    5.658549
                 energy =    1.109913
                kinetic =    2.304789
    potential(screened) =   -1.194876
       potential(ionic) =   -4.013592
atom: Total number of Sankey-type orbitals: 13

atm_pop: Valence configuration (for local Pseudopot. screening):
 2s( 2.00)                                                            
 2p( 2.00)                                                            
Vna: chval, zval:    4.00000   4.00000

Vna:  Cut-off radius for the neutral-atom potential:   5.658549
comcore: Pseudo-core radius Rcore=  1.791422

atom: _________________________________________________________________________

prinput: Basis input ----------------------------------------------------------

PAO.BasisType split     

%block ChemicalSpeciesLabel
    1    7 N                       # Species index, atomic number, species label
    2    6 C                       # Species index, atomic number, species label
%endblock ChemicalSpeciesLabel

%block PAO.Basis                 # Define Basis set
N                     2                    # Species label, number of l-shells
 n=2   0   2                         # n, l, Nzeta 
   4.071      2.905   
   1.000      1.000   
 n=2   1   2 P   1                   # n, l, Nzeta, Polarization, NzetaPol
   4.973      3.054   
   1.000      1.000   
C                     2                    # Species label, number of l-shells
 n=2   0   2                         # n, l, Nzeta 
   4.633      3.432   
   1.000      1.000   
 n=2   1   2 P   1                   # n, l, Nzeta, Polarization, NzetaPol
   5.659      3.653   
   1.000      1.000   
%endblock PAO.Basis

prinput: ----------------------------------------------------------------------

coor:   Atomic-coordinates input format  =     Fractional

siesta: Atomic coordinates (Bohr) and species
siesta:     -2.35420  38.89134   0.00000  1        1
siesta:     -2.35420  41.57980   0.00000  1        2
siesta:      2.30256  38.89134   0.00000  1        3
siesta:      2.30256  41.57980   0.00000  1        4
siesta:     -4.68258  34.85847   0.00000  1        5
siesta:     -4.68258  37.54693   0.00000  1        6
siesta:     -7.01096  22.75985   0.00000  1        7
siesta:     -7.01096  25.44831   0.00000  1        8
siesta:    -11.66772  22.75985   0.00000  1        9
siesta:    -11.66772  25.44831   0.00000  1       10
siesta:     -9.33934  26.79272   0.00000  1       11
siesta:     -9.33934  29.48119   0.00000  1       12
siesta:     -0.02582  29.48119   0.00000  1       13
siesta:     -4.68258  26.79272   0.00000  1       14
siesta:     -4.68258  29.48119   0.00000  1       15
siesta:     -2.35420  30.82560   0.00000  1       16
siesta:     -2.35420  33.51406   0.00000  1       17
siesta:     -7.01096  30.82560   0.00000  1       18
siesta:     -7.01096  33.51406   0.00000  1       19
siesta:     -0.02582  34.85847   0.00000  1       20
siesta:     -0.02582  37.54693   0.00000  1       21
siesta:     -0.02582  42.92421   0.00000  1       22
siesta:     -0.02582   2.59549   0.00000  2       23
siesta:     -0.02582   5.28395   0.00000  2       24
siesta:      4.63094  34.85847   0.00000  2       25
siesta:      4.63094  37.54693   0.00000  2       26
siesta:      6.95932  30.82560   0.00000  2       27
siesta:      6.95932  33.51406   0.00000  2       28
siesta:      9.28770  26.79272   0.00000  2       29
siesta:      9.28770  29.48119   0.00000  2       30
siesta:      2.30256   6.62836   0.00000  2       31
siesta:      2.30256   9.31683   0.00000  2       32
siesta:      4.63094  10.66124   0.00000  2       33
siesta:      4.63094  13.34970   0.00000  2       34
siesta:      6.95932  14.69411   0.00000  2       35
siesta:      6.95932  17.38257   0.00000  2       36
siesta:      9.28770  18.72698   0.00000  2       37
siesta:      9.28770  21.41544   0.00000  2       38
siesta:     11.61608  22.75985   0.00000  2       39
siesta:     11.61608  25.44831   0.00000  2       40
siesta:     -2.35420   6.62836   0.00000  2       41
siesta:     -2.35420   9.31683   0.00000  2       42
siesta:     -0.02582  10.66124   0.00000  2       43
siesta:     -0.02582  13.34970   0.00000  2       44
siesta:      2.30256  14.69411   0.00000  2       45
siesta:      2.30256  17.38257   0.00000  2       46
siesta:      4.63094  18.72698   0.00000  2       47
siesta:      4.63094  21.41544   0.00000  2       48
siesta:      6.95932  22.75985   0.00000  2       49
siesta:      6.95932  25.44831   0.00000  2       50
siesta:     -4.68258  10.66124   0.00000  2       51
siesta:     -4.68258  13.34970   0.00000  2       52
siesta:     -2.35420  14.69411   0.00000  2       53
siesta:     -2.35420  17.38257   0.00000  2       54
siesta:     -0.02582  18.72698   0.00000  2       55
siesta:     -0.02582  21.41544   0.00000  2       56
siesta:      2.30256  22.75985   0.00000  2       57
siesta:      2.30256  25.44831   0.00000  2       58
siesta:     -7.01096  14.69411   0.00000  2       59
siesta:     -7.01096  17.38257   0.00000  2       60
siesta:     -4.68258  18.72698   0.00000  2       61
siesta:     -4.68258  21.41544   0.00000  2       62
siesta:     -2.35420  22.75985   0.00000  2       63
siesta:     -2.35420  25.44831   0.00000  2       64
siesta:     -9.33934  18.72698   0.00000  2       65
siesta:     -9.33934  21.41544   0.00000  2       66
siesta:      4.63094  26.79272   0.00000  2       67
siesta:      4.63094  29.48119   0.00000  2       68
siesta:     -0.02582  26.79272   0.00000  2       69
siesta:      2.30256  30.82560   0.00000  2       70
siesta:      2.30256  33.51406   0.00000  2       71
siesta:     -0.02582  45.61267   0.00000  2       72

siesta: System type = slab      

initatomlists: Number of atoms, orbitals, and projectors:     72   936  1152

siesta: ******************** Simulation parameters ****************************
siesta:
siesta: The following are some of the parameters of the simulation.
siesta: A complete list of the parameters used, including default values,
siesta: can be found in file out.fdf
siesta:
redata: Non-Collinear-spin run           =     F
redata: SpinPolarized (Up/Down) run      =     F
redata: Number of spin components        =     1
redata: Long output                      =     F
redata: Number of Atomic Species         =        2
redata: Charge density info will appear in .RHO file
redata: Write Mulliken Pop.              =     NO
redata: Mesh Cutoff                      =   200.0000  Ry
redata: Net charge of the system         =     0.0000 |e|
redata: Max. number of SCF Iter          =      500
redata: SCF convergence failure will abort job
redata: Performing Pulay mixing using    =    10 iterations
redata: Mix DM in first SCF step ?       =     F
redata: Write Pulay info on disk?        =     F
redata: Discard 1st Pulay DM after  kick =     F
redata: New DM Mixing Weight             =     0.0500
redata: New DM Occupancy tolerance       = 0.000000000001
redata: No kicks to SCF
redata: DM Mixing Weight for Kicks       =     0.5000
redata: DM Tolerance for SCF             =     0.000100
redata: Require Energy convergence for SCF =     F
redata: DM Energy tolerance for SCF      =     0.000100 eV
redata: Require Harris convergence for SCF =     F
redata: DM Harris energy tolerance for SCF =     0.000100 eV
redata: Using Saved Data (generic)   =     F
redata: Use continuation files for DM    =     T
redata: Neglect nonoverlap interactions  =     F
redata: Method of Calculation            =     Diagonalization
redata: Divide and Conquer               =     T
redata: Electronic Temperature           =     0.0019  Ry
redata: Fix the spin of the system       =     F
redata: Dynamics option                  =     Verlet MD run
redata: Initial MD time step             =        1
redata:   Final MD time step             =        1
redata: Length of MD time step           =     1.0000  fs
redata: Initial Temperature of MD run    =     0.0000  K
redata: Perform a MD quench              =     F
redata: ***********************************************************************
Total number of electrons:   310.000000
Total ionic charge:   310.000000

* ProcessorY, Blocksize:    2  24

k-point displ. along   1 input, could be:     0.50    0.00
k-point displ. along   2 input, could be:     0.50    0.00
 Kpoints in:          231 . Kpoints trimmed:          231

siesta: k-grid: Number of k-points =   231
siesta: k-grid: Cutoff (effective) =     5.000 Ang
siesta: k-grid: Supercell and displacements
siesta: k-grid:   21   0   0      0.500
siesta: k-grid:    0  21   0      0.500
siesta: k-grid:    0   0   1      0.000
Naive supercell factors:     2    2    2

superc: Internal auxiliary supercell:     2 x     2 x     2  =       8
superc: Number of atoms, orbitals, and projectors:    576   7488   9216

* Maximum dynamic memory allocated =     4 MB

siesta:                 ==============================
                            Begin MD step =      1
                        ==============================

superc: Internal auxiliary supercell:     2 x     2 x     2  =       8
superc: Number of atoms, orbitals, and projectors:    576   7488   9216

outcell: Unit cell vectors (Ang):
       12.804619    7.392750    0.000000
        0.000000   14.785500    0.000000
        0.000000    0.000000   10.000000

outcell: Cell vector modules (Ang)   :   14.785500   14.785500   10.000000
outcell: Cell angles (23,13,12) (deg):     90.0000     90.0000     60.0000
outcell: Cell volume (Ang**3)        :   1893.2269
New_DM. Step:     1
Initializing Density Matrix...

InitMesh: MESH =   120 x   120 x    90 =     1296000
InitMesh: Mesh cutoff (required, used) =   200.000   223.865 Ry

* Maximum dynamic memory allocated =   178 MB

stepf: Fermi-Dirac step function

siesta: Program's energy decomposition (eV):
siesta: Ebs     =     -6360.940179
siesta: Eions   =     21939.441643
siesta: Ena     =      4957.846353
siesta: Ekin    =      8224.476411
siesta: Enl     =       -18.484738
siesta: DEna    =        -0.000015
siesta: DUscf   =         0.000000
siesta: DUext   =         0.000000
siesta: Exc     =     -4730.647192
siesta: eta*DQ  =         0.000000
siesta: Emadel  =         0.000000
siesta: Emeta   =         0.000000
siesta: Emolmec =         0.000000
siesta: Ekinion =         0.000000
siesta: Eharris =    -13113.580981
siesta: Etot    =    -13506.250824
siesta: FreeEng =    -13506.250824

siesta: iscf   Eharris(eV)      E_KS(eV)   FreeEng(eV)   dDmax  Ef(eV)
siesta:    1   -13113.5810   -13506.2508   -13506.2508  5.9153 -6.8257
timer: Routine,Calls,Time,% = IterSCF        1    3359.691  99.69
elaps: Routine,Calls,Wall,% = IterSCF        1     420.787  99.69
siesta:    2   -16117.2033   -12610.2406   -12610.3083 14.9254 -1.8016
siesta:    3   -13003.0257   -13291.1041   -13291.1338  2.3240 -5.0361
siesta:    4   -12982.8884   -13137.6667   -13137.7229  0.9268 -4.1818
siesta:    5   -12961.7051   -13081.3910   -13081.3921  0.9281 -3.9179
siesta:    6   -12958.5663   -13061.5098   -13061.5400  0.8004 -4.0077
siesta:    7   -12957.2495   -13049.1468   -13049.1995  0.7816 -3.9608
siesta:    8   -12955.3342   -13029.3922   -13029.4483  0.6491 -4.0159
siesta:    9   -12955.0408   -12998.9731   -12999.0332  0.4699 -4.0182
siesta:   10   -12954.5085   -12979.6445   -12979.7033  0.3606 -3.9444
siesta:   11   -12954.0086   -12967.3843   -12967.4674  0.3362 -3.9539
siesta:   12   -12953.9781   -12949.2129   -12949.2800  0.3065 -3.8647
siesta:   13   -12953.7513   -12944.9175   -12944.9906  0.2308 -3.8794
siesta:   14   -12953.4837   -12945.8109   -12945.8950  0.5381 -3.8744
siesta:   15   -12953.1701   -12946.6453   -12946.7355  0.2188 -3.8884
siesta:   16   -12953.0727   -12947.3105   -12947.3997  0.1026 -3.9008
siesta:   17   -12953.0338   -12947.6815   -12947.7733  0.1100 -3.9082
siesta:   18   -12953.0247   -12948.7293   -12948.8190  0.1381 -3.9089
siesta:   19   -12952.9922   -12949.0653   -12949.1547  0.0497 -3.9210
siesta:   20   -12952.9860   -12949.8105   -12949.8987  0.0307 -3.9217
siesta:   21   -12952.9859   -12950.4472   -12950.5370  0.0431 -3.9218
siesta:   22   -12952.9819   -12950.6410   -12950.7328  0.0437 -3.9228
siesta:   23   -12952.9790   -12950.6501   -12950.7415  0.0229 -3.9220
siesta:   24   -12952.9787   -12950.8584   -12950.9501  0.0157 -3.9209
siesta:   25   -12952.9777   -12951.1247   -12951.2159  0.0135 -3.9198
siesta:   26   -12952.9779   -12952.0298   -12952.1215  0.0120 -3.9195
siesta:   27   -12952.9779   -12952.3366   -12952.4279  0.0052 -3.9202
siesta:   28   -12952.9776   -12952.5003   -12952.5915  0.0037 -3.9208
siesta:   29   -12952.9774   -12952.6963   -12952.7876  0.0017 -3.9215
siesta:   30   -12952.9775   -12952.7400   -12952.8314  0.0012 -3.9216
siesta:   31   -12952.9775   -12952.7579   -12952.8491  0.0016 -3.9216
siesta:   32   -12952.9776   -12952.8422   -12952.9335  0.0009 -3.9218
siesta:   33   -12952.9776   -12952.8718   -12952.9629  0.0010 -3.9219
siesta:   34   -12952.9775   -12952.9083   -12952.9994  0.0005 -3.9220
siesta:   35   -12952.9775   -12952.9296   -12953.0208  0.0003 -3.9222
siesta:   36   -12952.9775   -12952.9416   -12953.0328  0.0003 -3.9222
siesta:   37   -12952.9775   -12952.9442   -12953.0355  0.0002 -3.9222
siesta:   38   -12952.9775   -12952.9509   -12953.0422  0.0002 -3.9221
siesta:   39   -12952.9775   -12952.9553   -12953.0465  0.0001 -3.9221
siesta:   40   -12952.9775   -12952.9623   -12953.0535  0.0001 -3.9221
siesta:   41   -12952.9775   -12952.9735   -12953.0647  0.0000 -3.9221

siesta: E_KS(eV) =           -12952.9769

siesta: E_KS - E_eggbox =    -12952.9769

siesta: Atomic forces (eV/Ang):
----------------------------------------
   Tot   -0.300891   -0.068097    0.000000
----------------------------------------
   Max  683.748887
   Res  183.720687    sqrt( Sum f_i^2 / 3N )
----------------------------------------
   Max  683.748887    constrained

Stress-tensor-Voigt (kbar):     -636.21    -3338.91       -0.07       18.49        0.00        0.00
(Free)E + p*V (eV/cell)   -11387.3162
Target enthalpy (eV/cell)   -12953.0681

siesta: Stress tensor (static) (eV/Ang**3):
        -0.397084    0.011540    0.000000
         0.011540   -2.083959    0.000000
         0.000000    0.000000   -0.000041

siesta: Pressure (static):       1325.05953240  kBar

siesta: Stress tensor (total) (eV/Ang**3):
        -0.397084    0.011540    0.000000
         0.011540   -2.083959    0.000000
         0.000000    0.000000   -0.000041

siesta: Pressure (total):       1325.05953240  kBar

siesta: Temp_ion =       0.000 K

* Maximum dynamic memory allocated =   195 MB
Computing bands...

siesta: Program's energy decomposition (eV):
siesta: Ebs     =     -5068.873194
siesta: Eions   =     21939.441643
siesta: Ena     =      4957.846353
siesta: Ekin    =     11430.449655
siesta: Enl     =     -1760.828971
siesta: DEna    =      -839.465989
siesta: DUscf   =       115.011554
siesta: DUext   =         0.000000
siesta: Exc     =     -4916.547861
siesta: eta*DQ  =         0.000000
siesta: Emadel  =         0.000000
siesta: Emeta   =         0.000000
siesta: Emolmec =         0.000000
siesta: Ekinion =         0.000000
siesta: Eharris =    -12952.977507
siesta: Etot    =    -12952.976903
siesta: FreeEng =    -12953.068134

siesta: Final energy (eV):
siesta:  Band Struct. =   -5068.873194
siesta:       Kinetic =   11430.449655
siesta:       Hartree =   37102.493444
siesta:    Ext. field =       0.000000
siesta:   Exch.-corr. =   -4916.547861
siesta:  Ion-electron =  -85107.105931
siesta:       Ion-ion =   28537.733791
siesta:       Ekinion =       0.000000
siesta:         Total =  -12952.976903

siesta: Atomic forces (eV/Ang):
siesta:      1    0.851255  107.809825    0.000000
siesta:      2  -24.606884 -656.674432    0.000000
siesta:      3    3.378574  105.873992    0.000000
siesta:      4   21.445891 -655.214702    0.000000
siesta:      5  -31.423252    8.325191    0.000000
siesta:      6  -27.062330 -657.582052    0.000000
siesta:      7    0.762586   -1.294628    0.000000
siesta:      8    0.161481    0.369710    0.000000
siesta:      9    1.800012    3.131353    0.000000
siesta:     10    0.717973   -2.184339    0.000000
siesta:     11    0.701519    0.439066    0.000000
siesta:     12    0.275797    0.109992    0.000000
siesta:     13   23.377620 -680.197860    0.000000
siesta:     14    0.488864   -0.647300    0.000000
siesta:     15   -2.343202   -2.503305    0.000000
siesta:     16  -36.754892   11.847467    0.000000
siesta:     17    2.938169 -680.547539    0.000000
siesta:     18   -1.329651   -0.787856    0.000000
siesta:     19   -1.302830   -3.366552    0.000000
siesta:     20    2.881335  107.157163    0.000000
siesta:     21   -1.944122 -665.762539    0.000000
siesta:     22   -1.015674  126.332116    0.000000
siesta:     23  -11.498345  644.555408    0.000000
siesta:     24    1.346430 -118.267630    0.000000
siesta:     25   27.603133    3.955032    0.000000
siesta:     26   33.022882 -554.948894    0.000000
siesta:     27    2.004077    0.144486    0.000000
siesta:     28   -3.508402    1.816112    0.000000
siesta:     29    2.167295    2.446360    0.000000
siesta:     30   -1.431980   -0.176566    0.000000
siesta:     31   -4.412929  546.210246    0.000000
siesta:     32   -0.022679 -120.794234    0.000000
siesta:     33   18.765421  551.205755    0.000000
siesta:     34   26.297813   -3.499288    0.000000
siesta:     35   -3.381666   -1.881026    0.000000
siesta:     36    1.623138    0.400511    0.000000
siesta:     37   -1.632583    0.242010    0.000000
siesta:     38    1.849210   -2.679515    0.000000
siesta:     39    0.156531    7.934802    0.000000
siesta:     40   -0.273884   -7.775456    0.000000
siesta:     41  -23.771080  654.418042    0.000000
siesta:     42    2.273046 -115.281729    0.000000
siesta:     43   -4.179396  673.647990    0.000000
siesta:     44   -0.386718 -116.089095    0.000000
siesta:     45    5.637429  680.870657    0.000000
siesta:     46   24.599283   -3.358913    0.000000
siesta:     47   -1.265263    2.857968    0.000000
siesta:     48    0.745102   -0.416628    0.000000
siesta:     49   -0.246495    0.566667    0.000000
siesta:     50   -0.192069   -0.628638    0.000000
siesta:     51  -20.766994  658.055957    0.000000
siesta:     52  -26.330161   -3.761651    0.000000
siesta:     53   -1.897751  683.748887    0.000000
siesta:     54  -24.267706   -3.291457    0.000000
siesta:     55    0.028650  570.076171    0.000000
siesta:     56   -0.359217    2.066395    0.000000
siesta:     57   -0.472203    0.007383    0.000000
siesta:     58    0.116566    0.037826    0.000000
siesta:     59    2.341515   -0.789700    0.000000
siesta:     60   -1.462826   -0.367651    0.000000
siesta:     61    1.135769    3.309730    0.000000
siesta:     62   -1.990047    0.256890    0.000000
siesta:     63    0.421772    0.023571    0.000000
siesta:     64   -1.193288    1.720787    0.000000
siesta:     65    0.107868    1.169934    0.000000
siesta:     66   -1.596541    0.291123    0.000000
siesta:     67    0.392393    0.513817    0.000000
siesta:     68   -0.955996   -2.950078    0.000000
siesta:     69   -0.349792    0.129343    0.000000
siesta:     70   25.295700    7.248951    0.000000
siesta:     71   27.851026 -560.968887    0.000000
siesta:     72   -0.235170 -546.702647    0.000000
siesta: ----------------------------------------
siesta:    Tot   -0.300891   -0.068097    0.000000

siesta: Stress tensor (static) (eV/Ang**3):
siesta:    -0.397084    0.011540    0.000000
siesta:     0.011540   -2.083959    0.000000
siesta:     0.000000    0.000000   -0.000041

siesta: Cell volume =       1893.226884 Ang**3

siesta: Pressure (static):
siesta:                Solid            Molecule  Units
siesta:           0.00900739          0.14695021  Ry/Bohr**3
siesta:           0.82702817         13.49246809  eV/Ang**3
siesta:        1325.05953240      21617.55076853  kBar
(Free)E+ p_basis*V_orbitals  =      -12925.475715
(Free)Eharris+ p_basis*V_orbitals  =      -12925.479713

siesta: Electric dipole (a.u.)  =    0.000000    0.000000    0.000000
siesta: Electric dipole (Debye) =    0.000000    0.000000    0.000000

* Maximum dynamic memory allocated : Node    0 =   195 MB
* Maximum dynamic memory allocated : Node    1 =    71 MB
* Maximum dynamic memory allocated : Node    2 =    72 MB
* Maximum dynamic memory allocated : Node    3 =   183 MB
* Maximum dynamic memory allocated : Node    4 =   190 MB
* Maximum dynamic memory allocated : Node    5 =    71 MB
* Maximum dynamic memory allocated : Node    6 =    74 MB
* Maximum dynamic memory allocated : Node    7 =   176 MB

* Maximum memory occured during matrixMtoO                    

timer: CPU execution times:
timer:  Routine       Calls   Time/call    Tot.time        %
timer:  siesta            1  136233.126  136233.126   100.00
timer:  Setup             1       2.857       2.857     0.00
timer:  bands             3     243.884     731.652     0.54
timer:  writewave         1       0.019       0.019     0.00
timer:  KSV_init          1       0.004       0.004     0.00
timer:  IterMD            1  135493.400  135493.400    99.46
timer:  hsparse           1       0.283       0.283     0.00
timer:  overlap           1       7.119       7.119     0.01
timer:  IterSCF          41    3301.251  135351.285    99.35
timer:  kinefsm           2       3.665       7.331     0.01
timer:  nlefsm            2      17.263      34.526     0.03
timer:  DHSCF            42      69.821    2932.503     2.15
timer:  DHSCF1            1       0.744       0.744     0.00
timer:  DHSCF2            1      29.694      29.694     0.02
timer:  REORD           338       0.005       1.665     0.00
timer:  POISON           43       0.876      37.656     0.03
timer:  DHSCF3           42      68.418    2873.546     2.11
timer:  rhoofd           42      15.169     637.081     0.47
timer:  cellXC           42       3.353     140.812     0.10
timer:  vmat             42      31.554    1325.248     0.97
timer:  MolMec            2       0.000       0.000     0.00
timer:  diagon           41    3230.682  132457.951    97.23
timer:  c-eigval       9592       6.028   57822.870    42.44
timer:  c-buildHS      9592       0.047     446.452     0.33
timer:  cdiag         19063       6.167  117567.302    86.30
timer:  cdiag1        19063       0.384    7311.679     5.37
timer:  cdiag2        19063       1.765   33650.022    24.70
timer:  cdiag3        19063       3.739   71268.163    52.31
timer:  cdiag4        19063       0.152    2901.727     2.13
timer:  c-eigvec       9471       6.392   60541.960    44.44
timer:  c-buildD       9471       1.560   14776.487    10.85
timer:  DHSCF4            1      27.693      27.693     0.02
timer:  dfscf             1      25.834      25.834     0.02
timer:  overfsm           1       0.381       0.381     0.00
timer:  optical           1       4.555       4.555     0.00
  

elaps: ELAPSED times:
elaps:  Routine       Calls   Time/call    Tot.time        %
elaps:  siesta            1   17061.656   17061.656   100.00
elaps:  Setup             1       0.357       0.357     0.00
elaps:  bands             3      30.561      91.683     0.54
elaps:  writewave         1       0.002       0.002     0.00
elaps:  KSV_init          1       0.000       0.000     0.00
elaps:  IterMD            1   16969.014   16969.014    99.46
elaps:  hsparse           1       0.038       0.038     0.00
elaps:  overlap           1       0.895       0.895     0.01
elaps:  IterSCF          41     413.444   16951.217    99.35
elaps:  kinefsm           2       0.463       0.927     0.01
elaps:  nlefsm            2       2.229       4.458     0.03
elaps:  DHSCF            42       8.826     370.685     2.17
elaps:  DHSCF1            1       0.095       0.095     0.00
elaps:  DHSCF2            1       3.722       3.722     0.02
elaps:  REORD           338       0.001       0.234     0.00
elaps:  POISON           43       0.110       4.731     0.03
elaps:  DHSCF3           42       8.570     359.920     2.11
elaps:  rhoofd           42       4.007     168.276     0.99
elaps:  cellXC           42       0.419      17.614     0.10
elaps:  vmat             42       3.952     165.990     0.97
elaps:  MolMec            2       0.000       0.000     0.00
elaps:  diagon           41     404.615   16589.205    97.23
elaps:  c-eigval       9592       0.755    7241.608    42.44
elaps:  c-buildHS      9592       0.007      63.075     0.37
elaps:  cdiag         19063       0.767   14625.541    85.72
elaps:  cdiag1        19063       0.048     914.864     5.36
elaps:  cdiag2        19063       0.221    4215.274    24.71
elaps:  cdiag3        19063       0.469    8937.209    52.38
elaps:  cdiag4        19063       0.019     361.293     2.12
elaps:  c-eigvec       9471       0.792    7497.072    43.94
elaps:  c-buildD       9471       0.204    1935.488    11.34
elaps:  DHSCF4            1       6.845       6.845     0.04
elaps:  dfscf             1       6.457       6.457     0.04
elaps:  overfsm           1       0.051       0.051     0.00
elaps:  optical           1       0.000       0.000     0.00
  
>> End of run:  26-APR-2016  22:40:41
