Siesta Version:                                        siesta-3.2-pl-3
Architecture  : x86_64-unknown-linux-gnu--unknown
Compiler flags: mpiifort -g -O2 -fPIC -xSSE4.1 -fp-model source -shared-intel 
PARALLEL version

* Running on   12 nodes in parallel
>> Start of run:   4-MAY-2016  12:32:18

                           ***********************       
                           *  WELCOME TO SIESTA  *       
                           ***********************       

reinit: Reading from standard input
************************** Dump of input data file ****************************
#(1) General system descriptors
SystemName            GRP_doping    # Descriptive name of the system
SystemLabel           GRP_doping    # Short name for naming files
%include STRUCT.fdf
%include KPT.fdf
%include BASIS.fdf
#%include TS.fdf # for transiesta calculation
#(4) DFT, Grid, SCF
XC.functional         GGA           # LDA or GGA (default = LDA)
XC.authors            PBE           # CA (Ceperley-Aldr) = PZ
                                    #    (Perdew-Zunger) - LDA - Default
                                    # PW92 (Perdew-Wang-92) - LDA
                                    # PBE (Perdew-Burke-Ernzerhof) - GGA
MeshCutoff            200.000000    Ry      # Default: 50.0 Ry ~ 0.444 Bohr
                                    #         100.0 Ry ~ 0.314 Bohr
MaxSCFIterations      500           # Default: 50
DM.MixingWeight       0.05          # Default: 0.25
DM.NumberPulay        10            # Default: 0
DM.PulayOnFile        F             # SystemLabel.P1, SystemLabel.P2
DM.Tolerance          1.d-4         # Default: 1.d-4
DM.UseSaveDM          .true.        # because of the bug
SCFMustConverge       .true.
NeglNonOverlapInt     F             # Default: F
#(5) Eigenvalue problem: order-N or diagonalization
SolutionMethod        Diagon        # or Transiesta
ElectronicTemperature 300.0 K       # Default: 300.0 K
#(6) Molecular dynamics and relaxations
#MD.TypeOfRun          CG            # Type of dynamics:
#MD.VariableCell       F
#MD.NumCGsteps         0           # 0 for single-point / 100 for gopt
#MD.MaxCGDispl         0.2 Bohr      # Default: 0.2 Bohr
#MD.MaxForceTol        0.02 eV/Ang   # Default: 0.04 eV/Ang
#MD.MaxStressTol       1.0 GPa       # Default: 1.0 GPa
# Geometry Constraints
#%block GeometryConstraints
#	position from 1 to 44
#%endblock GeometryConstraints
BandLinesScale   pi/a
%block BandLines
 1   0.00000000  0.00000000  0.00000000
50   0.00000000  0.07809418  0.00000000
50   0.04509075  0.07809242  0.00000000
20   0.00000000  0.00000000  0.00000000
%endblock BandLines
************************** End of input data file *****************************

reinit: -----------------------------------------------------------------------
reinit: System Name: GRP_doping
reinit: -----------------------------------------------------------------------
reinit: System Label: GRP_doping                                                  
reinit: -----------------------------------------------------------------------

initatom: Reading input for the pseudopotentials and atomic orbitals ----------
 Species number:            1  Label: B Atomic number:           5
 Species number:            2  Label: C Atomic number:           6
Ground state valence configuration:   2s02  2p01
Reading pseudopotential information in formatted form from B.psf

Valence configuration for pseudopotential generation:
2s( 2.00) rc: 1.74
2p( 1.00) rc: 1.74
3d( 0.00) rc: 1.74
4f( 0.00) rc: 1.74
Ground state valence configuration:   2s02  2p02
Reading pseudopotential information in formatted form from C.psf

Valence configuration for pseudopotential generation:
2s( 2.00) rc: 1.54
2p( 2.00) rc: 1.54
3d( 0.00) rc: 1.54
4f( 0.00) rc: 1.54
For B, standard SIESTA heuristics set lmxkb to 3
 (one more than the basis l, including polarization orbitals).
Use PS.lmax or PS.KBprojectors blocks to override.
For C, standard SIESTA heuristics set lmxkb to 3
 (one more than the basis l, including polarization orbitals).
Use PS.lmax or PS.KBprojectors blocks to override.

<basis_specs>
===============================================================================
B                    Z=   5    Mass=  10.810        Charge= 0.17977+309
Lmxo=1 Lmxkb= 3    BasisType=split      Semic=F
L=0  Nsemic=0  Cnfigmx=2
          n=1  nzeta=2  polorb=0
            splnorm:   0.15000    
               vcte:    0.0000    
               rinn:    0.0000    
                rcs:    0.0000      0.0000    
            lambdas:    1.0000      1.0000    
L=1  Nsemic=0  Cnfigmx=2
          n=1  nzeta=2  polorb=1
            splnorm:   0.15000    
               vcte:    0.0000    
               rinn:    0.0000    
                rcs:    0.0000      0.0000    
            lambdas:    1.0000      1.0000    
-------------------------------------------------------------------------------
L=0  Nkbl=1  erefs: 0.17977+309
L=1  Nkbl=1  erefs: 0.17977+309
L=2  Nkbl=1  erefs: 0.17977+309
L=3  Nkbl=1  erefs: 0.17977+309
===============================================================================
</basis_specs>

atom: Called for B                     (Z =   5)

read_vps: Pseudopotential generation method:
read_vps: ATM3      Troullier-Martins                       
Total valence charge:    3.00000

read_vps: Pseudopotential includes a core correction:
read_vps: Pseudo-core for xc-correction

xc_check: Exchange-correlation functional:
xc_check: GGA Perdew, Burke & Ernzerhof 1996
V l=0 = -2*Zval/r beyond r=  1.7165
V l=1 = -2*Zval/r beyond r=  1.7165
V l=2 = -2*Zval/r beyond r=  1.7165
V l=3 = -2*Zval/r beyond r=  1.6951
All V_l potentials equal beyond r=  1.7165
This should be close to max(r_c) in ps generation
All pots = -2*Zval/r beyond r=  1.7165

VLOCAL1: 99.0% of the norm of Vloc inside     14.733 Ry
VLOCAL1: 99.9% of the norm of Vloc inside     33.577 Ry
atom: Maximum radius for 4*pi*r*r*local-pseudopot. charge    2.04484
atom: Maximum radius for r*vlocal+2*Zval:    1.75994
GHOST: No ghost state for L =  0
GHOST: No ghost state for L =  1
GHOST: No ghost state for L =  2
GHOST: No ghost state for L =  3

KBgen: Kleinman-Bylander projectors: 
   l= 0   rc=  1.897051   el= -0.693730   Ekb=  4.595746   kbcos=  0.286105
   l= 1   rc=  1.920920   el= -0.265236   Ekb= -2.350715   kbcos= -0.315747
   l= 2   rc=  2.044840   el=  0.002055   Ekb= -0.690767   kbcos= -0.013822
   l= 3   rc=  2.149707   el=  0.003188   Ekb= -0.315358   kbcos= -0.002055

KBgen: Total number of  Kleinman-Bylander projectors:   16
atom: -------------------------------------------------------------------------

atom: SANKEY-TYPE ORBITALS:
atom: Selected multiple-zeta basis: split     

SPLIT: Orbitals with angular momentum L= 0

SPLIT: Basis orbitals for state 2s

SPLIT: PAO cut-off radius determined from an
SPLIT: energy shift=  0.007350 Ry

   izeta = 1
                 lambda =    1.000000
                     rc =    5.422032
                 energy =   -0.686029
                kinetic =    0.576707
    potential(screened) =   -1.262736
       potential(ionic) =   -3.271094

   izeta = 2
                 rmatch =    4.222573
              splitnorm =    0.150000
                 energy =   -0.602132
                kinetic =    0.858975
    potential(screened) =   -1.461107
       potential(ionic) =   -3.582536

SPLIT: Orbitals with angular momentum L= 1

SPLIT: Basis orbitals for state 2p

SPLIT: PAO cut-off radius determined from an
SPLIT: energy shift=  0.007350 Ry

   izeta = 1
                 lambda =    1.000000
                     rc =    6.790259
                 energy =   -0.258578
                kinetic =    1.481412
    potential(screened) =   -1.739989
       potential(ionic) =   -3.657461

   izeta = 2
                 rmatch =    4.608740
              splitnorm =    0.150000
                 energy =   -0.173757
                kinetic =    2.186690
    potential(screened) =   -2.360447
       potential(ionic) =   -4.464260

POLgen: Perturbative polarization orbital with L=  2

POLgen: Polarization orbital for state 2p

   izeta = 1
                     rc =    6.790259
                 energy =    0.684082
                kinetic =    1.471481
    potential(screened) =   -0.787399
       potential(ionic) =   -2.406985
atom: Total number of Sankey-type orbitals: 13

atm_pop: Valence configuration (for local Pseudopot. screening):
 2s( 2.00)                                                            
 2p( 1.00)                                                            
Vna: chval, zval:    3.00000   3.00000

Vna:  Cut-off radius for the neutral-atom potential:   6.790259
comcore: Pseudo-core radius Rcore=  2.122997

atom: _________________________________________________________________________

<basis_specs>
===============================================================================
C                    Z=   6    Mass=  12.010        Charge= 0.17977+309
Lmxo=1 Lmxkb= 3    BasisType=split      Semic=F
L=0  Nsemic=0  Cnfigmx=2
          n=1  nzeta=2  polorb=0
            splnorm:   0.15000    
               vcte:    0.0000    
               rinn:    0.0000    
                rcs:    0.0000      0.0000    
            lambdas:    1.0000      1.0000    
L=1  Nsemic=0  Cnfigmx=2
          n=1  nzeta=2  polorb=1
            splnorm:   0.15000    
               vcte:    0.0000    
               rinn:    0.0000    
                rcs:    0.0000      0.0000    
            lambdas:    1.0000      1.0000    
-------------------------------------------------------------------------------
L=0  Nkbl=1  erefs: 0.17977+309
L=1  Nkbl=1  erefs: 0.17977+309
L=2  Nkbl=1  erefs: 0.17977+309
L=3  Nkbl=1  erefs: 0.17977+309
===============================================================================
</basis_specs>

atom: Called for C                     (Z =   6)

read_vps: Pseudopotential generation method:
read_vps: ATM3      Troullier-Martins                       
Total valence charge:    4.00000

read_vps: Pseudopotential includes a core correction:
read_vps: Pseudo-core for xc-correction

xc_check: Exchange-correlation functional:
xc_check: GGA Perdew, Burke & Ernzerhof 1996
V l=0 = -2*Zval/r beyond r=  1.5227
V l=1 = -2*Zval/r beyond r=  1.5227
V l=2 = -2*Zval/r beyond r=  1.5227
V l=3 = -2*Zval/r beyond r=  1.5038
All V_l potentials equal beyond r=  1.5227
This should be close to max(r_c) in ps generation
All pots = -2*Zval/r beyond r=  1.5227

VLOCAL1: 99.0% of the norm of Vloc inside     18.722 Ry
VLOCAL1: 99.9% of the norm of Vloc inside     42.668 Ry
atom: Maximum radius for 4*pi*r*r*local-pseudopot. charge    1.83678
atom: Maximum radius for r*vlocal+2*Zval:    1.58088
GHOST: No ghost state for L =  0
GHOST: No ghost state for L =  1
GHOST: No ghost state for L =  2
GHOST: No ghost state for L =  3

KBgen: Kleinman-Bylander projectors: 
   l= 0   rc=  1.704034   el= -1.009801   Ekb=  5.335044   kbcos=  0.316824
   l= 1   rc=  1.704034   el= -0.388707   Ekb= -3.785862   kbcos= -0.366464
   l= 2   rc=  1.791422   el=  0.001971   Ekb= -0.970471   kbcos= -0.009212
   l= 3   rc=  1.859892   el=  0.003065   Ekb= -0.399525   kbcos= -0.001223

KBgen: Total number of  Kleinman-Bylander projectors:   16
atom: -------------------------------------------------------------------------

atom: SANKEY-TYPE ORBITALS:
atom: Selected multiple-zeta basis: split     

SPLIT: Orbitals with angular momentum L= 0

SPLIT: Basis orbitals for state 2s

SPLIT: PAO cut-off radius determined from an
SPLIT: energy shift=  0.007350 Ry

   izeta = 1
                 lambda =    1.000000
                     rc =    4.632753
                 energy =   -1.002270
                kinetic =    0.855760
    potential(screened) =   -1.858031
       potential(ionic) =   -5.417575

   izeta = 2
                 rmatch =    3.431921
              splitnorm =    0.150000
                 energy =   -0.867111
                kinetic =    1.300804
    potential(screened) =   -2.167915
       potential(ionic) =   -5.962684

SPLIT: Orbitals with angular momentum L= 1

SPLIT: Basis orbitals for state 2p

SPLIT: PAO cut-off radius determined from an
SPLIT: energy shift=  0.007350 Ry

   izeta = 1
                 lambda =    1.000000
                     rc =    5.658549
                 energy =   -0.381140
                kinetic =    2.399701
    potential(screened) =   -2.780841
       potential(ionic) =   -6.206085

   izeta = 2
                 rmatch =    3.653288
              splitnorm =    0.150000
                 energy =   -0.249149
                kinetic =    3.542762
    potential(screened) =   -3.791911
       potential(ionic) =   -7.581078

POLgen: Perturbative polarization orbital with L=  2

POLgen: Polarization orbital for state 2p

   izeta = 1
                     rc =    5.658549
                 energy =    1.109913
                kinetic =    2.304789
    potential(screened) =   -1.194876
       potential(ionic) =   -4.013592
atom: Total number of Sankey-type orbitals: 13

atm_pop: Valence configuration (for local Pseudopot. screening):
 2s( 2.00)                                                            
 2p( 2.00)                                                            
Vna: chval, zval:    4.00000   4.00000

Vna:  Cut-off radius for the neutral-atom potential:   5.658549
comcore: Pseudo-core radius Rcore=  1.791422

atom: _________________________________________________________________________

prinput: Basis input ----------------------------------------------------------

PAO.BasisType split     

%block ChemicalSpeciesLabel
    1    5 B                       # Species index, atomic number, species label
    2    6 C                       # Species index, atomic number, species label
%endblock ChemicalSpeciesLabel

%block PAO.Basis                 # Define Basis set
B                     2                    # Species label, number of l-shells
 n=2   0   2                         # n, l, Nzeta 
   5.422      4.223   
   1.000      1.000   
 n=2   1   2 P   1                   # n, l, Nzeta, Polarization, NzetaPol
   6.790      4.609   
   1.000      1.000   
C                     2                    # Species label, number of l-shells
 n=2   0   2                         # n, l, Nzeta 
   4.633      3.432   
   1.000      1.000   
 n=2   1   2 P   1                   # n, l, Nzeta, Polarization, NzetaPol
   5.659      3.653   
   1.000      1.000   
%endblock PAO.Basis

prinput: ----------------------------------------------------------------------

coor:   Atomic-coordinates input format  =     Fractional

siesta: Atomic coordinates (Bohr) and species
siesta:     -2.35420  17.38257   0.00000  1        1
siesta:     -0.02582  18.72698   0.00000  1        2
siesta:      2.30256  22.75985   0.00000  1        3
siesta:      2.30256  25.44831   0.00000  1        4
siesta:     -4.68258  18.72698   0.00000  1        5
siesta:     -4.68258  21.41544   0.00000  1        6
siesta:     -2.35420  25.44831   0.00000  1        7
siesta:     -7.01096  22.75985   0.00000  1        8
siesta:     -0.02582  26.79272   0.00000  1        9
siesta:     -4.68258  26.79272   0.00000  1       10
siesta:     -0.02582   2.59549   0.00000  2       11
siesta:     -0.02582   5.28395   0.00000  2       12
siesta:     -2.35420  38.89134   0.00000  2       13
siesta:     -2.35420  41.57980   0.00000  2       14
siesta:      2.30256  38.89134   0.00000  2       15
siesta:      2.30256  41.57980   0.00000  2       16
siesta:      4.63094  34.85847   0.00000  2       17
siesta:      4.63094  37.54693   0.00000  2       18
siesta:      6.95932  30.82560   0.00000  2       19
siesta:      6.95932  33.51406   0.00000  2       20
siesta:      9.28770  26.79272   0.00000  2       21
siesta:      9.28770  29.48119   0.00000  2       22
siesta:     -4.68258  34.85847   0.00000  2       23
siesta:     -4.68258  37.54693   0.00000  2       24
siesta:      2.30256   6.62836   0.00000  2       25
siesta:      2.30256   9.31683   0.00000  2       26
siesta:      4.63094  10.66124   0.00000  2       27
siesta:      4.63094  13.34970   0.00000  2       28
siesta:      6.95932  14.69411   0.00000  2       29
siesta:      6.95932  17.38257   0.00000  2       30
siesta:      9.28770  18.72698   0.00000  2       31
siesta:      9.28770  21.41544   0.00000  2       32
siesta:     11.61608  22.75985   0.00000  2       33
siesta:     11.61608  25.44831   0.00000  2       34
siesta:     -2.35420   6.62836   0.00000  2       35
siesta:     -2.35420   9.31683   0.00000  2       36
siesta:     -0.02582  10.66124   0.00000  2       37
siesta:     -0.02582  13.34970   0.00000  2       38
siesta:      2.30256  14.69411   0.00000  2       39
siesta:      2.30256  17.38257   0.00000  2       40
siesta:      4.63094  18.72698   0.00000  2       41
siesta:      4.63094  21.41544   0.00000  2       42
siesta:      6.95932  22.75985   0.00000  2       43
siesta:      6.95932  25.44831   0.00000  2       44
siesta:     -4.68258  10.66124   0.00000  2       45
siesta:     -4.68258  13.34970   0.00000  2       46
siesta:     -2.35420  14.69411   0.00000  2       47
siesta:     -0.02582  21.41544   0.00000  2       48
siesta:     -7.01096  14.69411   0.00000  2       49
siesta:     -7.01096  17.38257   0.00000  2       50
siesta:     -2.35420  22.75985   0.00000  2       51
siesta:     -9.33934  18.72698   0.00000  2       52
siesta:     -9.33934  21.41544   0.00000  2       53
siesta:     -7.01096  25.44831   0.00000  2       54
siesta:    -11.66772  22.75985   0.00000  2       55
siesta:    -11.66772  25.44831   0.00000  2       56
siesta:     -9.33934  26.79272   0.00000  2       57
siesta:     -9.33934  29.48119   0.00000  2       58
siesta:      4.63094  26.79272   0.00000  2       59
siesta:      4.63094  29.48119   0.00000  2       60
siesta:     -0.02582  29.48119   0.00000  2       61
siesta:     -4.68258  29.48119   0.00000  2       62
siesta:      2.30256  30.82560   0.00000  2       63
siesta:      2.30256  33.51406   0.00000  2       64
siesta:     -2.35420  30.82560   0.00000  2       65
siesta:     -2.35420  33.51406   0.00000  2       66
siesta:     -7.01096  30.82560   0.00000  2       67
siesta:     -7.01096  33.51406   0.00000  2       68
siesta:     -0.02582  34.85847   0.00000  2       69
siesta:     -0.02582  37.54693   0.00000  2       70
siesta:     -0.02582  42.92421   0.00000  2       71
siesta:     -0.02582  45.61267   0.00000  2       72

siesta: System type = slab      

initatomlists: Number of atoms, orbitals, and projectors:     72   936  1152

siesta: ******************** Simulation parameters ****************************
siesta:
siesta: The following are some of the parameters of the simulation.
siesta: A complete list of the parameters used, including default values,
siesta: can be found in file out.fdf
siesta:
redata: Non-Collinear-spin run           =     F
redata: SpinPolarized (Up/Down) run      =     F
redata: Number of spin components        =     1
redata: Long output                      =     F
redata: Number of Atomic Species         =        2
redata: Charge density info will appear in .RHO file
redata: Write Mulliken Pop.              =     NO
redata: Mesh Cutoff                      =   200.0000  Ry
redata: Net charge of the system         =     0.0000 |e|
redata: Max. number of SCF Iter          =      500
redata: SCF convergence failure will abort job
redata: Performing Pulay mixing using    =    10 iterations
redata: Mix DM in first SCF step ?       =     F
redata: Write Pulay info on disk?        =     F
redata: Discard 1st Pulay DM after  kick =     F
redata: New DM Mixing Weight             =     0.0500
redata: New DM Occupancy tolerance       = 0.000000000001
redata: No kicks to SCF
redata: DM Mixing Weight for Kicks       =     0.5000
redata: DM Tolerance for SCF             =     0.000100
redata: Require Energy convergence for SCF =     F
redata: DM Energy tolerance for SCF      =     0.000100 eV
redata: Require Harris convergence for SCF =     F
redata: DM Harris energy tolerance for SCF =     0.000100 eV
redata: Using Saved Data (generic)   =     F
redata: Use continuation files for DM    =     T
redata: Neglect nonoverlap interactions  =     F
redata: Method of Calculation            =     Diagonalization
redata: Divide and Conquer               =     T
redata: Electronic Temperature           =     0.0019  Ry
redata: Fix the spin of the system       =     F
redata: Dynamics option                  =     Verlet MD run
redata: Initial MD time step             =        1
redata:   Final MD time step             =        1
redata: Length of MD time step           =     1.0000  fs
redata: Initial Temperature of MD run    =     0.0000  K
redata: Perform a MD quench              =     F
redata: ***********************************************************************
Total number of electrons:   278.000000
Total ionic charge:   278.000000

* ProcessorY, Blocksize:    3  24

k-point displ. along   1 input, could be:     0.50    0.00
k-point displ. along   2 input, could be:     0.50    0.00
 Kpoints in:          231 . Kpoints trimmed:          231

siesta: k-grid: Number of k-points =   231
siesta: k-grid: Cutoff (effective) =     5.000 Ang
siesta: k-grid: Supercell and displacements
siesta: k-grid:   21   0   0      0.500
siesta: k-grid:    0  21   0      0.500
siesta: k-grid:    0   0   1      0.000
Naive supercell factors:     2    2    2

superc: Internal auxiliary supercell:     2 x     2 x     2  =       8
superc: Number of atoms, orbitals, and projectors:    576   7488   9216

* Maximum dynamic memory allocated =     4 MB

siesta:                 ==============================
                            Begin MD step =      1
                        ==============================

superc: Internal auxiliary supercell:     2 x     2 x     2  =       8
superc: Number of atoms, orbitals, and projectors:    576   7488   9216

outcell: Unit cell vectors (Ang):
       12.804619    7.392750    0.000000
        0.000000   14.785500    0.000000
        0.000000    0.000000   10.000000

outcell: Cell vector modules (Ang)   :   14.785500   14.785500   10.000000
outcell: Cell angles (23,13,12) (deg):     90.0000     90.0000     60.0000
outcell: Cell volume (Ang**3)        :   1893.2269
New_DM. Step:     1
Initializing Density Matrix...

InitMesh: MESH =   120 x   120 x    90 =     1296000
InitMesh: Mesh cutoff (required, used) =   200.000   223.865 Ry

* Maximum dynamic memory allocated =   150 MB

stepf: Fermi-Dirac step function

siesta: Program's energy decomposition (eV):
siesta: Ebs     =     -5717.406463
siesta: Eions   =     17122.443959
siesta: Ena     =      4477.454570
siesta: Ekin    =      5850.796185
siesta: Enl     =       712.090800
siesta: DEna    =        -0.000012
siesta: DUscf   =         0.000000
siesta: DUext   =         0.000000
siesta: Exc     =     -4187.182057
siesta: eta*DQ  =         0.000000
siesta: Emadel  =         0.000000
siesta: Emeta   =         0.000000
siesta: Emolmec =         0.000000
siesta: Ekinion =         0.000000
siesta: Eharris =     -9958.798274
siesta: Etot    =    -10269.284472
siesta: FreeEng =    -10269.284472

siesta: iscf   Eharris(eV)      E_KS(eV)   FreeEng(eV)   dDmax  Ef(eV)
siesta:    1    -9958.7983   -10269.2845   -10269.2845  6.3299 -8.0838
timer: Routine,Calls,Time,% = IterSCF        1    3056.277  99.59
elaps: Routine,Calls,Wall,% = IterSCF        1     255.294  99.59
siesta:    2   -14053.7022    -9307.0858    -9307.1839 17.1026 -2.4176
siesta:    3    -9896.4590   -10123.2761   -10123.2955  3.5602 -6.9328
siesta:    4    -9871.7104    -9954.6445    -9954.7028  1.1387 -5.5299
siesta:    5    -9836.6384    -9888.9527    -9888.9723  0.7984 -5.4501
siesta:    6    -9819.6253    -9859.4147    -9859.4543  0.7584 -5.2089
siesta:    7    -9815.3453    -9847.2767    -9847.3012  0.7852 -5.1676
siesta:    8    -9813.3895    -9827.3050    -9827.3157  0.6575 -5.2145
siesta:    9    -9811.1911    -9820.9647    -9821.0028  0.6261 -5.1803
siesta:   10    -9810.5787    -9815.6043    -9815.6436  0.5483 -5.1236
siesta:   11    -9809.8095    -9797.3079    -9797.3591  0.2729 -4.9725
siesta:   12    -9810.6455    -9787.8286    -9787.8672  0.1711 -4.9293
siesta:   13    -9810.2027    -9786.5484    -9786.5975  0.1349 -4.9569
siesta:   14    -9809.4508    -9788.1783    -9788.2341  0.1408 -4.9950
siesta:   15    -9809.2994    -9791.5908    -9791.6301  0.1305 -5.0103
siesta:   16    -9809.0196    -9796.0653    -9796.0906  0.0664 -5.0568
siesta:   17    -9808.9697    -9797.6106    -9797.6600  0.0620 -5.0651
siesta:   18    -9808.8856    -9801.0012    -9801.0510  0.0798 -5.0786
siesta:   19    -9808.8539    -9803.7590    -9803.8110  0.0604 -5.0816
siesta:   20    -9808.8506    -9805.5956    -9805.6473  0.0404 -5.0838
siesta:   21    -9808.8292    -9806.8894    -9806.9398  0.0238 -5.0714
siesta:   22    -9808.8254    -9806.8474    -9806.8980  0.0204 -5.0652
siesta:   23    -9808.8250    -9807.8626    -9807.9136  0.0100 -5.0639
siesta:   24    -9808.8234    -9808.4680    -9808.5185  0.0105 -5.0634
siesta:   25    -9808.8227    -9809.0030    -9809.0539  0.0049 -5.0620
siesta:   26    -9808.8218    -9809.0742    -9809.1247  0.0036 -5.0596
siesta:   27    -9808.8216    -9809.0216    -9809.0723  0.0033 -5.0591
siesta:   28    -9808.8214    -9808.9594    -9809.0100  0.0016 -5.0584
siesta:   29    -9808.8214    -9808.8581    -9808.9088  0.0015 -5.0577
siesta:   30    -9808.8214    -9808.7689    -9808.8195  0.0017 -5.0573
siesta:   31    -9808.8214    -9808.7709    -9808.8216  0.0013 -5.0574
siesta:   32    -9808.8213    -9808.8064    -9808.8570  0.0007 -5.0577
siesta:   33    -9808.8213    -9808.7909    -9808.8416  0.0004 -5.0578
siesta:   34    -9808.8213    -9808.8015    -9808.8522  0.0002 -5.0579
siesta:   35    -9808.8213    -9808.7999    -9808.8505  0.0002 -5.0579
siesta:   36    -9808.8213    -9808.8020    -9808.8527  0.0002 -5.0579
siesta:   37    -9808.8213    -9808.8076    -9808.8582  0.0001 -5.0580
siesta:   38    -9808.8213    -9808.8152    -9808.8659  0.0001 -5.0579
siesta:   39    -9808.8213    -9808.8156    -9808.8663  0.0001 -5.0579
siesta:   40    -9808.8213    -9808.8184    -9808.8690  0.0000 -5.0579

siesta: E_KS(eV) =            -9808.8186

siesta: E_KS - E_eggbox =     -9808.8186

siesta: Atomic forces (eV/Ang):
----------------------------------------
   Tot   -0.144027   -0.169372    0.000000
----------------------------------------
   Max  562.563822
   Res  157.237129    sqrt( Sum f_i^2 / 3N )
----------------------------------------
   Max  562.563822    constrained

Stress-tensor-Voigt (kbar):     -781.74    -2818.83       -0.47       -4.36        0.00        0.00
(Free)E + p*V (eV/cell)    -8390.4856
Target enthalpy (eV/cell)    -9808.8692

siesta: Stress tensor (static) (eV/Ang**3):
        -0.487919   -0.002722    0.000000
        -0.002722   -1.759354    0.000000
         0.000000    0.000000   -0.000292

siesta: Pressure (static):       1200.34512469  kBar

siesta: Stress tensor (total) (eV/Ang**3):
        -0.487919   -0.002722    0.000000
        -0.002722   -1.759354    0.000000
         0.000000    0.000000   -0.000292

siesta: Pressure (total):       1200.34512469  kBar

siesta: Temp_ion =       0.000 K

* Maximum dynamic memory allocated =   163 MB
Computing bands...

siesta: Program's energy decomposition (eV):
siesta: Ebs     =     -4379.204031
siesta: Eions   =     17122.443959
siesta: Ena     =      4477.454570
siesta: Ekin    =      8794.895305
siesta: Enl     =      -909.394736
siesta: DEna    =      -794.805161
siesta: DUscf   =       105.348969
siesta: DUext   =         0.000000
siesta: Exc     =     -4359.873555
siesta: eta*DQ  =         0.000000
siesta: Emadel  =         0.000000
siesta: Emeta   =         0.000000
siesta: Emolmec =         0.000000
siesta: Ekinion =         0.000000
siesta: Eharris =     -9808.821301
siesta: Etot    =     -9808.818568
siesta: FreeEng =     -9808.869235

siesta: Final energy (eV):
siesta:  Band Struct. =   -4379.204031
siesta:       Kinetic =    8794.895305
siesta:       Hartree =   28889.487465
siesta:    Ext. field =       0.000000
siesta:   Exch.-corr. =   -4359.873555
siesta:  Ion-electron =  -66261.717839
siesta:       Ion-ion =   23128.390057
siesta:       Ekinion =       0.000000
siesta:         Total =   -9808.818568

siesta: Atomic forces (eV/Ang):
siesta:      1  -15.643437   -2.766646    0.000000
siesta:      2   -0.528676  412.744793    0.000000
siesta:      3    0.327868   -4.390974    0.000000
siesta:      4    3.403760    2.915868    0.000000
siesta:      5   -2.576591   -3.568369    0.000000
siesta:      6    4.923978    2.513971    0.000000
siesta:      7    0.251997   -3.520696    0.000000
siesta:      8   -3.676989    2.353212    0.000000
siesta:      9   -0.001701    4.776411    0.000000
siesta:     10   -3.309867    2.449265    0.000000
siesta:     11   -0.415990  550.931528    0.000000
siesta:     12   -0.189504 -127.733109    0.000000
siesta:     13    1.520144  126.866976    0.000000
siesta:     14  -17.711007 -552.498693    0.000000
siesta:     15   -1.246993  126.909270    0.000000
siesta:     16   15.814802 -548.346759    0.000000
siesta:     17   26.801464    5.625422    0.000000
siesta:     18   33.971123 -549.227380    0.000000
siesta:     19    1.961525    0.295048    0.000000
siesta:     20   -2.565809    1.776060    0.000000
siesta:     21    2.188417    1.531822    0.000000
siesta:     22   -0.778363    0.628640    0.000000
siesta:     23  -26.800965    5.640028    0.000000
siesta:     24  -33.722010 -549.090916    0.000000
siesta:     25   15.479295  547.548194    0.000000
siesta:     26   -2.183056 -127.259453    0.000000
siesta:     27   32.011439  548.739083    0.000000
siesta:     28   26.768892   -4.485053    0.000000
siesta:     29   -2.730295   -2.116363    0.000000
siesta:     30    2.645311   -0.335883    0.000000
siesta:     31   -1.367169   -0.618039    0.000000
siesta:     32    2.505183   -1.484065    0.000000
siesta:     33   -0.257391    7.348577    0.000000
siesta:     34   -0.170315   -7.328432    0.000000
siesta:     35  -16.199922  547.116474    0.000000
siesta:     36    2.232017 -126.921599    0.000000
siesta:     37    0.080216  545.668057    0.000000
siesta:     38   -0.905719 -124.453391    0.000000
siesta:     39   25.256402  558.380364    0.000000
siesta:     40   22.578852   -3.132350    0.000000
siesta:     41   -0.911513    2.113077    0.000000
siesta:     42    2.663608   -2.084278    0.000000
siesta:     43   -0.016449    0.193894    0.000000
siesta:     44    0.309346   -0.193714    0.000000
siesta:     45  -32.309022  549.141618    0.000000
siesta:     46  -26.392019   -4.565647    0.000000
siesta:     47  -22.674002  555.462175    0.000000
siesta:     48   -3.044404    0.500480    0.000000
siesta:     49    2.715107   -1.362728    0.000000
siesta:     50   -6.911623   -2.834981    0.000000
siesta:     51    3.688388   -3.351438    0.000000
siesta:     52    2.176537   -0.227485    0.000000
siesta:     53   -6.878022   -3.705541    0.000000
siesta:     54   -2.071597    1.182543    0.000000
siesta:     55    0.613648    6.721964    0.000000
siesta:     56    0.032733   -6.581321    0.000000
siesta:     57   -3.090522    1.558953    0.000000
siesta:     58    1.401525    0.289305    0.000000
siesta:     59    2.311642    1.966914    0.000000
siesta:     60   -0.377206   -2.132520    0.000000
siesta:     61    0.015231 -562.563822    0.000000
siesta:     62    1.279439    1.882724    0.000000
siesta:     63   21.209834    5.403740    0.000000
siesta:     64   23.867363 -557.019541    0.000000
siesta:     65  -21.337931    5.485544    0.000000
siesta:     66  -23.203656 -556.371225    0.000000
siesta:     67   -2.379475    0.895785    0.000000
siesta:     68    2.404916    1.745720    0.000000
siesta:     69    0.296881  126.068273    0.000000
siesta:     70   -0.027758 -543.827481    0.000000
siesta:     71   -3.840174  127.375263    0.000000
siesta:     72    2.594231 -404.816516    0.000000
siesta: ----------------------------------------
siesta:    Tot   -0.144027   -0.169372    0.000000

siesta: Stress tensor (static) (eV/Ang**3):
siesta:    -0.487919   -0.002722    0.000000
siesta:    -0.002722   -1.759354    0.000000
siesta:     0.000000    0.000000   -0.000292

siesta: Cell volume =       1893.226884 Ang**3

siesta: Pressure (static):
siesta:                Solid            Molecule  Units
siesta:           0.00815962          0.12183540  Ry/Bohr**3
siesta:           0.74918840         11.18651171  eV/Ang**3
siesta:        1200.34512469      17922.96139717  kBar
(Free)E+ p_basis*V_orbitals  =       -9774.972083
(Free)Eharris+ p_basis*V_orbitals  =       -9774.975033

siesta: Electric dipole (a.u.)  =    0.000000    0.000000    0.000000
siesta: Electric dipole (Debye) =    0.000000    0.000000    0.000000

* Maximum dynamic memory allocated : Node    0 =   163 MB
* Maximum dynamic memory allocated : Node    1 =    66 MB
* Maximum dynamic memory allocated : Node    2 =    66 MB
* Maximum dynamic memory allocated : Node    3 =   149 MB
* Maximum dynamic memory allocated : Node    4 =   157 MB
* Maximum dynamic memory allocated : Node    5 =    57 MB
* Maximum dynamic memory allocated : Node    6 =    59 MB
* Maximum dynamic memory allocated : Node    7 =   150 MB
* Maximum dynamic memory allocated : Node    8 =   151 MB
* Maximum dynamic memory allocated : Node    9 =    61 MB
* Maximum dynamic memory allocated : Node   10 =    62 MB
* Maximum dynamic memory allocated : Node   11 =   142 MB

* Maximum memory occured during matrixMtoO                    

timer: CPU execution times:
timer:  Routine       Calls   Time/call    Tot.time        %
timer:  siesta            1  118706.893  118706.893   100.00
timer:  Setup             1       3.311       3.311     0.00
timer:  bands             3     226.040     678.121     0.57
timer:  writewave         1       0.024       0.024     0.00
timer:  KSV_init          1       0.003       0.003     0.00
timer:  IterMD            1  118018.548  118018.548    99.42
timer:  hsparse           1       0.277       0.277     0.00
timer:  overlap           1       6.390       6.390     0.01
timer:  IterSCF          40    2946.875  117874.990    99.30
timer:  kinefsm           2       3.259       6.517     0.01
timer:  nlefsm            2      19.581      39.162     0.03
timer:  DHSCF            41      72.400    2968.415     2.50
timer:  DHSCF1            1       1.188       1.188     0.00
timer:  DHSCF2            1      31.660      31.660     0.03
timer:  REORD           330       0.002       0.811     0.00
timer:  POISON           42       0.450      18.894     0.02
timer:  DHSCF3           41      70.947    2908.844     2.45
timer:  rhoofd           41      15.967     654.628     0.55
timer:  cellXC           41       2.422      99.309     0.08
timer:  vmat             41      33.743    1383.478     1.17
timer:  MolMec            2       0.000       0.000     0.00
timer:  diagon           40    2873.342  114933.668    96.82
timer:  c-eigval       9361       5.595   52377.827    44.12
timer:  c-buildHS      9361       0.035     330.971     0.28
timer:  cdiag         18601       5.697  105966.443    89.27
timer:  cdiag1        18601       0.260    4843.827     4.08
timer:  cdiag2        18601       1.829   34024.076    28.66
timer:  cdiag3        18601       3.394   63127.968    53.18
timer:  cdiag4        18601       0.087    1620.250     1.36
timer:  c-eigvec       9240       5.865   54193.388    45.65
timer:  c-buildD       9240       0.973    8990.587     7.57
timer:  DHSCF4            1      26.418      26.418     0.02
timer:  dfscf             1      24.351      24.351     0.02
timer:  overfsm           1       0.320       0.320     0.00
timer:  optical           1       6.309       6.309     0.01
  

elaps: ELAPSED times:
elaps:  Routine       Calls   Time/call    Tot.time        %
elaps:  siesta            1    9915.535    9915.535   100.00
elaps:  Setup             1       0.277       0.277     0.00
elaps:  bands             3      18.896      56.688     0.57
elaps:  writewave         1       0.002       0.002     0.00
elaps:  KSV_init          1       0.000       0.000     0.00
elaps:  IterMD            1    9858.038    9858.038    99.42
elaps:  hsparse           1       0.027       0.027     0.00
elaps:  overlap           1       0.716       0.716     0.01
elaps:  IterSCF          40     246.151    9846.046    99.30
elaps:  kinefsm           2       0.367       0.735     0.01
elaps:  nlefsm            2       1.720       3.440     0.03
elaps:  DHSCF            41       6.098     250.010     2.52
elaps:  DHSCF1            1       0.101       0.101     0.00
elaps:  DHSCF2            1       2.643       2.643     0.03
elaps:  REORD           330       0.000       0.098     0.00
elaps:  POISON           42       0.038       1.599     0.02
elaps:  DHSCF3           41       5.927     243.017     2.45
elaps:  rhoofd           41       2.737     112.235     1.13
elaps:  cellXC           41       0.202       8.279     0.08
elaps:  vmat             41       2.819     115.596     1.17
elaps:  MolMec            2       0.000       0.000     0.00
elaps:  diagon           40     240.017    9600.663    96.82
elaps:  c-eigval       9361       0.467    4375.042    44.12
elaps:  c-buildHS      9361       0.004      36.193     0.37
elaps:  cdiag         18601       0.471    8752.802    88.27
elaps:  cdiag1        18601       0.021     398.660     4.02
elaps:  cdiag2        18601       0.153    2844.606    28.69
elaps:  cdiag3        18601       0.284    5280.994    53.26
elaps:  cdiag4        18601       0.007     129.376     1.30
elaps:  c-eigvec       9240       0.481    4444.382    44.82
elaps:  c-buildD       9240       0.090     833.275     8.40
elaps:  DHSCF4            1       4.207       4.207     0.04
elaps:  dfscf             1       3.955       3.955     0.04
elaps:  overfsm           1       0.035       0.035     0.00
elaps:  optical           1       0.000       0.000     0.00
  
>> End of run:   4-MAY-2016  15:17:34
