Siesta Version:                                        siesta-3.2-pl-3
Architecture  : x86_64-unknown-linux-gnu--unknown
Compiler flags: mpiifort -g -O2 -fPIC -xSSE4.1 -fp-model source -shared-intel 
PARALLEL version

* Running on   12 nodes in parallel
>> Start of run:   8-MAY-2016   3:07:55

                           ***********************       
                           *  WELCOME TO SIESTA  *       
                           ***********************       

reinit: Reading from standard input
************************** Dump of input data file ****************************
#(1) General system descriptors
SystemName            GRP_doping    # Descriptive name of the system
SystemLabel           GRP_doping    # Short name for naming files
%include STRUCT.fdf
%include KPT.fdf
%include BASIS.fdf
#%include TS.fdf # for transiesta calculation
#(4) DFT, Grid, SCF
XC.functional         GGA           # LDA or GGA (default = LDA)
XC.authors            PBE           # CA (Ceperley-Aldr) = PZ
                                    #    (Perdew-Zunger) - LDA - Default
                                    # PW92 (Perdew-Wang-92) - LDA
                                    # PBE (Perdew-Burke-Ernzerhof) - GGA
MeshCutoff            200.000000    Ry      # Default: 50.0 Ry ~ 0.444 Bohr
                                    #         100.0 Ry ~ 0.314 Bohr
MaxSCFIterations      500           # Default: 50
DM.MixingWeight       0.05          # Default: 0.25
DM.NumberPulay        10            # Default: 0
DM.PulayOnFile        F             # SystemLabel.P1, SystemLabel.P2
DM.Tolerance          1.d-4         # Default: 1.d-4
DM.UseSaveDM          .true.        # because of the bug
SCFMustConverge       .true.
NeglNonOverlapInt     F             # Default: F
#(5) Eigenvalue problem: order-N or diagonalization
SolutionMethod        Diagon        # or Transiesta
ElectronicTemperature 300.0 K       # Default: 300.0 K
#(6) Molecular dynamics and relaxations
#MD.TypeOfRun          CG            # Type of dynamics:
#MD.VariableCell       F
#MD.NumCGsteps         0           # 0 for single-point / 100 for gopt
#MD.MaxCGDispl         0.2 Bohr      # Default: 0.2 Bohr
#MD.MaxForceTol        0.02 eV/Ang   # Default: 0.04 eV/Ang
#MD.MaxStressTol       1.0 GPa       # Default: 1.0 GPa
# Geometry Constraints
#%block GeometryConstraints
#	position from 1 to 44
#%endblock GeometryConstraints
BandLinesScale   pi/a
%block BandLines
 1   0.00000000  0.00000000  0.00000000
50   0.00000000  0.07809418  0.00000000
50   0.04509075  0.07809242  0.00000000
20   0.00000000  0.00000000  0.00000000
%endblock BandLines
************************** End of input data file *****************************

reinit: -----------------------------------------------------------------------
reinit: System Name: GRP_doping
reinit: -----------------------------------------------------------------------
reinit: System Label: GRP_doping                                                  
reinit: -----------------------------------------------------------------------

initatom: Reading input for the pseudopotentials and atomic orbitals ----------
 Species number:            1  Label: N Atomic number:           7
 Species number:            2  Label: C Atomic number:           6
Ground state valence configuration:   2s02  2p03
Reading pseudopotential information in formatted form from N.psf

Valence configuration for pseudopotential generation:
2s( 2.00) rc: 1.48
2p( 3.00) rc: 1.48
3d( 0.00) rc: 1.48
4f( 0.00) rc: 1.48
Ground state valence configuration:   2s02  2p02
Reading pseudopotential information in formatted form from C.psf

Valence configuration for pseudopotential generation:
2s( 2.00) rc: 1.54
2p( 2.00) rc: 1.54
3d( 0.00) rc: 1.54
4f( 0.00) rc: 1.54
For N, standard SIESTA heuristics set lmxkb to 3
 (one more than the basis l, including polarization orbitals).
Use PS.lmax or PS.KBprojectors blocks to override.
For C, standard SIESTA heuristics set lmxkb to 3
 (one more than the basis l, including polarization orbitals).
Use PS.lmax or PS.KBprojectors blocks to override.

<basis_specs>
===============================================================================
N                    Z=   7    Mass=  14.010        Charge= 0.17977+309
Lmxo=1 Lmxkb= 3    BasisType=split      Semic=F
L=0  Nsemic=0  Cnfigmx=2
          n=1  nzeta=2  polorb=0
            splnorm:   0.15000    
               vcte:    0.0000    
               rinn:    0.0000    
                rcs:    0.0000      0.0000    
            lambdas:    1.0000      1.0000    
L=1  Nsemic=0  Cnfigmx=2
          n=1  nzeta=2  polorb=1
            splnorm:   0.15000    
               vcte:    0.0000    
               rinn:    0.0000    
                rcs:    0.0000      0.0000    
            lambdas:    1.0000      1.0000    
-------------------------------------------------------------------------------
L=0  Nkbl=1  erefs: 0.17977+309
L=1  Nkbl=1  erefs: 0.17977+309
L=2  Nkbl=1  erefs: 0.17977+309
L=3  Nkbl=1  erefs: 0.17977+309
===============================================================================
</basis_specs>

atom: Called for N                     (Z =   7)

read_vps: Pseudopotential generation method:
read_vps: ATM3      Troullier-Martins                       
Total valence charge:    5.00000

read_vps: Pseudopotential includes a core correction:
read_vps: Pseudo-core for xc-correction

xc_check: Exchange-correlation functional:
xc_check: GGA Perdew, Burke & Ernzerhof 1996
V l=0 = -2*Zval/r beyond r=  1.4606
V l=1 = -2*Zval/r beyond r=  1.4606
V l=2 = -2*Zval/r beyond r=  1.4606
V l=3 = -2*Zval/r beyond r=  1.4606
All V_l potentials equal beyond r=  1.4606
This should be close to max(r_c) in ps generation
All pots = -2*Zval/r beyond r=  1.4606

VLOCAL1: 99.0% of the norm of Vloc inside     20.347 Ry
VLOCAL1: 99.9% of the norm of Vloc inside     46.372 Ry
atom: Maximum radius for 4*pi*r*r*local-pseudopot. charge    1.76189
atom: Maximum radius for r*vlocal+2*Zval:    1.53550
GHOST: No ghost state for L =  0
GHOST: No ghost state for L =  1
GHOST: No ghost state for L =  2
GHOST: No ghost state for L =  3

KBgen: Kleinman-Bylander projectors: 
   l= 0   rc=  1.634559   el= -1.363963   Ekb=  5.296955   kbcos=  0.335621
   l= 1   rc=  1.614250   el= -0.521451   Ekb= -5.259161   kbcos= -0.433408
   l= 2   rc=  1.718383   el=  0.001991   Ekb= -1.271464   kbcos= -0.007566
   l= 3   rc=  1.761893   el=  0.003093   Ekb= -0.494769   kbcos= -0.001015

KBgen: Total number of  Kleinman-Bylander projectors:   16
atom: -------------------------------------------------------------------------

atom: SANKEY-TYPE ORBITALS:
atom: Selected multiple-zeta basis: split     

SPLIT: Orbitals with angular momentum L= 0

SPLIT: Basis orbitals for state 2s

SPLIT: PAO cut-off radius determined from an
SPLIT: energy shift=  0.007350 Ry

   izeta = 1
                 lambda =    1.000000
                     rc =    4.071465
                 energy =   -1.356470
                kinetic =    1.176977
    potential(screened) =   -2.533447
       potential(ionic) =   -8.057990

   izeta = 2
                 rmatch =    2.905100
              splitnorm =    0.150000
                 energy =   -1.158343
                kinetic =    1.813009
    potential(screened) =   -2.971352
       potential(ionic) =   -8.901931

SPLIT: Orbitals with angular momentum L= 1

SPLIT: Basis orbitals for state 2p

SPLIT: PAO cut-off radius determined from an
SPLIT: energy shift=  0.007350 Ry

   izeta = 1
                 lambda =    1.000000
                     rc =    4.972977
                 energy =   -0.513884
                kinetic =    3.441732
    potential(screened) =   -3.955616
       potential(ionic) =   -9.287901

   izeta = 2
                 rmatch =    3.054066
              splitnorm =    0.150000
                 energy =   -0.318226
                kinetic =    5.125348
    potential(screened) =   -5.443573
       potential(ionic) =  -11.380999

POLgen: Perturbative polarization orbital with L=  2

POLgen: Polarization orbital for state 2p

   izeta = 1
                     rc =    4.972977
                 energy =    1.607437
                kinetic =    3.268125
    potential(screened) =   -1.660688
       potential(ionic) =   -5.973652
atom: Total number of Sankey-type orbitals: 13

atm_pop: Valence configuration (for local Pseudopot. screening):
 2s( 2.00)                                                            
 2p( 3.00)                                                            
Vna: chval, zval:    5.00000   5.00000

Vna:  Cut-off radius for the neutral-atom potential:   4.972977
comcore: Pseudo-core radius Rcore=  1.554824

atom: _________________________________________________________________________

<basis_specs>
===============================================================================
C                    Z=   6    Mass=  12.010        Charge= 0.17977+309
Lmxo=1 Lmxkb= 3    BasisType=split      Semic=F
L=0  Nsemic=0  Cnfigmx=2
          n=1  nzeta=2  polorb=0
            splnorm:   0.15000    
               vcte:    0.0000    
               rinn:    0.0000    
                rcs:    0.0000      0.0000    
            lambdas:    1.0000      1.0000    
L=1  Nsemic=0  Cnfigmx=2
          n=1  nzeta=2  polorb=1
            splnorm:   0.15000    
               vcte:    0.0000    
               rinn:    0.0000    
                rcs:    0.0000      0.0000    
            lambdas:    1.0000      1.0000    
-------------------------------------------------------------------------------
L=0  Nkbl=1  erefs: 0.17977+309
L=1  Nkbl=1  erefs: 0.17977+309
L=2  Nkbl=1  erefs: 0.17977+309
L=3  Nkbl=1  erefs: 0.17977+309
===============================================================================
</basis_specs>

atom: Called for C                     (Z =   6)

read_vps: Pseudopotential generation method:
read_vps: ATM3      Troullier-Martins                       
Total valence charge:    4.00000

read_vps: Pseudopotential includes a core correction:
read_vps: Pseudo-core for xc-correction

xc_check: Exchange-correlation functional:
xc_check: GGA Perdew, Burke & Ernzerhof 1996
V l=0 = -2*Zval/r beyond r=  1.5227
V l=1 = -2*Zval/r beyond r=  1.5227
V l=2 = -2*Zval/r beyond r=  1.5227
V l=3 = -2*Zval/r beyond r=  1.5038
All V_l potentials equal beyond r=  1.5227
This should be close to max(r_c) in ps generation
All pots = -2*Zval/r beyond r=  1.5227

VLOCAL1: 99.0% of the norm of Vloc inside     18.722 Ry
VLOCAL1: 99.9% of the norm of Vloc inside     42.668 Ry
atom: Maximum radius for 4*pi*r*r*local-pseudopot. charge    1.83678
atom: Maximum radius for r*vlocal+2*Zval:    1.58088
GHOST: No ghost state for L =  0
GHOST: No ghost state for L =  1
GHOST: No ghost state for L =  2
GHOST: No ghost state for L =  3

KBgen: Kleinman-Bylander projectors: 
   l= 0   rc=  1.704034   el= -1.009801   Ekb=  5.335044   kbcos=  0.316824
   l= 1   rc=  1.704034   el= -0.388707   Ekb= -3.785862   kbcos= -0.366464
   l= 2   rc=  1.791422   el=  0.001971   Ekb= -0.970471   kbcos= -0.009212
   l= 3   rc=  1.859892   el=  0.003065   Ekb= -0.399525   kbcos= -0.001223

KBgen: Total number of  Kleinman-Bylander projectors:   16
atom: -------------------------------------------------------------------------

atom: SANKEY-TYPE ORBITALS:
atom: Selected multiple-zeta basis: split     

SPLIT: Orbitals with angular momentum L= 0

SPLIT: Basis orbitals for state 2s

SPLIT: PAO cut-off radius determined from an
SPLIT: energy shift=  0.007350 Ry

   izeta = 1
                 lambda =    1.000000
                     rc =    4.632753
                 energy =   -1.002270
                kinetic =    0.855760
    potential(screened) =   -1.858031
       potential(ionic) =   -5.417575

   izeta = 2
                 rmatch =    3.431921
              splitnorm =    0.150000
                 energy =   -0.867111
                kinetic =    1.300804
    potential(screened) =   -2.167915
       potential(ionic) =   -5.962684

SPLIT: Orbitals with angular momentum L= 1

SPLIT: Basis orbitals for state 2p

SPLIT: PAO cut-off radius determined from an
SPLIT: energy shift=  0.007350 Ry

   izeta = 1
                 lambda =    1.000000
                     rc =    5.658549
                 energy =   -0.381140
                kinetic =    2.399701
    potential(screened) =   -2.780841
       potential(ionic) =   -6.206085

   izeta = 2
                 rmatch =    3.653288
              splitnorm =    0.150000
                 energy =   -0.249149
                kinetic =    3.542762
    potential(screened) =   -3.791911
       potential(ionic) =   -7.581078

POLgen: Perturbative polarization orbital with L=  2

POLgen: Polarization orbital for state 2p

   izeta = 1
                     rc =    5.658549
                 energy =    1.109913
                kinetic =    2.304789
    potential(screened) =   -1.194876
       potential(ionic) =   -4.013592
atom: Total number of Sankey-type orbitals: 13

atm_pop: Valence configuration (for local Pseudopot. screening):
 2s( 2.00)                                                            
 2p( 2.00)                                                            
Vna: chval, zval:    4.00000   4.00000

Vna:  Cut-off radius for the neutral-atom potential:   5.658549
comcore: Pseudo-core radius Rcore=  1.791422

atom: _________________________________________________________________________

prinput: Basis input ----------------------------------------------------------

PAO.BasisType split     

%block ChemicalSpeciesLabel
    1    7 N                       # Species index, atomic number, species label
    2    6 C                       # Species index, atomic number, species label
%endblock ChemicalSpeciesLabel

%block PAO.Basis                 # Define Basis set
N                     2                    # Species label, number of l-shells
 n=2   0   2                         # n, l, Nzeta 
   4.071      2.905   
   1.000      1.000   
 n=2   1   2 P   1                   # n, l, Nzeta, Polarization, NzetaPol
   4.973      3.054   
   1.000      1.000   
C                     2                    # Species label, number of l-shells
 n=2   0   2                         # n, l, Nzeta 
   4.633      3.432   
   1.000      1.000   
 n=2   1   2 P   1                   # n, l, Nzeta, Polarization, NzetaPol
   5.659      3.653   
   1.000      1.000   
%endblock PAO.Basis

prinput: ----------------------------------------------------------------------

coor:   Atomic-coordinates input format  =     Fractional

siesta: Atomic coordinates (Bohr) and species
siesta:      4.63094  34.85847   0.00000  1        1
siesta:      6.95932  30.82560   0.00000  1        2
siesta:      6.95932  33.51406   0.00000  1        3
siesta:      9.28770  29.48119   0.00000  1        4
siesta:     -4.68258  10.66124   0.00000  1        5
siesta:     -4.68258  13.34970   0.00000  1        6
siesta:     -2.35420  14.69411   0.00000  1        7
siesta:     -2.35420  17.38257   0.00000  1        8
siesta:     -0.02582  18.72698   0.00000  1        9
siesta:     -0.02582  21.41544   0.00000  1       10
siesta:      2.30256  22.75985   0.00000  1       11
siesta:      2.30256  25.44831   0.00000  1       12
siesta:      4.63094  26.79272   0.00000  1       13
siesta:      4.63094  29.48119   0.00000  1       14
siesta:     -0.02582   2.59549   0.00000  2       15
siesta:     -0.02582   5.28395   0.00000  2       16
siesta:     -2.35420  38.89134   0.00000  2       17
siesta:     -2.35420  41.57980   0.00000  2       18
siesta:      2.30256  38.89134   0.00000  2       19
siesta:      2.30256  41.57980   0.00000  2       20
siesta:      4.63094  37.54693   0.00000  2       21
siesta:      9.28770  26.79272   0.00000  2       22
siesta:     -4.68258  34.85847   0.00000  2       23
siesta:     -4.68258  37.54693   0.00000  2       24
siesta:      2.30256   6.62836   0.00000  2       25
siesta:      2.30256   9.31683   0.00000  2       26
siesta:      4.63094  10.66124   0.00000  2       27
siesta:      4.63094  13.34970   0.00000  2       28
siesta:      6.95932  14.69411   0.00000  2       29
siesta:      6.95932  17.38257   0.00000  2       30
siesta:      9.28770  18.72698   0.00000  2       31
siesta:      9.28770  21.41544   0.00000  2       32
siesta:     11.61608  22.75985   0.00000  2       33
siesta:     11.61608  25.44831   0.00000  2       34
siesta:     -2.35420   6.62836   0.00000  2       35
siesta:     -2.35420   9.31683   0.00000  2       36
siesta:     -0.02582  10.66124   0.00000  2       37
siesta:     -0.02582  13.34970   0.00000  2       38
siesta:      2.30256  14.69411   0.00000  2       39
siesta:      2.30256  17.38257   0.00000  2       40
siesta:      4.63094  18.72698   0.00000  2       41
siesta:      4.63094  21.41544   0.00000  2       42
siesta:      6.95932  22.75985   0.00000  2       43
siesta:      6.95932  25.44831   0.00000  2       44
siesta:     -7.01096  14.69411   0.00000  2       45
siesta:     -7.01096  17.38257   0.00000  2       46
siesta:     -4.68258  18.72698   0.00000  2       47
siesta:     -4.68258  21.41544   0.00000  2       48
siesta:     -2.35420  22.75985   0.00000  2       49
siesta:     -2.35420  25.44831   0.00000  2       50
siesta:     -9.33934  18.72698   0.00000  2       51
siesta:     -9.33934  21.41544   0.00000  2       52
siesta:     -7.01096  22.75985   0.00000  2       53
siesta:     -7.01096  25.44831   0.00000  2       54
siesta:    -11.66772  22.75985   0.00000  2       55
siesta:    -11.66772  25.44831   0.00000  2       56
siesta:     -9.33934  26.79272   0.00000  2       57
siesta:     -9.33934  29.48119   0.00000  2       58
siesta:     -0.02582  26.79272   0.00000  2       59
siesta:     -0.02582  29.48119   0.00000  2       60
siesta:     -4.68258  26.79272   0.00000  2       61
siesta:     -4.68258  29.48119   0.00000  2       62
siesta:      2.30256  30.82560   0.00000  2       63
siesta:      2.30256  33.51406   0.00000  2       64
siesta:     -2.35420  30.82560   0.00000  2       65
siesta:     -2.35420  33.51406   0.00000  2       66
siesta:     -7.01096  30.82560   0.00000  2       67
siesta:     -7.01096  33.51406   0.00000  2       68
siesta:     -0.02582  34.85847   0.00000  2       69
siesta:     -0.02582  37.54693   0.00000  2       70
siesta:     -0.02582  42.92421   0.00000  2       71
siesta:     -0.02582  45.61267   0.00000  2       72

siesta: System type = slab      

initatomlists: Number of atoms, orbitals, and projectors:     72   936  1152

siesta: ******************** Simulation parameters ****************************
siesta:
siesta: The following are some of the parameters of the simulation.
siesta: A complete list of the parameters used, including default values,
siesta: can be found in file out.fdf
siesta:
redata: Non-Collinear-spin run           =     F
redata: SpinPolarized (Up/Down) run      =     F
redata: Number of spin components        =     1
redata: Long output                      =     F
redata: Number of Atomic Species         =        2
redata: Charge density info will appear in .RHO file
redata: Write Mulliken Pop.              =     NO
redata: Mesh Cutoff                      =   200.0000  Ry
redata: Net charge of the system         =     0.0000 |e|
redata: Max. number of SCF Iter          =      500
redata: SCF convergence failure will abort job
redata: Performing Pulay mixing using    =    10 iterations
redata: Mix DM in first SCF step ?       =     F
redata: Write Pulay info on disk?        =     F
redata: Discard 1st Pulay DM after  kick =     F
redata: New DM Mixing Weight             =     0.0500
redata: New DM Occupancy tolerance       = 0.000000000001
redata: No kicks to SCF
redata: DM Mixing Weight for Kicks       =     0.5000
redata: DM Tolerance for SCF             =     0.000100
redata: Require Energy convergence for SCF =     F
redata: DM Energy tolerance for SCF      =     0.000100 eV
redata: Require Harris convergence for SCF =     F
redata: DM Harris energy tolerance for SCF =     0.000100 eV
redata: Using Saved Data (generic)   =     F
redata: Use continuation files for DM    =     T
redata: Neglect nonoverlap interactions  =     F
redata: Method of Calculation            =     Diagonalization
redata: Divide and Conquer               =     T
redata: Electronic Temperature           =     0.0019  Ry
redata: Fix the spin of the system       =     F
redata: Dynamics option                  =     Verlet MD run
redata: Initial MD time step             =        1
redata:   Final MD time step             =        1
redata: Length of MD time step           =     1.0000  fs
redata: Initial Temperature of MD run    =     0.0000  K
redata: Perform a MD quench              =     F
redata: ***********************************************************************
Total number of electrons:   302.000000
Total ionic charge:   302.000000

* ProcessorY, Blocksize:    3  24

k-point displ. along   1 input, could be:     0.50    0.00
k-point displ. along   2 input, could be:     0.50    0.00
 Kpoints in:          231 . Kpoints trimmed:          231

siesta: k-grid: Number of k-points =   231
siesta: k-grid: Cutoff (effective) =     5.000 Ang
siesta: k-grid: Supercell and displacements
siesta: k-grid:   21   0   0      0.500
siesta: k-grid:    0  21   0      0.500
siesta: k-grid:    0   0   1      0.000
Naive supercell factors:     2    2    2

superc: Internal auxiliary supercell:     2 x     2 x     2  =       8
superc: Number of atoms, orbitals, and projectors:    576   7488   9216

* Maximum dynamic memory allocated =     4 MB

siesta:                 ==============================
                            Begin MD step =      1
                        ==============================

superc: Internal auxiliary supercell:     2 x     2 x     2  =       8
superc: Number of atoms, orbitals, and projectors:    576   7488   9216

outcell: Unit cell vectors (Ang):
       12.804619    7.392750    0.000000
        0.000000   14.785500    0.000000
        0.000000    0.000000   10.000000

outcell: Cell vector modules (Ang)   :   14.785500   14.785500   10.000000
outcell: Cell angles (23,13,12) (deg):     90.0000     90.0000     60.0000
outcell: Cell volume (Ang**3)        :   1893.2269
New_DM. Step:     1
Initializing Density Matrix...

InitMesh: MESH =   120 x   120 x    90 =     1296000
InitMesh: Mesh cutoff (required, used) =   200.000   223.865 Ry

* Maximum dynamic memory allocated =   135 MB

stepf: Fermi-Dirac step function

siesta: Program's energy decomposition (eV):
siesta: Ebs     =     -6151.578363
siesta: Eions   =     20653.466889
siesta: Ena     =      4870.354102
siesta: Ekin    =      7553.093915
siesta: Enl     =       230.644459
siesta: DEna    =        -0.000015
siesta: DUscf   =         0.000000
siesta: DUext   =         0.000000
siesta: Exc     =     -4519.178014
siesta: eta*DQ  =         0.000000
siesta: Emadel  =         0.000000
siesta: Emeta   =         0.000000
siesta: Emolmec =         0.000000
siesta: Ekinion =         0.000000
siesta: Eharris =    -12177.222536
siesta: Etot    =    -12518.552441
siesta: FreeEng =    -12518.552441

siesta: iscf   Eharris(eV)      E_KS(eV)   FreeEng(eV)   dDmax  Ef(eV)
siesta:    1   -12177.2225   -12518.5524   -12518.5524  6.4902 -7.1128
timer: Routine,Calls,Time,% = IterSCF        1    3000.186  99.59
elaps: Routine,Calls,Wall,% = IterSCF        1     250.609  99.59
siesta:    2   -16884.0974   -11466.9382   -11466.9890 13.9610 -3.8730
siesta:    3   -12136.1483   -12294.6218   -12294.6897  1.9508 -4.5237
siesta:    4   -12087.2232   -12190.1076   -12190.1710  1.3361 -4.3225
siesta:    5   -12034.0690   -12109.4477   -12109.4937  0.8081 -4.0451
siesta:    6   -12026.6393   -12082.2018   -12082.2725  0.7351 -3.8661
siesta:    7   -12018.1575   -12068.1726   -12068.2476  0.6692 -3.8397
siesta:    8   -12014.2456   -12060.8014   -12060.8571  0.5877 -3.8978
siesta:    9   -12012.6273   -12046.4364   -12046.5071  0.4778 -3.9154
siesta:   10   -12012.1886   -12029.3777   -12029.4450  0.3410 -3.9096
siesta:   11   -12011.8895   -12021.0857   -12021.1351  0.2488 -3.9229
siesta:   12   -12012.3521   -12003.0300   -12003.1073  0.2132 -3.8917
siesta:   13   -12012.0998   -12001.8519   -12001.9153  0.2190 -3.8903
siesta:   14   -12011.6559   -12002.9741   -12003.0442  0.1982 -3.8726
siesta:   15   -12011.3251   -12005.1273   -12005.2051  0.1341 -3.8652
siesta:   16   -12011.2287   -12005.5915   -12005.6616  0.0976 -3.8716
siesta:   17   -12011.2041   -12005.8833   -12005.9503  0.0780 -3.8721
siesta:   18   -12011.1770   -12006.9691   -12007.0405  0.0536 -3.8773
siesta:   19   -12011.1679   -12008.2930   -12008.3628  0.0322 -3.8735
siesta:   20   -12011.1670   -12009.3881   -12009.4608  0.0260 -3.8714
siesta:   21   -12011.1638   -12010.5355   -12010.6075  0.0139 -3.8692
siesta:   22   -12011.1602   -12010.7728   -12010.8444  0.0099 -3.8698
siesta:   23   -12011.1581   -12010.8945   -12010.9661  0.0090 -3.8715
siesta:   24   -12011.1575   -12010.8990   -12010.9710  0.0090 -3.8716
siesta:   25   -12011.1576   -12010.9389   -12011.0113  0.0075 -3.8713
siesta:   26   -12011.1577   -12011.0545   -12011.1267  0.0039 -3.8702
siesta:   27   -12011.1579   -12011.1706   -12011.2427  0.0024 -3.8699
siesta:   28   -12011.1578   -12011.2212   -12011.2930  0.0016 -3.8702
siesta:   29   -12011.1576   -12011.2112   -12011.2830  0.0007 -3.8705
siesta:   30   -12011.1577   -12011.1918   -12011.2638  0.0007 -3.8706
siesta:   31   -12011.1576   -12011.1885   -12011.2604  0.0005 -3.8707
siesta:   32   -12011.1576   -12011.1943   -12011.2664  0.0004 -3.8707
siesta:   33   -12011.1576   -12011.1833   -12011.2552  0.0002 -3.8707
siesta:   34   -12011.1576   -12011.1771   -12011.2491  0.0003 -3.8707
siesta:   35   -12011.1576   -12011.1633   -12011.2353  0.0002 -3.8706
siesta:   36   -12011.1576   -12011.1639   -12011.2358  0.0002 -3.8706
siesta:   37   -12011.1576   -12011.1628   -12011.2348  0.0001 -3.8706

siesta: E_KS(eV) =           -12011.1612

siesta: E_KS - E_eggbox =    -12011.1612

siesta: Atomic forces (eV/Ang):
----------------------------------------
   Tot   -0.036706    0.067787    0.000000
----------------------------------------
   Max  682.238071
   Res  172.458822    sqrt( Sum f_i^2 / 3N )
----------------------------------------
   Max  682.238071    constrained

Stress-tensor-Voigt (kbar):     -701.91    -3032.90       -0.11      -23.72        0.00        0.00
(Free)E + p*V (eV/cell)   -10540.1162
Target enthalpy (eV/cell)   -12011.2332

siesta: Stress tensor (static) (eV/Ang**3):
        -0.438096   -0.014808    0.000000
        -0.014808   -1.892964    0.000000
         0.000000    0.000000   -0.000066

siesta: Pressure (static):       1244.97218915  kBar

siesta: Stress tensor (total) (eV/Ang**3):
        -0.438096   -0.014808    0.000000
        -0.014808   -1.892964    0.000000
         0.000000    0.000000   -0.000066

siesta: Pressure (total):       1244.97218915  kBar

siesta: Temp_ion =       0.000 K

* Maximum dynamic memory allocated =   148 MB
Computing bands...

siesta: Program's energy decomposition (eV):
siesta: Ebs     =     -4900.163470
siesta: Eions   =     20653.466889
siesta: Ena     =      4870.354102
siesta: Ekin    =     10593.176732
siesta: Enl     =     -1447.569538
siesta: DEna    =      -789.877124
siesta: DUscf   =       108.017690
siesta: DUext   =         0.000000
siesta: Exc     =     -4691.796204
siesta: eta*DQ  =         0.000000
siesta: Emadel  =         0.000000
siesta: Emeta   =         0.000000
siesta: Emolmec =         0.000000
siesta: Ekinion =         0.000000
siesta: Eharris =    -12011.157643
siesta: Etot    =    -12011.161232
siesta: FreeEng =    -12011.233202

siesta: Final energy (eV):
siesta:  Band Struct. =   -4900.163470
siesta:       Kinetic =   10593.176732
siesta:       Hartree =   34265.916837
siesta:    Ext. field =       0.000000
siesta:   Exch.-corr. =   -4691.796204
siesta:  Ion-electron =  -78694.279735
siesta:       Ion-ion =   26515.821138
siesta:       Ekinion =       0.000000
siesta:         Total =  -12011.161232

siesta: Atomic forces (eV/Ang):
siesta:      1   25.292830   10.770259    0.000000
siesta:      2    1.587514    0.034519    0.000000
siesta:      3   -0.154910   -3.757857    0.000000
siesta:      4   -1.527277    1.430303    0.000000
siesta:      5  -22.713752  651.981890    0.000000
siesta:      6  -32.982788   -4.500366    0.000000
siesta:      7    4.591078  675.761097    0.000000
siesta:      8  -32.152319   -8.902526    0.000000
siesta:      9   15.194712  682.238071    0.000000
siesta:     10    0.066840   -2.490729    0.000000
siesta:     11    2.365636    0.338714    0.000000
siesta:     12   -0.288922    2.235970    0.000000
siesta:     13    0.624370   -1.614281    0.000000
siesta:     14   -1.561879   -1.849775    0.000000
siesta:     15   -0.546521  548.945308    0.000000
siesta:     16    4.573223 -129.283185    0.000000
siesta:     17    1.929062  122.065996    0.000000
siesta:     18  -34.946344 -653.830815    0.000000
siesta:     19   -0.865732  126.706665    0.000000
siesta:     20   12.096808 -545.854120    0.000000
siesta:     21   26.865413 -549.987819    0.000000
siesta:     22    0.017402    2.194537    0.000000
siesta:     23  -26.628784    5.883287    0.000000
siesta:     24  -35.515562 -656.794439    0.000000
siesta:     25   31.691203  550.567435    0.000000
siesta:     26    0.945086 -124.204168    0.000000
siesta:     27   33.513918  551.613782    0.000000
siesta:     28   27.269858   -5.400963    0.000000
siesta:     29   -1.790009   -1.070557    0.000000
siesta:     30    2.135346   -0.200999    0.000000
siesta:     31   -1.090234   -0.384992    0.000000
siesta:     32    2.101816   -2.214645    0.000000
siesta:     33   -0.387377    6.847085    0.000000
siesta:     34   -0.606242   -5.240618    0.000000
siesta:     35  -16.147311  548.042858    0.000000
siesta:     36    4.729534 -132.783362    0.000000
siesta:     37   -3.492384  543.975018    0.000000
siesta:     38    3.720589 -127.831389    0.000000
siesta:     39   24.533975  555.166384    0.000000
siesta:     40   25.153107   -9.918747    0.000000
siesta:     41   -1.624298    3.929368    0.000000
siesta:     42   -0.619383   -0.935869    0.000000
siesta:     43   -0.870316    1.522930    0.000000
siesta:     44    0.009451   -0.708351    0.000000
siesta:     45    1.870134   -1.357864    0.000000
siesta:     46   -0.734786   -0.771280    0.000000
siesta:     47    0.799181    2.604366    0.000000
siesta:     48    1.152053   -1.245716    0.000000
siesta:     49   -0.518300    0.789863    0.000000
siesta:     50    1.060888   -1.416271    0.000000
siesta:     51    0.745261   -0.208496    0.000000
siesta:     52   -1.489320   -2.401412    0.000000
siesta:     53   -0.138318    1.001156    0.000000
siesta:     54    0.343365   -0.934212    0.000000
siesta:     55   -0.194961    7.533512    0.000000
siesta:     56    0.351233   -7.508498    0.000000
siesta:     57   -2.295803    2.352759    0.000000
siesta:     58    0.878276    0.194049    0.000000
siesta:     59    1.060223   -0.733051    0.000000
siesta:     60    2.072368 -565.935302    0.000000
siesta:     61   -0.492210    0.656724    0.000000
siesta:     62    1.060477   -3.072244    0.000000
siesta:     63   22.448047    8.407926    0.000000
siesta:     64    5.507891 -570.327336    0.000000
siesta:     65  -23.054235    7.859942    0.000000
siesta:     66  -23.096062 -558.389253    0.000000
siesta:     67   -1.535262    0.188009    0.000000
siesta:     68    2.029650    1.546560    0.000000
siesta:     69   -1.009224  124.798340    0.000000
siesta:     70   -3.130826 -542.588878    0.000000
siesta:     71   -4.816225  118.040679    0.000000
siesta:     72  -13.406646 -641.507192    0.000000
siesta: ----------------------------------------
siesta:    Tot   -0.036706    0.067787    0.000000

siesta: Stress tensor (static) (eV/Ang**3):
siesta:    -0.438096   -0.014808    0.000000
siesta:    -0.014808   -1.892964    0.000000
siesta:     0.000000    0.000000   -0.000066

siesta: Cell volume =       1893.226884 Ang**3

siesta: Pressure (static):
siesta:                Solid            Molecule  Units
siesta:           0.00846298          0.13506848  Ry/Bohr**3
siesta:           0.77704212         12.40152894  eV/Ang**3
siesta:        1244.97218915      19869.65466595  kBar
(Free)E+ p_basis*V_orbitals  =      -11982.497074
(Free)Eharris+ p_basis*V_orbitals  =      -11982.491923

siesta: Electric dipole (a.u.)  =    0.000000    0.000000    0.000000
siesta: Electric dipole (Debye) =    0.000000    0.000000    0.000000

* Maximum dynamic memory allocated : Node    0 =   148 MB
* Maximum dynamic memory allocated : Node    1 =    59 MB
* Maximum dynamic memory allocated : Node    2 =    61 MB
* Maximum dynamic memory allocated : Node    3 =   136 MB
* Maximum dynamic memory allocated : Node    4 =   144 MB
* Maximum dynamic memory allocated : Node    5 =    52 MB
* Maximum dynamic memory allocated : Node    6 =    54 MB
* Maximum dynamic memory allocated : Node    7 =   139 MB
* Maximum dynamic memory allocated : Node    8 =   128 MB
* Maximum dynamic memory allocated : Node    9 =    53 MB
* Maximum dynamic memory allocated : Node   10 =    54 MB
* Maximum dynamic memory allocated : Node   11 =   120 MB

* Maximum memory occured during matrixMtoO                    

timer: CPU execution times:
timer:  Routine       Calls   Time/call    Tot.time        %
timer:  siesta            1  109080.128  109080.128   100.00
timer:  Setup             1       3.386       3.386     0.00
timer:  bands             3     226.072     678.216     0.62
timer:  writewave         1       0.022       0.022     0.00
timer:  KSV_init          1       0.004       0.004     0.00
timer:  IterMD            1  108391.679  108391.679    99.37
timer:  hsparse           1       0.169       0.169     0.00
timer:  overlap           1       7.032       7.032     0.01
timer:  IterSCF          37    2926.174  108268.431    99.26
timer:  kinefsm           2       3.557       7.114     0.01
timer:  nlefsm            2      18.092      36.185     0.03
timer:  DHSCF            38      61.335    2330.728     2.14
timer:  DHSCF1            1       0.903       0.903     0.00
timer:  DHSCF2            1      24.622      24.622     0.02
timer:  REORD           306       0.003       0.775     0.00
timer:  POISON           39       0.449      17.508     0.02
timer:  DHSCF3           38      60.103    2283.914     2.09
timer:  rhoofd           38      12.403     471.320     0.43
timer:  cellXC           38       2.487      94.498     0.09
timer:  vmat             38      28.284    1074.780     0.99
timer:  MolMec            2       0.000       0.000     0.00
timer:  diagon           37    2863.633  105954.403    97.13
timer:  c-eigval       8668       5.584   48400.358    44.37
timer:  c-buildHS      8668       0.033     285.017     0.26
timer:  cdiag         17215       5.685   97873.296    89.73
timer:  cdiag1        17215       0.261    4492.378     4.12
timer:  cdiag2        17215       1.835   31582.549    28.95
timer:  cdiag3        17215       3.381   58207.902    53.36
timer:  cdiag4        17215       0.088    1513.189     1.39
timer:  c-eigvec       8547       5.849   49989.430    45.83
timer:  c-buildD       8547       0.959    8195.805     7.51
timer:  DHSCF4            1      21.058      21.058     0.02
timer:  dfscf             1      19.634      19.634     0.02
timer:  overfsm           1       0.282       0.282     0.00
timer:  optical           1       6.250       6.250     0.01
  

elaps: ELAPSED times:
elaps:  Routine       Calls   Time/call    Tot.time        %
elaps:  siesta            1    9111.747    9111.747   100.00
elaps:  Setup             1       0.285       0.285     0.00
elaps:  bands             3      18.899      56.696     0.62
elaps:  writewave         1       0.002       0.002     0.00
elaps:  KSV_init          1       0.000       0.000     0.00
elaps:  IterMD            1    9054.240    9054.240    99.37
elaps:  hsparse           1       0.016       0.016     0.00
elaps:  overlap           1       0.710       0.710     0.01
elaps:  IterSCF          37     244.431    9043.946    99.26
elaps:  kinefsm           2       0.362       0.725     0.01
elaps:  nlefsm            2       1.554       3.109     0.03
elaps:  DHSCF            38       5.171     196.501     2.16
elaps:  DHSCF1            1       0.077       0.077     0.00
elaps:  DHSCF2            1       2.055       2.055     0.02
elaps:  REORD           306       0.000       0.091     0.00
elaps:  POISON           39       0.038       1.469     0.02
elaps:  DHSCF3           38       5.020     190.773     2.09
elaps:  rhoofd           38       2.273      86.383     0.95
elaps:  cellXC           38       0.207       7.876     0.09
elaps:  vmat             38       2.363      89.789     0.99
elaps:  MolMec            2       0.000       0.000     0.00
elaps:  diagon           37     239.211    8850.790    97.14
elaps:  c-eigval       8668       0.466    4042.792    44.37
elaps:  c-buildHS      8668       0.003      29.851     0.33
elaps:  cdiag         17215       0.472    8120.091    89.12
elaps:  cdiag1        17215       0.021     368.278     4.04
elaps:  cdiag2        17215       0.153    2640.809    28.98
elaps:  cdiag3        17215       0.283    4868.798    53.43
elaps:  cdiag4        17215       0.007     122.280     1.34
elaps:  c-eigvec       8547       0.483    4132.226    45.35
elaps:  c-buildD       8547       0.085     728.023     7.99
elaps:  DHSCF4            1       3.545       3.545     0.04
elaps:  dfscf             1       3.354       3.354     0.04
elaps:  overfsm           1       0.030       0.030     0.00
elaps:  optical           1       0.000       0.000     0.00
  
>> End of run:   8-MAY-2016   5:39:47
