Siesta Version:                                        siesta-3.2-pl-3
Architecture  : x86_64-unknown-linux-gnu--unknown
Compiler flags: mpiifort -g -O2 -fPIC -xSSE4.1 -fp-model source -shared-intel 
PARALLEL version

* Running on   12 nodes in parallel
>> Start of run:   7-MAY-2016   9:18:54

                           ***********************       
                           *  WELCOME TO SIESTA  *       
                           ***********************       

reinit: Reading from standard input
************************** Dump of input data file ****************************
#(1) General system descriptors
SystemName            GRP_doping    # Descriptive name of the system
SystemLabel           GRP_doping    # Short name for naming files
%include STRUCT.fdf
%include KPT.fdf
%include BASIS.fdf
#%include TS.fdf # for transiesta calculation
#(4) DFT, Grid, SCF
XC.functional         GGA           # LDA or GGA (default = LDA)
XC.authors            PBE           # CA (Ceperley-Aldr) = PZ
                                    #    (Perdew-Zunger) - LDA - Default
                                    # PW92 (Perdew-Wang-92) - LDA
                                    # PBE (Perdew-Burke-Ernzerhof) - GGA
MeshCutoff            200.000000    Ry      # Default: 50.0 Ry ~ 0.444 Bohr
                                    #         100.0 Ry ~ 0.314 Bohr
MaxSCFIterations      500           # Default: 50
DM.MixingWeight       0.05          # Default: 0.25
DM.NumberPulay        10            # Default: 0
DM.PulayOnFile        F             # SystemLabel.P1, SystemLabel.P2
DM.Tolerance          1.d-4         # Default: 1.d-4
DM.UseSaveDM          .true.        # because of the bug
SCFMustConverge       .true.
NeglNonOverlapInt     F             # Default: F
#(5) Eigenvalue problem: order-N or diagonalization
SolutionMethod        Diagon        # or Transiesta
ElectronicTemperature 300.0 K       # Default: 300.0 K
#(6) Molecular dynamics and relaxations
#MD.TypeOfRun          CG            # Type of dynamics:
#MD.VariableCell       F
#MD.NumCGsteps         0           # 0 for single-point / 100 for gopt
#MD.MaxCGDispl         0.2 Bohr      # Default: 0.2 Bohr
#MD.MaxForceTol        0.02 eV/Ang   # Default: 0.04 eV/Ang
#MD.MaxStressTol       1.0 GPa       # Default: 1.0 GPa
# Geometry Constraints
#%block GeometryConstraints
#	position from 1 to 44
#%endblock GeometryConstraints
BandLinesScale   pi/a
%block BandLines
 1   0.00000000  0.00000000  0.00000000
50   0.00000000  0.07809418  0.00000000
50   0.04509075  0.07809242  0.00000000
20   0.00000000  0.00000000  0.00000000
%endblock BandLines
************************** End of input data file *****************************

reinit: -----------------------------------------------------------------------
reinit: System Name: GRP_doping
reinit: -----------------------------------------------------------------------
reinit: System Label: GRP_doping                                                  
reinit: -----------------------------------------------------------------------

initatom: Reading input for the pseudopotentials and atomic orbitals ----------
 Species number:            1  Label: N Atomic number:           7
 Species number:            2  Label: C Atomic number:           6
Ground state valence configuration:   2s02  2p03
Reading pseudopotential information in formatted form from N.psf

Valence configuration for pseudopotential generation:
2s( 2.00) rc: 1.48
2p( 3.00) rc: 1.48
3d( 0.00) rc: 1.48
4f( 0.00) rc: 1.48
Ground state valence configuration:   2s02  2p02
Reading pseudopotential information in formatted form from C.psf

Valence configuration for pseudopotential generation:
2s( 2.00) rc: 1.54
2p( 2.00) rc: 1.54
3d( 0.00) rc: 1.54
4f( 0.00) rc: 1.54
For N, standard SIESTA heuristics set lmxkb to 3
 (one more than the basis l, including polarization orbitals).
Use PS.lmax or PS.KBprojectors blocks to override.
For C, standard SIESTA heuristics set lmxkb to 3
 (one more than the basis l, including polarization orbitals).
Use PS.lmax or PS.KBprojectors blocks to override.

<basis_specs>
===============================================================================
N                    Z=   7    Mass=  14.010        Charge= 0.17977+309
Lmxo=1 Lmxkb= 3    BasisType=split      Semic=F
L=0  Nsemic=0  Cnfigmx=2
          n=1  nzeta=2  polorb=0
            splnorm:   0.15000    
               vcte:    0.0000    
               rinn:    0.0000    
                rcs:    0.0000      0.0000    
            lambdas:    1.0000      1.0000    
L=1  Nsemic=0  Cnfigmx=2
          n=1  nzeta=2  polorb=1
            splnorm:   0.15000    
               vcte:    0.0000    
               rinn:    0.0000    
                rcs:    0.0000      0.0000    
            lambdas:    1.0000      1.0000    
-------------------------------------------------------------------------------
L=0  Nkbl=1  erefs: 0.17977+309
L=1  Nkbl=1  erefs: 0.17977+309
L=2  Nkbl=1  erefs: 0.17977+309
L=3  Nkbl=1  erefs: 0.17977+309
===============================================================================
</basis_specs>

atom: Called for N                     (Z =   7)

read_vps: Pseudopotential generation method:
read_vps: ATM3      Troullier-Martins                       
Total valence charge:    5.00000

read_vps: Pseudopotential includes a core correction:
read_vps: Pseudo-core for xc-correction

xc_check: Exchange-correlation functional:
xc_check: GGA Perdew, Burke & Ernzerhof 1996
V l=0 = -2*Zval/r beyond r=  1.4606
V l=1 = -2*Zval/r beyond r=  1.4606
V l=2 = -2*Zval/r beyond r=  1.4606
V l=3 = -2*Zval/r beyond r=  1.4606
All V_l potentials equal beyond r=  1.4606
This should be close to max(r_c) in ps generation
All pots = -2*Zval/r beyond r=  1.4606

VLOCAL1: 99.0% of the norm of Vloc inside     20.347 Ry
VLOCAL1: 99.9% of the norm of Vloc inside     46.372 Ry
atom: Maximum radius for 4*pi*r*r*local-pseudopot. charge    1.76189
atom: Maximum radius for r*vlocal+2*Zval:    1.53550
GHOST: No ghost state for L =  0
GHOST: No ghost state for L =  1
GHOST: No ghost state for L =  2
GHOST: No ghost state for L =  3

KBgen: Kleinman-Bylander projectors: 
   l= 0   rc=  1.634559   el= -1.363963   Ekb=  5.296955   kbcos=  0.335621
   l= 1   rc=  1.614250   el= -0.521451   Ekb= -5.259161   kbcos= -0.433408
   l= 2   rc=  1.718383   el=  0.001991   Ekb= -1.271464   kbcos= -0.007566
   l= 3   rc=  1.761893   el=  0.003093   Ekb= -0.494769   kbcos= -0.001015

KBgen: Total number of  Kleinman-Bylander projectors:   16
atom: -------------------------------------------------------------------------

atom: SANKEY-TYPE ORBITALS:
atom: Selected multiple-zeta basis: split     

SPLIT: Orbitals with angular momentum L= 0

SPLIT: Basis orbitals for state 2s

SPLIT: PAO cut-off radius determined from an
SPLIT: energy shift=  0.007350 Ry

   izeta = 1
                 lambda =    1.000000
                     rc =    4.071465
                 energy =   -1.356470
                kinetic =    1.176977
    potential(screened) =   -2.533447
       potential(ionic) =   -8.057990

   izeta = 2
                 rmatch =    2.905100
              splitnorm =    0.150000
                 energy =   -1.158343
                kinetic =    1.813009
    potential(screened) =   -2.971352
       potential(ionic) =   -8.901931

SPLIT: Orbitals with angular momentum L= 1

SPLIT: Basis orbitals for state 2p

SPLIT: PAO cut-off radius determined from an
SPLIT: energy shift=  0.007350 Ry

   izeta = 1
                 lambda =    1.000000
                     rc =    4.972977
                 energy =   -0.513884
                kinetic =    3.441732
    potential(screened) =   -3.955616
       potential(ionic) =   -9.287901

   izeta = 2
                 rmatch =    3.054066
              splitnorm =    0.150000
                 energy =   -0.318226
                kinetic =    5.125348
    potential(screened) =   -5.443573
       potential(ionic) =  -11.380999

POLgen: Perturbative polarization orbital with L=  2

POLgen: Polarization orbital for state 2p

   izeta = 1
                     rc =    4.972977
                 energy =    1.607437
                kinetic =    3.268125
    potential(screened) =   -1.660688
       potential(ionic) =   -5.973652
atom: Total number of Sankey-type orbitals: 13

atm_pop: Valence configuration (for local Pseudopot. screening):
 2s( 2.00)                                                            
 2p( 3.00)                                                            
Vna: chval, zval:    5.00000   5.00000

Vna:  Cut-off radius for the neutral-atom potential:   4.972977
comcore: Pseudo-core radius Rcore=  1.554824

atom: _________________________________________________________________________

<basis_specs>
===============================================================================
C                    Z=   6    Mass=  12.010        Charge= 0.17977+309
Lmxo=1 Lmxkb= 3    BasisType=split      Semic=F
L=0  Nsemic=0  Cnfigmx=2
          n=1  nzeta=2  polorb=0
            splnorm:   0.15000    
               vcte:    0.0000    
               rinn:    0.0000    
                rcs:    0.0000      0.0000    
            lambdas:    1.0000      1.0000    
L=1  Nsemic=0  Cnfigmx=2
          n=1  nzeta=2  polorb=1
            splnorm:   0.15000    
               vcte:    0.0000    
               rinn:    0.0000    
                rcs:    0.0000      0.0000    
            lambdas:    1.0000      1.0000    
-------------------------------------------------------------------------------
L=0  Nkbl=1  erefs: 0.17977+309
L=1  Nkbl=1  erefs: 0.17977+309
L=2  Nkbl=1  erefs: 0.17977+309
L=3  Nkbl=1  erefs: 0.17977+309
===============================================================================
</basis_specs>

atom: Called for C                     (Z =   6)

read_vps: Pseudopotential generation method:
read_vps: ATM3      Troullier-Martins                       
Total valence charge:    4.00000

read_vps: Pseudopotential includes a core correction:
read_vps: Pseudo-core for xc-correction

xc_check: Exchange-correlation functional:
xc_check: GGA Perdew, Burke & Ernzerhof 1996
V l=0 = -2*Zval/r beyond r=  1.5227
V l=1 = -2*Zval/r beyond r=  1.5227
V l=2 = -2*Zval/r beyond r=  1.5227
V l=3 = -2*Zval/r beyond r=  1.5038
All V_l potentials equal beyond r=  1.5227
This should be close to max(r_c) in ps generation
All pots = -2*Zval/r beyond r=  1.5227

VLOCAL1: 99.0% of the norm of Vloc inside     18.722 Ry
VLOCAL1: 99.9% of the norm of Vloc inside     42.668 Ry
atom: Maximum radius for 4*pi*r*r*local-pseudopot. charge    1.83678
atom: Maximum radius for r*vlocal+2*Zval:    1.58088
GHOST: No ghost state for L =  0
GHOST: No ghost state for L =  1
GHOST: No ghost state for L =  2
GHOST: No ghost state for L =  3

KBgen: Kleinman-Bylander projectors: 
   l= 0   rc=  1.704034   el= -1.009801   Ekb=  5.335044   kbcos=  0.316824
   l= 1   rc=  1.704034   el= -0.388707   Ekb= -3.785862   kbcos= -0.366464
   l= 2   rc=  1.791422   el=  0.001971   Ekb= -0.970471   kbcos= -0.009212
   l= 3   rc=  1.859892   el=  0.003065   Ekb= -0.399525   kbcos= -0.001223

KBgen: Total number of  Kleinman-Bylander projectors:   16
atom: -------------------------------------------------------------------------

atom: SANKEY-TYPE ORBITALS:
atom: Selected multiple-zeta basis: split     

SPLIT: Orbitals with angular momentum L= 0

SPLIT: Basis orbitals for state 2s

SPLIT: PAO cut-off radius determined from an
SPLIT: energy shift=  0.007350 Ry

   izeta = 1
                 lambda =    1.000000
                     rc =    4.632753
                 energy =   -1.002270
                kinetic =    0.855760
    potential(screened) =   -1.858031
       potential(ionic) =   -5.417575

   izeta = 2
                 rmatch =    3.431921
              splitnorm =    0.150000
                 energy =   -0.867111
                kinetic =    1.300804
    potential(screened) =   -2.167915
       potential(ionic) =   -5.962684

SPLIT: Orbitals with angular momentum L= 1

SPLIT: Basis orbitals for state 2p

SPLIT: PAO cut-off radius determined from an
SPLIT: energy shift=  0.007350 Ry

   izeta = 1
                 lambda =    1.000000
                     rc =    5.658549
                 energy =   -0.381140
                kinetic =    2.399701
    potential(screened) =   -2.780841
       potential(ionic) =   -6.206085

   izeta = 2
                 rmatch =    3.653288
              splitnorm =    0.150000
                 energy =   -0.249149
                kinetic =    3.542762
    potential(screened) =   -3.791911
       potential(ionic) =   -7.581078

POLgen: Perturbative polarization orbital with L=  2

POLgen: Polarization orbital for state 2p

   izeta = 1
                     rc =    5.658549
                 energy =    1.109913
                kinetic =    2.304789
    potential(screened) =   -1.194876
       potential(ionic) =   -4.013592
atom: Total number of Sankey-type orbitals: 13

atm_pop: Valence configuration (for local Pseudopot. screening):
 2s( 2.00)                                                            
 2p( 2.00)                                                            
Vna: chval, zval:    4.00000   4.00000

Vna:  Cut-off radius for the neutral-atom potential:   5.658549
comcore: Pseudo-core radius Rcore=  1.791422

atom: _________________________________________________________________________

prinput: Basis input ----------------------------------------------------------

PAO.BasisType split     

%block ChemicalSpeciesLabel
    1    7 N                       # Species index, atomic number, species label
    2    6 C                       # Species index, atomic number, species label
%endblock ChemicalSpeciesLabel

%block PAO.Basis                 # Define Basis set
N                     2                    # Species label, number of l-shells
 n=2   0   2                         # n, l, Nzeta 
   4.071      2.905   
   1.000      1.000   
 n=2   1   2 P   1                   # n, l, Nzeta, Polarization, NzetaPol
   4.973      3.054   
   1.000      1.000   
C                     2                    # Species label, number of l-shells
 n=2   0   2                         # n, l, Nzeta 
   4.633      3.432   
   1.000      1.000   
 n=2   1   2 P   1                   # n, l, Nzeta, Polarization, NzetaPol
   5.659      3.653   
   1.000      1.000   
%endblock PAO.Basis

prinput: ----------------------------------------------------------------------

coor:   Atomic-coordinates input format  =     Fractional

siesta: Atomic coordinates (Bohr) and species
siesta:     -2.35420  17.38257   0.00000  1        1
siesta:     -0.02582  18.72698   0.00000  1        2
siesta:      2.30256  22.75985   0.00000  1        3
siesta:      2.30256  25.44831   0.00000  1        4
siesta:     -4.68258  18.72698   0.00000  1        5
siesta:     -4.68258  21.41544   0.00000  1        6
siesta:     -2.35420  25.44831   0.00000  1        7
siesta:     -7.01096  22.75985   0.00000  1        8
siesta:     -0.02582  26.79272   0.00000  1        9
siesta:     -4.68258  26.79272   0.00000  1       10
siesta:     -0.02582   2.59549   0.00000  2       11
siesta:     -0.02582   5.28395   0.00000  2       12
siesta:     -2.35420  38.89134   0.00000  2       13
siesta:     -2.35420  41.57980   0.00000  2       14
siesta:      2.30256  38.89134   0.00000  2       15
siesta:      2.30256  41.57980   0.00000  2       16
siesta:      4.63094  34.85847   0.00000  2       17
siesta:      4.63094  37.54693   0.00000  2       18
siesta:      6.95932  30.82560   0.00000  2       19
siesta:      6.95932  33.51406   0.00000  2       20
siesta:      9.28770  26.79272   0.00000  2       21
siesta:      9.28770  29.48119   0.00000  2       22
siesta:     -4.68258  34.85847   0.00000  2       23
siesta:     -4.68258  37.54693   0.00000  2       24
siesta:      2.30256   6.62836   0.00000  2       25
siesta:      2.30256   9.31683   0.00000  2       26
siesta:      4.63094  10.66124   0.00000  2       27
siesta:      4.63094  13.34970   0.00000  2       28
siesta:      6.95932  14.69411   0.00000  2       29
siesta:      6.95932  17.38257   0.00000  2       30
siesta:      9.28770  18.72698   0.00000  2       31
siesta:      9.28770  21.41544   0.00000  2       32
siesta:     11.61608  22.75985   0.00000  2       33
siesta:     11.61608  25.44831   0.00000  2       34
siesta:     -2.35420   6.62836   0.00000  2       35
siesta:     -2.35420   9.31683   0.00000  2       36
siesta:     -0.02582  10.66124   0.00000  2       37
siesta:     -0.02582  13.34970   0.00000  2       38
siesta:      2.30256  14.69411   0.00000  2       39
siesta:      2.30256  17.38257   0.00000  2       40
siesta:      4.63094  18.72698   0.00000  2       41
siesta:      4.63094  21.41544   0.00000  2       42
siesta:      6.95932  22.75985   0.00000  2       43
siesta:      6.95932  25.44831   0.00000  2       44
siesta:     -4.68258  10.66124   0.00000  2       45
siesta:     -4.68258  13.34970   0.00000  2       46
siesta:     -2.35420  14.69411   0.00000  2       47
siesta:     -0.02582  21.41544   0.00000  2       48
siesta:     -7.01096  14.69411   0.00000  2       49
siesta:     -7.01096  17.38257   0.00000  2       50
siesta:     -2.35420  22.75985   0.00000  2       51
siesta:     -9.33934  18.72698   0.00000  2       52
siesta:     -9.33934  21.41544   0.00000  2       53
siesta:     -7.01096  25.44831   0.00000  2       54
siesta:    -11.66772  22.75985   0.00000  2       55
siesta:    -11.66772  25.44831   0.00000  2       56
siesta:     -9.33934  26.79272   0.00000  2       57
siesta:     -9.33934  29.48119   0.00000  2       58
siesta:      4.63094  26.79272   0.00000  2       59
siesta:      4.63094  29.48119   0.00000  2       60
siesta:     -0.02582  29.48119   0.00000  2       61
siesta:     -4.68258  29.48119   0.00000  2       62
siesta:      2.30256  30.82560   0.00000  2       63
siesta:      2.30256  33.51406   0.00000  2       64
siesta:     -2.35420  30.82560   0.00000  2       65
siesta:     -2.35420  33.51406   0.00000  2       66
siesta:     -7.01096  30.82560   0.00000  2       67
siesta:     -7.01096  33.51406   0.00000  2       68
siesta:     -0.02582  34.85847   0.00000  2       69
siesta:     -0.02582  37.54693   0.00000  2       70
siesta:     -0.02582  42.92421   0.00000  2       71
siesta:     -0.02582  45.61267   0.00000  2       72

siesta: System type = slab      

initatomlists: Number of atoms, orbitals, and projectors:     72   936  1152

siesta: ******************** Simulation parameters ****************************
siesta:
siesta: The following are some of the parameters of the simulation.
siesta: A complete list of the parameters used, including default values,
siesta: can be found in file out.fdf
siesta:
redata: Non-Collinear-spin run           =     F
redata: SpinPolarized (Up/Down) run      =     F
redata: Number of spin components        =     1
redata: Long output                      =     F
redata: Number of Atomic Species         =        2
redata: Charge density info will appear in .RHO file
redata: Write Mulliken Pop.              =     NO
redata: Mesh Cutoff                      =   200.0000  Ry
redata: Net charge of the system         =     0.0000 |e|
redata: Max. number of SCF Iter          =      500
redata: SCF convergence failure will abort job
redata: Performing Pulay mixing using    =    10 iterations
redata: Mix DM in first SCF step ?       =     F
redata: Write Pulay info on disk?        =     F
redata: Discard 1st Pulay DM after  kick =     F
redata: New DM Mixing Weight             =     0.0500
redata: New DM Occupancy tolerance       = 0.000000000001
redata: No kicks to SCF
redata: DM Mixing Weight for Kicks       =     0.5000
redata: DM Tolerance for SCF             =     0.000100
redata: Require Energy convergence for SCF =     F
redata: DM Energy tolerance for SCF      =     0.000100 eV
redata: Require Harris convergence for SCF =     F
redata: DM Harris energy tolerance for SCF =     0.000100 eV
redata: Using Saved Data (generic)   =     F
redata: Use continuation files for DM    =     T
redata: Neglect nonoverlap interactions  =     F
redata: Method of Calculation            =     Diagonalization
redata: Divide and Conquer               =     T
redata: Electronic Temperature           =     0.0019  Ry
redata: Fix the spin of the system       =     F
redata: Dynamics option                  =     Verlet MD run
redata: Initial MD time step             =        1
redata:   Final MD time step             =        1
redata: Length of MD time step           =     1.0000  fs
redata: Initial Temperature of MD run    =     0.0000  K
redata: Perform a MD quench              =     F
redata: ***********************************************************************
Total number of electrons:   298.000000
Total ionic charge:   298.000000

* ProcessorY, Blocksize:    3  24

k-point displ. along   1 input, could be:     0.50    0.00
k-point displ. along   2 input, could be:     0.50    0.00
 Kpoints in:          231 . Kpoints trimmed:          231

siesta: k-grid: Number of k-points =   231
siesta: k-grid: Cutoff (effective) =     5.000 Ang
siesta: k-grid: Supercell and displacements
siesta: k-grid:   21   0   0      0.500
siesta: k-grid:    0  21   0      0.500
siesta: k-grid:    0   0   1      0.000
Naive supercell factors:     2    2    2

superc: Internal auxiliary supercell:     2 x     2 x     2  =       8
superc: Number of atoms, orbitals, and projectors:    576   7488   9216

* Maximum dynamic memory allocated =     4 MB

siesta:                 ==============================
                            Begin MD step =      1
                        ==============================

superc: Internal auxiliary supercell:     2 x     2 x     2  =       8
superc: Number of atoms, orbitals, and projectors:    576   7488   9216

outcell: Unit cell vectors (Ang):
       12.804619    7.392750    0.000000
        0.000000   14.785500    0.000000
        0.000000    0.000000   10.000000

outcell: Cell vector modules (Ang)   :   14.785500   14.785500   10.000000
outcell: Cell angles (23,13,12) (deg):     90.0000     90.0000     60.0000
outcell: Cell volume (Ang**3)        :   1893.2269
New_DM. Step:     1
Initializing Density Matrix...

InitMesh: MESH =   120 x   120 x    90 =     1296000
InitMesh: Mesh cutoff (required, used) =   200.000   223.865 Ry

* Maximum dynamic memory allocated =   137 MB

stepf: Fermi-Dirac step function

siesta: Program's energy decomposition (eV):
siesta: Ebs     =     -6043.587704
siesta: Eions   =     20010.479513
siesta: Ena     =      4819.031343
siesta: Ekin    =      7217.402668
siesta: Enl     =       345.581612
siesta: DEna    =        -0.000015
siesta: DUscf   =         0.000000
siesta: DUext   =         0.000000
siesta: Exc     =     -4414.274828
siesta: eta*DQ  =         0.000000
siesta: Emadel  =         0.000000
siesta: Emeta   =         0.000000
siesta: Emolmec =         0.000000
siesta: Ekinion =         0.000000
siesta: Eharris =    -11712.183092
siesta: Etot    =    -12042.738733
siesta: FreeEng =    -12042.738733

siesta: iscf   Eharris(eV)      E_KS(eV)   FreeEng(eV)   dDmax  Ef(eV)
siesta:    1   -11712.1831   -12042.7387   -12042.7387  6.2913 -7.3113
timer: Routine,Calls,Time,% = IterSCF        1    3011.785  99.59
elaps: Routine,Calls,Wall,% = IterSCF        1     251.579  99.59
siesta:    2   -17747.3912   -10896.5591   -10896.6047 24.0508 -6.8032
siesta:    3   -11666.2342   -11860.3644   -11860.3726  2.7055 -5.1288
siesta:    4   -11613.5974   -11735.9150   -11735.9261  1.2380 -4.7022
siesta:    5   -11569.0504   -11656.7532   -11656.7677  0.9303 -4.0171
siesta:    6   -11561.8196   -11612.0244   -11612.0423  0.8361 -3.8838
siesta:    7   -11551.3399   -11586.1062   -11586.1630  0.7042 -3.8338
siesta:    8   -11548.7281   -11574.8065   -11574.8701  0.6138 -3.9405
siesta:    9   -11548.2205   -11560.3523   -11560.4044  0.4810 -4.0176
siesta:   10   -11549.2423   -11545.3902   -11545.4549  0.3201 -4.0731
siesta:   11   -11547.6840   -11542.0908   -11542.1646  0.2776 -3.9968
siesta:   12   -11548.1800   -11529.9175   -11529.9872  0.1597 -3.9708
siesta:   13   -11547.8263   -11529.0589   -11529.1240  0.1703 -3.9322
siesta:   14   -11547.3500   -11532.1036   -11532.1668  0.1383 -3.9488
siesta:   15   -11546.7768   -11533.7549   -11533.8145  0.0941 -3.9803
siesta:   16   -11546.6428   -11537.3293   -11537.3956  0.0718 -3.9968
siesta:   17   -11546.5362   -11540.9118   -11540.9796  0.0730 -4.0290
siesta:   18   -11546.5108   -11542.3583   -11542.4239  0.0577 -4.0293
siesta:   19   -11546.4796   -11544.4844   -11544.5504  0.0213 -4.0217
siesta:   20   -11546.4721   -11544.9219   -11544.9891  0.0166 -4.0209
siesta:   21   -11546.4683   -11545.3595   -11545.4279  0.0133 -4.0185
siesta:   22   -11546.4664   -11546.2060   -11546.2744  0.0148 -4.0171
siesta:   23   -11546.4646   -11546.7823   -11546.8502  0.0114 -4.0163
siesta:   24   -11546.4636   -11547.0170   -11547.0850  0.0084 -4.0147
siesta:   25   -11546.4633   -11546.8754   -11546.9436  0.0055 -4.0137
siesta:   26   -11546.4630   -11546.6724   -11546.7406  0.0024 -4.0138
siesta:   27   -11546.4631   -11546.6244   -11546.6927  0.0020 -4.0131
siesta:   28   -11546.4631   -11546.5214   -11546.5896  0.0016 -4.0129
siesta:   29   -11546.4631   -11546.5020   -11546.5701  0.0012 -4.0131
siesta:   30   -11546.4631   -11546.4832   -11546.5513  0.0006 -4.0135
siesta:   31   -11546.4631   -11546.4960   -11546.5641  0.0006 -4.0137
siesta:   32   -11546.4631   -11546.4793   -11546.5474  0.0004 -4.0138
siesta:   33   -11546.4631   -11546.4762   -11546.5443  0.0002 -4.0138
siesta:   34   -11546.4631   -11546.4774   -11546.5456  0.0002 -4.0139
siesta:   35   -11546.4631   -11546.4706   -11546.5387  0.0001 -4.0139

siesta: E_KS(eV) =           -11546.4667

siesta: E_KS - E_eggbox =    -11546.4667

siesta: Atomic forces (eV/Ang):
----------------------------------------
   Tot   -0.029536    0.001125    0.000000
----------------------------------------
   Max  683.899221
   Res  165.327198    sqrt( Sum f_i^2 / 3N )
----------------------------------------
   Max  683.899221    constrained

Stress-tensor-Voigt (kbar):     -717.32    -2879.74       -0.13       -6.18        0.00        0.00
(Free)E + p*V (eV/cell)   -10129.6687
Target enthalpy (eV/cell)   -11546.5348

siesta: Stress tensor (static) (eV/Ang**3):
        -0.447710   -0.003856    0.000000
        -0.003856   -1.797372    0.000000
         0.000000    0.000000   -0.000078

siesta: Pressure (static):       1199.06092655  kBar

siesta: Stress tensor (total) (eV/Ang**3):
        -0.447710   -0.003856    0.000000
        -0.003856   -1.797372    0.000000
         0.000000    0.000000   -0.000078

siesta: Pressure (total):       1199.06092655  kBar

siesta: Temp_ion =       0.000 K

* Maximum dynamic memory allocated =   150 MB
Computing bands...

siesta: Program's energy decomposition (eV):
siesta: Ebs     =     -4827.271011
siesta: Eions   =     20010.479513
siesta: Ena     =      4819.031343
siesta: Ekin    =     10203.997203
siesta: Enl     =     -1318.743366
siesta: DEna    =      -763.520851
siesta: DUscf   =       104.401933
siesta: DUext   =         0.000000
siesta: Exc     =     -4581.153420
siesta: eta*DQ  =         0.000000
siesta: Emadel  =         0.000000
siesta: Emeta   =         0.000000
siesta: Emolmec =         0.000000
siesta: Ekinion =         0.000000
siesta: Eharris =    -11546.463068
siesta: Etot    =    -11546.466670
siesta: FreeEng =    -11546.534810

siesta: Final energy (eV):
siesta:  Band Struct. =   -4827.271011
siesta:       Kinetic =   10203.997203
siesta:       Hartree =   33098.760323
siesta:    Ext. field =       0.000000
siesta:   Exch.-corr. =   -4581.153420
siesta:  Ion-electron =  -76028.303551
siesta:       Ion-ion =   25760.232774
siesta:       Ekinion =       0.000000
siesta:         Total =  -11546.466670

siesta: Atomic forces (eV/Ang):
siesta:      1  -35.848463  -15.094853    0.000000
siesta:      2   19.354252  683.899221    0.000000
siesta:      3   -0.263935   -1.191563    0.000000
siesta:      4    0.862511   -0.291757    0.000000
siesta:      5   -1.811113    1.869389    0.000000
siesta:      6    1.636336    2.022690    0.000000
siesta:      7   -0.518016   -1.482233    0.000000
siesta:      8   -0.395232    2.482882    0.000000
siesta:      9   -0.364149    1.660071    0.000000
siesta:     10   -0.812322    0.408020    0.000000
siesta:     11    0.526036  544.714449    0.000000
siesta:     12   -0.710766 -126.018115    0.000000
siesta:     13    0.709891  127.860667    0.000000
siesta:     14  -20.558884 -552.984889    0.000000
siesta:     15   -0.580432  126.950362    0.000000
siesta:     16   15.907609 -547.139608    0.000000
siesta:     17   26.782272    6.499689    0.000000
siesta:     18   34.485832 -550.750512    0.000000
siesta:     19    2.544298    0.144373    0.000000
siesta:     20   -2.545681    1.573772    0.000000
siesta:     21    2.065343    2.365503    0.000000
siesta:     22   -1.429264    0.224137    0.000000
siesta:     23  -26.678706    6.881551    0.000000
siesta:     24  -34.823428 -550.324628    0.000000
siesta:     25   15.686137  547.776228    0.000000
siesta:     26   -1.434105 -126.647475    0.000000
siesta:     27   32.651838  549.728878    0.000000
siesta:     28   26.289221   -6.162080    0.000000
siesta:     29   -2.638127   -1.768141    0.000000
siesta:     30    2.346051   -0.058784    0.000000
siesta:     31   -1.294739   -0.445480    0.000000
siesta:     32    2.051892   -2.095296    0.000000
siesta:     33   -0.293600    7.539181    0.000000
siesta:     34   -0.255688   -7.554260    0.000000
siesta:     35  -16.185502  549.996822    0.000000
siesta:     36    1.548446 -127.854879    0.000000
siesta:     37   -0.970000  545.845841    0.000000
siesta:     38   -1.370464 -126.926068    0.000000
siesta:     39   23.804458  558.161068    0.000000
siesta:     40   25.547884  -10.862428    0.000000
siesta:     41   -1.921347    3.597201    0.000000
siesta:     42   -0.013487   -0.247310    0.000000
siesta:     43   -0.349246    0.806729    0.000000
siesta:     44   -0.510054   -0.945793    0.000000
siesta:     45  -33.433566  549.729510    0.000000
siesta:     46  -26.228017   -6.955088    0.000000
siesta:     47  -11.358713  560.785935    0.000000
siesta:     48    0.001386    0.443600    0.000000
siesta:     49    2.872643   -0.836955    0.000000
siesta:     50   -1.881761    0.143298    0.000000
siesta:     51   -1.106788   -1.011805    0.000000
siesta:     52    1.335413   -0.242144    0.000000
siesta:     53   -1.512769   -1.850110    0.000000
siesta:     54    1.043502   -1.776023    0.000000
siesta:     55    0.766507    5.502900    0.000000
siesta:     56    0.093147   -6.109101    0.000000
siesta:     57   -0.861106    1.615162    0.000000
siesta:     58    0.883480    0.561418    0.000000
siesta:     59   -0.448224    0.992573    0.000000
siesta:     60   -1.970408   -3.587552    0.000000
siesta:     61   -0.338326 -565.640115    0.000000
siesta:     62    1.920526   -2.579876    0.000000
siesta:     63   22.388884    6.152930    0.000000
siesta:     64   21.359404 -557.533619    0.000000
siesta:     65  -23.460618    4.271149    0.000000
siesta:     66  -18.703884 -558.192805    0.000000
siesta:     67   -1.544758   -0.542042    0.000000
siesta:     68    2.778431    1.801490    0.000000
siesta:     69   -0.609912  127.239997    0.000000
siesta:     70    0.353391 -544.055669    0.000000
siesta:     71   -2.005810  121.029353    0.000000
siesta:     72  -10.585151 -645.517854    0.000000
siesta: ----------------------------------------
siesta:    Tot   -0.029536    0.001125    0.000000

siesta: Stress tensor (static) (eV/Ang**3):
siesta:    -0.447710   -0.003856    0.000000
siesta:    -0.003856   -1.797372    0.000000
siesta:     0.000000    0.000000   -0.000078

siesta: Cell volume =       1893.226884 Ang**3

siesta: Pressure (static):
siesta:                Solid            Molecule  Units
siesta:           0.00815089          0.12882326  Ry/Bohr**3
siesta:           0.74838688         11.82811361  eV/Ang**3
siesta:        1199.06092655      18950.93209486  kBar
(Free)E+ p_basis*V_orbitals  =      -11517.226827
(Free)Eharris+ p_basis*V_orbitals  =      -11517.219312

siesta: Electric dipole (a.u.)  =    0.000000    0.000000    0.000000
siesta: Electric dipole (Debye) =    0.000000    0.000000    0.000000

* Maximum dynamic memory allocated : Node    0 =   150 MB
* Maximum dynamic memory allocated : Node    1 =    60 MB
* Maximum dynamic memory allocated : Node    2 =    61 MB
* Maximum dynamic memory allocated : Node    3 =   137 MB
* Maximum dynamic memory allocated : Node    4 =   147 MB
* Maximum dynamic memory allocated : Node    5 =    52 MB
* Maximum dynamic memory allocated : Node    6 =    55 MB
* Maximum dynamic memory allocated : Node    7 =   141 MB
* Maximum dynamic memory allocated : Node    8 =   129 MB
* Maximum dynamic memory allocated : Node    9 =    53 MB
* Maximum dynamic memory allocated : Node   10 =    53 MB
* Maximum dynamic memory allocated : Node   11 =   121 MB

* Maximum memory occured during matrixMtoO                    

timer: CPU execution times:
timer:  Routine       Calls   Time/call    Tot.time        %
timer:  siesta            1  103023.365  103023.365   100.00
timer:  Setup             1       3.398       3.398     0.00
timer:  bands             3     225.712     677.135     0.66
timer:  writewave         1       0.022       0.022     0.00
timer:  KSV_init          1       0.006       0.006     0.00
timer:  IterMD            1  102335.905  102335.905    99.33
timer:  hsparse           1       0.165       0.165     0.00
timer:  overlap           1       6.353       6.353     0.01
timer:  IterSCF          35    2920.244  102208.550    99.21
timer:  kinefsm           2       3.220       6.440     0.01
timer:  nlefsm            2      18.434      36.868     0.04
timer:  DHSCF            36      63.722    2293.977     2.23
timer:  DHSCF1            1       0.898       0.898     0.00
timer:  DHSCF2            1      25.027      25.027     0.02
timer:  REORD           290       0.002       0.725     0.00
timer:  POISON           37       0.449      16.600     0.02
timer:  DHSCF3           36      62.398    2246.316     2.18
timer:  rhoofd           36      12.822     461.579     0.45
timer:  cellXC           36       2.397      86.301     0.08
timer:  vmat             36      29.470    1060.928     1.03
timer:  MolMec            2       0.000       0.000     0.00
timer:  diagon           35    2855.303   99935.595    97.00
timer:  c-eigval       8206       5.584   45823.579    44.48
timer:  c-buildHS      8206       0.033     272.564     0.26
timer:  cdiag         16291       5.678   92499.179    89.78
timer:  cdiag1        16291       0.260    4231.102     4.11
timer:  cdiag2        16291       1.827   29756.397    28.88
timer:  cdiag3        16291       3.389   55212.145    53.59
timer:  cdiag4        16291       0.088    1440.034     1.40
timer:  c-eigvec       8085       5.835   47171.947    45.79
timer:  c-buildD       8085       0.937    7572.646     7.35
timer:  DHSCF4            1      21.486      21.486     0.02
timer:  dfscf             1      20.050      20.050     0.02
timer:  overfsm           1       0.282       0.282     0.00
timer:  optical           1       6.318       6.318     0.01
  

elaps: ELAPSED times:
elaps:  Routine       Calls   Time/call    Tot.time        %
elaps:  siesta            1    8605.474    8605.474   100.00
elaps:  Setup             1       0.284       0.284     0.00
elaps:  bands             3      18.869      56.608     0.66
elaps:  writewave         1       0.002       0.002     0.00
elaps:  KSV_init          1       0.000       0.000     0.00
elaps:  IterMD            1    8548.050    8548.050    99.33
elaps:  hsparse           1       0.016       0.016     0.00
elaps:  overlap           1       0.711       0.711     0.01
elaps:  IterSCF          35     243.926    8537.413    99.21
elaps:  kinefsm           2       0.364       0.727     0.01
elaps:  nlefsm            2       1.600       3.200     0.04
elaps:  DHSCF            36       5.374     193.449     2.25
elaps:  DHSCF1            1       0.077       0.077     0.00
elaps:  DHSCF2            1       2.089       2.089     0.02
elaps:  REORD           290       0.000       0.086     0.00
elaps:  POISON           37       0.038       1.407     0.02
elaps:  DHSCF3           36       5.213     187.665     2.18
elaps:  rhoofd           36       2.308      83.073     0.97
elaps:  cellXC           36       0.200       7.196     0.08
elaps:  vmat             36       2.463      88.653     1.03
elaps:  MolMec            2       0.000       0.000     0.00
elaps:  diagon           35     238.506    8347.724    97.00
elaps:  c-eigval       8206       0.466    3827.539    44.48
elaps:  c-buildHS      8206       0.004      29.149     0.34
elaps:  cdiag         16291       0.470    7655.162    88.96
elaps:  cdiag1        16291       0.021     346.419     4.03
elaps:  cdiag2        16291       0.153    2487.794    28.91
elaps:  cdiag3        16291       0.284    4618.936    53.67
elaps:  cdiag4        16291       0.007     115.836     1.35
elaps:  c-eigvec       8085       0.480    3881.893    45.11
elaps:  c-buildD       8085       0.085     690.563     8.02
elaps:  DHSCF4            1       3.577       3.577     0.04
elaps:  dfscf             1       3.385       3.385     0.04
elaps:  overfsm           1       0.031       0.031     0.00
elaps:  optical           1       0.000       0.000     0.00
  
>> End of run:   7-MAY-2016  11:42:20
