Siesta Version:                                        siesta-3.2-pl-3
Architecture  : x86_64-unknown-linux-gnu--unknown
Compiler flags: mpiifort -g -O2 -fPIC -xSSE4.1 -fp-model source -shared-intel 
PARALLEL version

* Running on    8 nodes in parallel
>> Start of run:  21-APR-2016   1:53:21

                           ***********************       
                           *  WELCOME TO SIESTA  *       
                           ***********************       

reinit: Reading from standard input
************************** Dump of input data file ****************************
#(1) General system descriptors
SystemName            GRP_doping    # Descriptive name of the system
SystemLabel           GRP_doping    # Short name for naming files
%include STRUCT.fdf
%include KPT.fdf
%include BASIS.fdf
#%include TS.fdf # for transiesta calculation
#(4) DFT, Grid, SCF
XC.functional         GGA           # LDA or GGA (default = LDA)
XC.authors            PBE           # CA (Ceperley-Aldr) = PZ
                                    #    (Perdew-Zunger) - LDA - Default
                                    # PW92 (Perdew-Wang-92) - LDA
                                    # PBE (Perdew-Burke-Ernzerhof) - GGA
MeshCutoff            200.000000    Ry      # Default: 50.0 Ry ~ 0.444 Bohr
                                    #         100.0 Ry ~ 0.314 Bohr
MaxSCFIterations      500           # Default: 50
DM.MixingWeight       0.05          # Default: 0.25
DM.NumberPulay        10            # Default: 0
DM.PulayOnFile        F             # SystemLabel.P1, SystemLabel.P2
DM.Tolerance          1.d-4         # Default: 1.d-4
DM.UseSaveDM          .true.        # because of the bug
SCFMustConverge       .true.
NeglNonOverlapInt     F             # Default: F
#(5) Eigenvalue problem: order-N or diagonalization
SolutionMethod        Diagon        # or Transiesta
ElectronicTemperature 300.0 K       # Default: 300.0 K
#(6) Molecular dynamics and relaxations
#MD.TypeOfRun          CG            # Type of dynamics:
#MD.VariableCell       F
#MD.NumCGsteps         0           # 0 for single-point / 100 for gopt
#MD.MaxCGDispl         0.2 Bohr      # Default: 0.2 Bohr
#MD.MaxForceTol        0.02 eV/Ang   # Default: 0.04 eV/Ang
#MD.MaxStressTol       1.0 GPa       # Default: 1.0 GPa
# Geometry Constraints
#%block GeometryConstraints
#	position from 1 to 44
#%endblock GeometryConstraints
BandLinesScale   pi/a
%block BandLines
 1   0.00000000  0.00000000  0.00000000
50   0.00000000  0.07809418  0.00000000
50   0.04509075  0.07809242  0.00000000
20   0.00000000  0.00000000  0.00000000
%endblock BandLines
************************** End of input data file *****************************

reinit: -----------------------------------------------------------------------
reinit: System Name: GRP_doping
reinit: -----------------------------------------------------------------------
reinit: System Label: GRP_doping                                                  
reinit: -----------------------------------------------------------------------

initatom: Reading input for the pseudopotentials and atomic orbitals ----------
 Species number:            1  Label: B Atomic number:           5
 Species number:            2  Label: C Atomic number:           6
Ground state valence configuration:   2s02  2p01
Reading pseudopotential information in formatted form from B.psf

Valence configuration for pseudopotential generation:
2s( 2.00) rc: 1.74
2p( 1.00) rc: 1.74
3d( 0.00) rc: 1.74
4f( 0.00) rc: 1.74
Ground state valence configuration:   2s02  2p02
Reading pseudopotential information in formatted form from C.psf

Valence configuration for pseudopotential generation:
2s( 2.00) rc: 1.54
2p( 2.00) rc: 1.54
3d( 0.00) rc: 1.54
4f( 0.00) rc: 1.54
For B, standard SIESTA heuristics set lmxkb to 3
 (one more than the basis l, including polarization orbitals).
Use PS.lmax or PS.KBprojectors blocks to override.
For C, standard SIESTA heuristics set lmxkb to 3
 (one more than the basis l, including polarization orbitals).
Use PS.lmax or PS.KBprojectors blocks to override.

<basis_specs>
===============================================================================
B                    Z=   5    Mass=  10.810        Charge= 0.17977+309
Lmxo=1 Lmxkb= 3    BasisType=split      Semic=F
L=0  Nsemic=0  Cnfigmx=2
          n=1  nzeta=2  polorb=0
            splnorm:   0.15000    
               vcte:    0.0000    
               rinn:    0.0000    
                rcs:    0.0000      0.0000    
            lambdas:    1.0000      1.0000    
L=1  Nsemic=0  Cnfigmx=2
          n=1  nzeta=2  polorb=1
            splnorm:   0.15000    
               vcte:    0.0000    
               rinn:    0.0000    
                rcs:    0.0000      0.0000    
            lambdas:    1.0000      1.0000    
-------------------------------------------------------------------------------
L=0  Nkbl=1  erefs: 0.17977+309
L=1  Nkbl=1  erefs: 0.17977+309
L=2  Nkbl=1  erefs: 0.17977+309
L=3  Nkbl=1  erefs: 0.17977+309
===============================================================================
</basis_specs>

atom: Called for B                     (Z =   5)

read_vps: Pseudopotential generation method:
read_vps: ATM3      Troullier-Martins                       
Total valence charge:    3.00000

read_vps: Pseudopotential includes a core correction:
read_vps: Pseudo-core for xc-correction

xc_check: Exchange-correlation functional:
xc_check: GGA Perdew, Burke & Ernzerhof 1996
V l=0 = -2*Zval/r beyond r=  1.7165
V l=1 = -2*Zval/r beyond r=  1.7165
V l=2 = -2*Zval/r beyond r=  1.7165
V l=3 = -2*Zval/r beyond r=  1.6951
All V_l potentials equal beyond r=  1.7165
This should be close to max(r_c) in ps generation
All pots = -2*Zval/r beyond r=  1.7165

VLOCAL1: 99.0% of the norm of Vloc inside     14.733 Ry
VLOCAL1: 99.9% of the norm of Vloc inside     33.577 Ry
atom: Maximum radius for 4*pi*r*r*local-pseudopot. charge    2.04484
atom: Maximum radius for r*vlocal+2*Zval:    1.75994
GHOST: No ghost state for L =  0
GHOST: No ghost state for L =  1
GHOST: No ghost state for L =  2
GHOST: No ghost state for L =  3

KBgen: Kleinman-Bylander projectors: 
   l= 0   rc=  1.897051   el= -0.693730   Ekb=  4.595746   kbcos=  0.286105
   l= 1   rc=  1.920920   el= -0.265236   Ekb= -2.350715   kbcos= -0.315747
   l= 2   rc=  2.044840   el=  0.002055   Ekb= -0.690767   kbcos= -0.013822
   l= 3   rc=  2.149707   el=  0.003188   Ekb= -0.315358   kbcos= -0.002055

KBgen: Total number of  Kleinman-Bylander projectors:   16
atom: -------------------------------------------------------------------------

atom: SANKEY-TYPE ORBITALS:
atom: Selected multiple-zeta basis: split     

SPLIT: Orbitals with angular momentum L= 0

SPLIT: Basis orbitals for state 2s

SPLIT: PAO cut-off radius determined from an
SPLIT: energy shift=  0.007350 Ry

   izeta = 1
                 lambda =    1.000000
                     rc =    5.422032
                 energy =   -0.686029
                kinetic =    0.576707
    potential(screened) =   -1.262736
       potential(ionic) =   -3.271094

   izeta = 2
                 rmatch =    4.222573
              splitnorm =    0.150000
                 energy =   -0.602132
                kinetic =    0.858975
    potential(screened) =   -1.461107
       potential(ionic) =   -3.582536

SPLIT: Orbitals with angular momentum L= 1

SPLIT: Basis orbitals for state 2p

SPLIT: PAO cut-off radius determined from an
SPLIT: energy shift=  0.007350 Ry

   izeta = 1
                 lambda =    1.000000
                     rc =    6.790259
                 energy =   -0.258578
                kinetic =    1.481412
    potential(screened) =   -1.739989
       potential(ionic) =   -3.657461

   izeta = 2
                 rmatch =    4.608740
              splitnorm =    0.150000
                 energy =   -0.173757
                kinetic =    2.186690
    potential(screened) =   -2.360447
       potential(ionic) =   -4.464260

POLgen: Perturbative polarization orbital with L=  2

POLgen: Polarization orbital for state 2p

   izeta = 1
                     rc =    6.790259
                 energy =    0.684082
                kinetic =    1.471481
    potential(screened) =   -0.787399
       potential(ionic) =   -2.406985
atom: Total number of Sankey-type orbitals: 13

atm_pop: Valence configuration (for local Pseudopot. screening):
 2s( 2.00)                                                            
 2p( 1.00)                                                            
Vna: chval, zval:    3.00000   3.00000

Vna:  Cut-off radius for the neutral-atom potential:   6.790259
comcore: Pseudo-core radius Rcore=  2.122997

atom: _________________________________________________________________________

<basis_specs>
===============================================================================
C                    Z=   6    Mass=  12.010        Charge= 0.17977+309
Lmxo=1 Lmxkb= 3    BasisType=split      Semic=F
L=0  Nsemic=0  Cnfigmx=2
          n=1  nzeta=2  polorb=0
            splnorm:   0.15000    
               vcte:    0.0000    
               rinn:    0.0000    
                rcs:    0.0000      0.0000    
            lambdas:    1.0000      1.0000    
L=1  Nsemic=0  Cnfigmx=2
          n=1  nzeta=2  polorb=1
            splnorm:   0.15000    
               vcte:    0.0000    
               rinn:    0.0000    
                rcs:    0.0000      0.0000    
            lambdas:    1.0000      1.0000    
-------------------------------------------------------------------------------
L=0  Nkbl=1  erefs: 0.17977+309
L=1  Nkbl=1  erefs: 0.17977+309
L=2  Nkbl=1  erefs: 0.17977+309
L=3  Nkbl=1  erefs: 0.17977+309
===============================================================================
</basis_specs>

atom: Called for C                     (Z =   6)

read_vps: Pseudopotential generation method:
read_vps: ATM3      Troullier-Martins                       
Total valence charge:    4.00000

read_vps: Pseudopotential includes a core correction:
read_vps: Pseudo-core for xc-correction

xc_check: Exchange-correlation functional:
xc_check: GGA Perdew, Burke & Ernzerhof 1996
V l=0 = -2*Zval/r beyond r=  1.5227
V l=1 = -2*Zval/r beyond r=  1.5227
V l=2 = -2*Zval/r beyond r=  1.5227
V l=3 = -2*Zval/r beyond r=  1.5038
All V_l potentials equal beyond r=  1.5227
This should be close to max(r_c) in ps generation
All pots = -2*Zval/r beyond r=  1.5227

VLOCAL1: 99.0% of the norm of Vloc inside     18.722 Ry
VLOCAL1: 99.9% of the norm of Vloc inside     42.668 Ry
atom: Maximum radius for 4*pi*r*r*local-pseudopot. charge    1.83678
atom: Maximum radius for r*vlocal+2*Zval:    1.58088
GHOST: No ghost state for L =  0
GHOST: No ghost state for L =  1
GHOST: No ghost state for L =  2
GHOST: No ghost state for L =  3

KBgen: Kleinman-Bylander projectors: 
   l= 0   rc=  1.704034   el= -1.009801   Ekb=  5.335044   kbcos=  0.316824
   l= 1   rc=  1.704034   el= -0.388707   Ekb= -3.785862   kbcos= -0.366464
   l= 2   rc=  1.791422   el=  0.001971   Ekb= -0.970471   kbcos= -0.009212
   l= 3   rc=  1.859892   el=  0.003065   Ekb= -0.399525   kbcos= -0.001223

KBgen: Total number of  Kleinman-Bylander projectors:   16
atom: -------------------------------------------------------------------------

atom: SANKEY-TYPE ORBITALS:
atom: Selected multiple-zeta basis: split     

SPLIT: Orbitals with angular momentum L= 0

SPLIT: Basis orbitals for state 2s

SPLIT: PAO cut-off radius determined from an
SPLIT: energy shift=  0.007350 Ry

   izeta = 1
                 lambda =    1.000000
                     rc =    4.632753
                 energy =   -1.002270
                kinetic =    0.855760
    potential(screened) =   -1.858031
       potential(ionic) =   -5.417575

   izeta = 2
                 rmatch =    3.431921
              splitnorm =    0.150000
                 energy =   -0.867111
                kinetic =    1.300804
    potential(screened) =   -2.167915
       potential(ionic) =   -5.962684

SPLIT: Orbitals with angular momentum L= 1

SPLIT: Basis orbitals for state 2p

SPLIT: PAO cut-off radius determined from an
SPLIT: energy shift=  0.007350 Ry

   izeta = 1
                 lambda =    1.000000
                     rc =    5.658549
                 energy =   -0.381140
                kinetic =    2.399701
    potential(screened) =   -2.780841
       potential(ionic) =   -6.206085

   izeta = 2
                 rmatch =    3.653288
              splitnorm =    0.150000
                 energy =   -0.249149
                kinetic =    3.542762
    potential(screened) =   -3.791911
       potential(ionic) =   -7.581078

POLgen: Perturbative polarization orbital with L=  2

POLgen: Polarization orbital for state 2p

   izeta = 1
                     rc =    5.658549
                 energy =    1.109913
                kinetic =    2.304789
    potential(screened) =   -1.194876
       potential(ionic) =   -4.013592
atom: Total number of Sankey-type orbitals: 13

atm_pop: Valence configuration (for local Pseudopot. screening):
 2s( 2.00)                                                            
 2p( 2.00)                                                            
Vna: chval, zval:    4.00000   4.00000

Vna:  Cut-off radius for the neutral-atom potential:   5.658549
comcore: Pseudo-core radius Rcore=  1.791422

atom: _________________________________________________________________________

prinput: Basis input ----------------------------------------------------------

PAO.BasisType split     

%block ChemicalSpeciesLabel
    1    5 B                       # Species index, atomic number, species label
    2    6 C                       # Species index, atomic number, species label
%endblock ChemicalSpeciesLabel

%block PAO.Basis                 # Define Basis set
B                     2                    # Species label, number of l-shells
 n=2   0   2                         # n, l, Nzeta 
   5.422      4.223   
   1.000      1.000   
 n=2   1   2 P   1                   # n, l, Nzeta, Polarization, NzetaPol
   6.790      4.609   
   1.000      1.000   
C                     2                    # Species label, number of l-shells
 n=2   0   2                         # n, l, Nzeta 
   4.633      3.432   
   1.000      1.000   
 n=2   1   2 P   1                   # n, l, Nzeta, Polarization, NzetaPol
   5.659      3.653   
   1.000      1.000   
%endblock PAO.Basis

prinput: ----------------------------------------------------------------------

coor:   Atomic-coordinates input format  =     Fractional

siesta: Atomic coordinates (Bohr) and species
siesta:     -0.02582   2.59549   0.00000  1        1
siesta:     -2.35420  38.89134   0.00000  1        2
siesta:     -2.35420  41.57980   0.00000  1        3
siesta:      4.63094  34.85847   0.00000  1        4
siesta:      4.63094  37.54693   0.00000  1        5
siesta:     -4.68258  34.85847   0.00000  1        6
siesta:     -4.68258  37.54693   0.00000  1        7
siesta:     -7.01096  14.69411   0.00000  1        8
siesta:     -7.01096  17.38257   0.00000  1        9
siesta:     -4.68258  18.72698   0.00000  1       10
siesta:     -4.68258  21.41544   0.00000  1       11
siesta:     -2.35420  22.75985   0.00000  1       12
siesta:     -2.35420  25.44831   0.00000  1       13
siesta:    -11.66772  22.75985   0.00000  1       14
siesta:    -11.66772  25.44831   0.00000  1       15
siesta:     -9.33934  26.79272   0.00000  1       16
siesta:     -9.33934  29.48119   0.00000  1       17
siesta:     -0.02582  26.79272   0.00000  1       18
siesta:     -0.02582  29.48119   0.00000  1       19
siesta:      2.30256  30.82560   0.00000  1       20
siesta:      2.30256  33.51406   0.00000  1       21
siesta:     -7.01096  30.82560   0.00000  1       22
siesta:     -7.01096  33.51406   0.00000  1       23
siesta:     -0.02582  42.92421   0.00000  1       24
siesta:     -0.02582  45.61267   0.00000  1       25
siesta:     -0.02582   5.28395   0.00000  2       26
siesta:      2.30256  38.89134   0.00000  2       27
siesta:      2.30256  41.57980   0.00000  2       28
siesta:      6.95932  30.82560   0.00000  2       29
siesta:      6.95932  33.51406   0.00000  2       30
siesta:      9.28770  26.79272   0.00000  2       31
siesta:      9.28770  29.48119   0.00000  2       32
siesta:      2.30256   6.62836   0.00000  2       33
siesta:      2.30256   9.31683   0.00000  2       34
siesta:      4.63094  10.66124   0.00000  2       35
siesta:      4.63094  13.34970   0.00000  2       36
siesta:      6.95932  14.69411   0.00000  2       37
siesta:      6.95932  17.38257   0.00000  2       38
siesta:      9.28770  18.72698   0.00000  2       39
siesta:      9.28770  21.41544   0.00000  2       40
siesta:     11.61608  22.75985   0.00000  2       41
siesta:     11.61608  25.44831   0.00000  2       42
siesta:     -2.35420   6.62836   0.00000  2       43
siesta:     -2.35420   9.31683   0.00000  2       44
siesta:     -0.02582  10.66124   0.00000  2       45
siesta:     -0.02582  13.34970   0.00000  2       46
siesta:      2.30256  14.69411   0.00000  2       47
siesta:      2.30256  17.38257   0.00000  2       48
siesta:      4.63094  18.72698   0.00000  2       49
siesta:      4.63094  21.41544   0.00000  2       50
siesta:      6.95932  22.75985   0.00000  2       51
siesta:      6.95932  25.44831   0.00000  2       52
siesta:     -4.68258  10.66124   0.00000  2       53
siesta:     -4.68258  13.34970   0.00000  2       54
siesta:     -2.35420  14.69411   0.00000  2       55
siesta:     -2.35420  17.38257   0.00000  2       56
siesta:     -0.02582  18.72698   0.00000  2       57
siesta:     -0.02582  21.41544   0.00000  2       58
siesta:      2.30256  22.75985   0.00000  2       59
siesta:      2.30256  25.44831   0.00000  2       60
siesta:     -9.33934  18.72698   0.00000  2       61
siesta:     -9.33934  21.41544   0.00000  2       62
siesta:     -7.01096  22.75985   0.00000  2       63
siesta:     -7.01096  25.44831   0.00000  2       64
siesta:      4.63094  26.79272   0.00000  2       65
siesta:      4.63094  29.48119   0.00000  2       66
siesta:     -4.68258  26.79272   0.00000  2       67
siesta:     -4.68258  29.48119   0.00000  2       68
siesta:     -2.35420  30.82560   0.00000  2       69
siesta:     -2.35420  33.51406   0.00000  2       70
siesta:     -0.02582  34.85847   0.00000  2       71
siesta:     -0.02582  37.54693   0.00000  2       72

siesta: System type = slab      

initatomlists: Number of atoms, orbitals, and projectors:     72   936  1152

siesta: ******************** Simulation parameters ****************************
siesta:
siesta: The following are some of the parameters of the simulation.
siesta: A complete list of the parameters used, including default values,
siesta: can be found in file out.fdf
siesta:
redata: Non-Collinear-spin run           =     F
redata: SpinPolarized (Up/Down) run      =     F
redata: Number of spin components        =     1
redata: Long output                      =     F
redata: Number of Atomic Species         =        2
redata: Charge density info will appear in .RHO file
redata: Write Mulliken Pop.              =     NO
redata: Mesh Cutoff                      =   200.0000  Ry
redata: Net charge of the system         =     0.0000 |e|
redata: Max. number of SCF Iter          =      500
redata: SCF convergence failure will abort job
redata: Performing Pulay mixing using    =    10 iterations
redata: Mix DM in first SCF step ?       =     F
redata: Write Pulay info on disk?        =     F
redata: Discard 1st Pulay DM after  kick =     F
redata: New DM Mixing Weight             =     0.0500
redata: New DM Occupancy tolerance       = 0.000000000001
redata: No kicks to SCF
redata: DM Mixing Weight for Kicks       =     0.5000
redata: DM Tolerance for SCF             =     0.000100
redata: Require Energy convergence for SCF =     F
redata: DM Energy tolerance for SCF      =     0.000100 eV
redata: Require Harris convergence for SCF =     F
redata: DM Harris energy tolerance for SCF =     0.000100 eV
redata: Using Saved Data (generic)   =     F
redata: Use continuation files for DM    =     T
redata: Neglect nonoverlap interactions  =     F
redata: Method of Calculation            =     Diagonalization
redata: Divide and Conquer               =     T
redata: Electronic Temperature           =     0.0019  Ry
redata: Fix the spin of the system       =     F
redata: Dynamics option                  =     Verlet MD run
redata: Initial MD time step             =        1
redata:   Final MD time step             =        1
redata: Length of MD time step           =     1.0000  fs
redata: Initial Temperature of MD run    =     0.0000  K
redata: Perform a MD quench              =     F
redata: ***********************************************************************
Total number of electrons:   263.000000
Total ionic charge:   263.000000

* ProcessorY, Blocksize:    2  24

k-point displ. along   1 input, could be:     0.50    0.00
k-point displ. along   2 input, could be:     0.50    0.00
 Kpoints in:          231 . Kpoints trimmed:          231

siesta: k-grid: Number of k-points =   231
siesta: k-grid: Cutoff (effective) =     5.000 Ang
siesta: k-grid: Supercell and displacements
siesta: k-grid:   21   0   0      0.500
siesta: k-grid:    0  21   0      0.500
siesta: k-grid:    0   0   1      0.000
Naive supercell factors:     2    2    2

superc: Internal auxiliary supercell:     2 x     2 x     2  =       8
superc: Number of atoms, orbitals, and projectors:    576   7488   9216

* Maximum dynamic memory allocated =     4 MB

siesta:                 ==============================
                            Begin MD step =      1
                        ==============================

superc: Internal auxiliary supercell:     2 x     2 x     2  =       8
superc: Number of atoms, orbitals, and projectors:    576   7488   9216

outcell: Unit cell vectors (Ang):
       12.804619    7.392750    0.000000
        0.000000   14.785500    0.000000
        0.000000    0.000000   10.000000

outcell: Cell vector modules (Ang)   :   14.785500   14.785500   10.000000
outcell: Cell angles (23,13,12) (deg):     90.0000     90.0000     60.0000
outcell: Cell volume (Ang**3)        :   1893.2269
New_DM. Step:     1
Initializing Density Matrix...

InitMesh: MESH =   120 x   120 x    90 =     1296000
InitMesh: Mesh cutoff (required, used) =   200.000   223.865 Ry

* Maximum dynamic memory allocated =   235 MB

stepf: Fermi-Dirac step function

siesta: Program's energy decomposition (eV):
siesta: Ebs     =     -5404.709112
siesta: Eions   =     15201.593291
siesta: Ena     =      4104.389192
siesta: Ekin    =      5059.728642
siesta: Enl     =       845.446111
siesta: DEna    =        -0.000006
siesta: DUscf   =         0.000000
siesta: DUext   =         0.000000
siesta: Exc     =     -4201.002037
siesta: eta*DQ  =         0.000000
siesta: Emadel  =         0.000000
siesta: Emeta   =         0.000000
siesta: Emolmec =         0.000000
siesta: Ekinion =         0.000000
siesta: Eharris =     -9189.506730
siesta: Etot    =     -9393.031389
siesta: FreeEng =     -9393.031389

siesta: iscf   Eharris(eV)      E_KS(eV)   FreeEng(eV)   dDmax  Ef(eV)
siesta:    1    -9189.5067    -9393.0314    -9393.0314  7.5973 -8.6360
timer: Routine,Calls,Time,% = IterSCF        1    4489.907  99.74
elaps: Routine,Calls,Wall,% = IterSCF        1     561.939  99.74
siesta:    2   -15354.1465    -8296.8397    -8296.8665 18.9032 -5.4558
siesta:    3    -9210.7370    -9222.9327    -9222.9868  2.3253 -6.2023
siesta:    4    -9150.1750    -9138.7747    -9138.8437  1.4496 -5.3643
siesta:    5    -9058.6452    -9045.2691    -9045.3042  1.1914 -5.2526
siesta:    6    -9047.8552    -9024.7387    -9024.7824  1.1079 -5.1835
siesta:    7    -9036.0945    -9011.4892    -9011.5518  0.6934 -5.4047
siesta:    8    -9033.8198    -9007.3424    -9007.3896  0.7521 -5.2886
siesta:    9    -9032.7456    -9007.8715    -9007.9304  0.7096 -5.2931
siesta:   10    -9030.6543    -9007.0495    -9007.1107  0.4709 -5.3347
siesta:   11    -9033.3500    -9003.5240    -9003.5945  0.6494 -5.2498
siesta:   12    -9032.5289    -9002.5494    -9002.6050  0.6830 -5.2401
siesta:   13    -9030.9739    -9003.8667    -9003.9189  0.2326 -5.2643
siesta:   14    -9030.2286    -9006.2707    -9006.3531  0.2053 -5.2848
siesta:   15    -9029.8812    -9008.4562    -9008.5281  0.2561 -5.2931
siesta:   16    -9029.6139    -9013.1967    -9013.2716  0.3042 -5.2674
siesta:   17    -9029.6144    -9015.1428    -9015.2321  0.1762 -5.2913
siesta:   18    -9029.3993    -9017.8399    -9017.9065  0.1818 -5.3016
siesta:   19    -9029.3011    -9020.2130    -9020.2996  0.3894 -5.2931
siesta:   20    -9029.1382    -9021.6486    -9021.7470  0.2054 -5.3180
siesta:   21    -9029.0789    -9022.4446    -9022.5245  0.0778 -5.3334
siesta:   22    -9029.0645    -9023.1674    -9023.2549  0.0799 -5.3248
siesta:   23    -9029.0248    -9024.3281    -9024.4233  0.0792 -5.3176
siesta:   24    -9029.0203    -9026.2258    -9026.3243  0.1933 -5.3109
siesta:   25    -9029.0322    -9026.9988    -9027.1038  0.0560 -5.3279
siesta:   26    -9029.0132    -9027.7062    -9027.7886  0.0349 -5.3235
siesta:   27    -9029.0105    -9028.0526    -9028.1449  0.1051 -5.3208
siesta:   28    -9029.0133    -9027.9710    -9028.0689  0.0364 -5.3239
siesta:   29    -9029.0110    -9028.0473    -9028.1401  0.0397 -5.3223
siesta:   30    -9029.0069    -9028.3161    -9028.4098  0.0448 -5.3189
siesta:   31    -9029.0079    -9028.2905    -9028.3859  0.0212 -5.3179
siesta:   32    -9029.0091    -9028.2697    -9028.3617  0.0095 -5.3216
siesta:   33    -9029.0069    -9028.5355    -9028.6257  0.0059 -5.3214
siesta:   34    -9029.0074    -9028.6409    -9028.7329  0.0080 -5.3223
siesta:   35    -9029.0078    -9028.7586    -9028.8500  0.0053 -5.3236
siesta:   36    -9029.0079    -9028.7981    -9028.8890  0.0055 -5.3242
siesta:   37    -9029.0073    -9028.8654    -9028.9563  0.0031 -5.3244
siesta:   38    -9029.0072    -9028.9419    -9029.0334  0.0009 -5.3243
siesta:   39    -9029.0073    -9028.9404    -9029.0319  0.0006 -5.3244
siesta:   40    -9029.0073    -9028.9495    -9029.0410  0.0005 -5.3245
siesta:   41    -9029.0073    -9028.9703    -9029.0618  0.0004 -5.3244
siesta:   42    -9029.0073    -9028.9949    -9029.0864  0.0002 -5.3243
siesta:   43    -9029.0073    -9029.0003    -9029.0918  0.0002 -5.3243
siesta:   44    -9029.0073    -9029.0017    -9029.0932  0.0002 -5.3242
siesta:   45    -9029.0073    -9029.0055    -9029.0969  0.0001 -5.3242

siesta: E_KS(eV) =            -9029.0052

siesta: E_KS - E_eggbox =     -9029.0052

siesta: Atomic forces (eV/Ang):
----------------------------------------
   Tot   -0.214912    0.119117    0.000000
----------------------------------------
   Max  561.932366
   Res  132.165000    sqrt( Sum f_i^2 / 3N )
----------------------------------------
   Max  561.932366    constrained

Stress-tensor-Voigt (kbar):     -767.88    -2453.06       -0.71       -4.69        0.00        0.00
(Free)E + p*V (eV/cell)    -7760.1422
Target enthalpy (eV/cell)    -9029.0967

siesta: Stress tensor (static) (eV/Ang**3):
        -0.479270   -0.002928    0.000000
        -0.002928   -1.531066    0.000000
         0.000000    0.000000   -0.000444

siesta: Pressure (static):       1073.88671192  kBar

siesta: Stress tensor (total) (eV/Ang**3):
        -0.479270   -0.002928    0.000000
        -0.002928   -1.531066    0.000000
         0.000000    0.000000   -0.000444

siesta: Pressure (total):       1073.88671192  kBar

siesta: Temp_ion =       0.000 K

* Maximum dynamic memory allocated =   252 MB
Computing bands...

siesta: Program's energy decomposition (eV):
siesta: Ebs     =     -4009.202995
siesta: Eions   =     15201.593291
siesta: Ena     =      4104.389192
siesta: Ekin    =      7834.718365
siesta: Enl     =      -745.610978
siesta: DEna    =      -756.899051
siesta: DUscf   =       103.149985
siesta: DUext   =         0.000000
siesta: Exc     =     -4367.159451
siesta: eta*DQ  =         0.000000
siesta: Emadel  =         0.000000
siesta: Emeta   =         0.000000
siesta: Emolmec =         0.000000
siesta: Ekinion =         0.000000
siesta: Eharris =     -9029.007276
siesta: Etot    =     -9029.005229
siesta: FreeEng =     -9029.096680

siesta: Final energy (eV):
siesta:  Band Struct. =   -4009.202995
siesta:       Kinetic =    7834.718365
siesta:       Hartree =   25583.076006
siesta:    Ext. field =       0.000000
siesta:   Exch.-corr. =   -4367.159451
siesta:  Ion-electron =  -58690.650057
siesta:       Ion-ion =   20611.009908
siesta:       Ekinion =       0.000000
siesta:         Total =   -9029.005229

siesta: Atomic forces (eV/Ang):
siesta:      1   -3.461838  298.192709    0.000000
siesta:      2   -3.198257  107.167041    0.000000
siesta:      3   -2.552686 -395.948817    0.000000
siesta:      4   19.594875   -2.689439    0.000000
siesta:      5   22.041040 -397.069064    0.000000
siesta:      6  -16.711338    1.865332    0.000000
siesta:      7  -20.940048 -393.655185    0.000000
siesta:      8    0.803965   -5.995968    0.000000
siesta:      9   -9.013952    0.452900    0.000000
siesta:     10    7.005629   -2.772448    0.000000
siesta:     11   -5.982215    4.194467    0.000000
siesta:     12    7.388177   -5.378911    0.000000
siesta:     13   -6.329878    4.058055    0.000000
siesta:     14   -3.073458   -3.975843    0.000000
siesta:     15   -6.428999    3.224140    0.000000
siesta:     16   -0.309295   -1.169403    0.000000
siesta:     17   -5.685121    2.295614    0.000000
siesta:     18    4.383647   -3.727539    0.000000
siesta:     19    0.936499 -302.876668    0.000000
siesta:     20   20.932265   -1.435779    0.000000
siesta:     21   22.154274 -403.152698    0.000000
siesta:     22    0.859150    1.334962    0.000000
siesta:     23   -3.521048    3.146802    0.000000
siesta:     24   -4.636727  108.218250    0.000000
siesta:     25    1.628021 -409.687639    0.000000
siesta:     26    3.287543 -121.668513    0.000000
siesta:     27    6.736247  117.717529    0.000000
siesta:     28   12.354465 -547.189915    0.000000
siesta:     29    2.894637    1.094800    0.000000
siesta:     30    0.534160   -0.024304    0.000000
siesta:     31    2.097949    2.489065    0.000000
siesta:     32   -0.509649   -0.335732    0.000000
siesta:     33   15.121913  406.869991    0.000000
siesta:     34    5.049973 -124.237172    0.000000
siesta:     35   35.773033  405.945093    0.000000
siesta:     36   26.032876    1.844043    0.000000
siesta:     37   -2.649782   -2.509085    0.000000
siesta:     38    1.907582    0.457495    0.000000
siesta:     39   -0.762592   -0.655704    0.000000
siesta:     40    1.589439   -2.050204    0.000000
siesta:     41    0.566619    6.051663    0.000000
siesta:     42    0.270526   -5.938276    0.000000
siesta:     43  -15.159885  550.517382    0.000000
siesta:     44   -9.670967 -127.846363    0.000000
siesta:     45    2.576137  554.854094    0.000000
siesta:     46   -7.215235 -127.974835    0.000000
siesta:     47   31.297023  561.932366    0.000000
siesta:     48   20.742548   -5.268700    0.000000
siesta:     49   -0.893573    0.913951    0.000000
siesta:     50   -0.235113    0.053056    0.000000
siesta:     51    0.068700    1.034311    0.000000
siesta:     52   -0.304487   -1.096692    0.000000
siesta:     53  -31.327614  401.739939    0.000000
siesta:     54  -19.704964    0.076608    0.000000
siesta:     55  -29.926977  410.751033    0.000000
siesta:     56  -19.544682   -2.158866    0.000000
siesta:     57   -1.014110  420.863158    0.000000
siesta:     58    1.514208    0.658056    0.000000
siesta:     59    1.012527   -0.390108    0.000000
siesta:     60    2.451920   -0.888851    0.000000
siesta:     61   -0.878742    3.575545    0.000000
siesta:     62   -1.069762   -3.576942    0.000000
siesta:     63   -0.735602    2.427874    0.000000
siesta:     64    2.219815   -2.156880    0.000000
siesta:     65    0.360494   -0.314701    0.000000
siesta:     66    0.730695   -1.826897    0.000000
siesta:     67   -1.477680    1.060157    0.000000
siesta:     68    3.879576   -2.580008    0.000000
siesta:     69  -23.769854    1.828860    0.000000
siesta:     70  -29.117067 -555.260910    0.000000
siesta:     71    6.358925  119.419395    0.000000
siesta:     72   -7.558786 -542.721563    0.000000
siesta: ----------------------------------------
siesta:    Tot   -0.214912    0.119117    0.000000

siesta: Stress tensor (static) (eV/Ang**3):
siesta:    -0.479270   -0.002928    0.000000
siesta:    -0.002928   -1.531066    0.000000
siesta:     0.000000    0.000000   -0.000444

siesta: Cell volume =       1893.226884 Ang**3

siesta: Pressure (static):
siesta:                Solid            Molecule  Units
siesta:           0.00729999          0.09941770  Ry/Bohr**3
siesta:           0.67026012          9.12819477  eV/Ang**3
siesta:        1073.88671192      14625.13845007  kBar
(Free)E+ p_basis*V_orbitals  =       -8990.460229
(Free)Eharris+ p_basis*V_orbitals  =       -8990.462043

siesta: Electric dipole (a.u.)  =    0.000000    0.000000    0.000000
siesta: Electric dipole (Debye) =    0.000000    0.000000    0.000000

* Maximum dynamic memory allocated : Node    0 =   252 MB
* Maximum dynamic memory allocated : Node    1 =    88 MB
* Maximum dynamic memory allocated : Node    2 =    92 MB
* Maximum dynamic memory allocated : Node    3 =   239 MB
* Maximum dynamic memory allocated : Node    4 =   231 MB
* Maximum dynamic memory allocated : Node    5 =    84 MB
* Maximum dynamic memory allocated : Node    6 =    87 MB
* Maximum dynamic memory allocated : Node    7 =   213 MB

* Maximum memory occured during matrixMtoO                    

timer: CPU execution times:
timer:  Routine       Calls   Time/call    Tot.time        %
timer:  siesta            1  200530.868  200530.868   100.00
timer:  Setup             1       3.050       3.050     0.00
timer:  bands             3     269.902     809.706     0.40
timer:  writewave         1       0.017       0.017     0.00
timer:  KSV_init          1       0.006       0.006     0.00
timer:  IterMD            1  199712.247  199712.247    99.59
timer:  hsparse           1       0.398       0.398     0.00
timer:  overlap           1       7.793       7.793     0.00
timer:  IterSCF          45    4432.527  199463.711    99.47
timer:  kinefsm           2       4.041       8.081     0.00
timer:  nlefsm            2      22.406      44.812     0.02
timer:  DHSCF            46     133.254    6129.706     3.06
timer:  DHSCF1            1       0.988       0.988     0.00
timer:  DHSCF2            1      47.328      47.328     0.02
timer:  REORD           370       0.010       3.774     0.00
timer:  POISON           47       2.235     105.046     0.05
timer:  DHSCF3           46     131.160    6033.351     3.01
timer:  rhoofd           46      27.372    1259.090     0.63
timer:  cellXC           46       3.590     165.134     0.08
timer:  vmat             46      64.525    2968.154     1.48
timer:  MolMec            2       0.000       0.000     0.00
timer:  diagon           45    4298.072  193413.256    96.45
timer:  c-eigval      10516       6.695   70409.039    35.11
timer:  c-buildHS     10516       0.125    1310.980     0.65
timer:  cdiag         20911       6.891  144087.606    71.85
timer:  cdiag1        20911       0.426    8900.782     4.44
timer:  cdiag2        20911       1.917   40096.451    20.00
timer:  cdiag3        20911       3.949   82576.222    41.18
timer:  cdiag4        20911       0.225    4695.667     2.34
timer:  c-eigvec      10395       7.289   75771.515    37.79
timer:  c-buildD      10395       4.616   47984.499    23.93
timer:  DHSCF4            1      45.602      45.602     0.02
timer:  dfscf             1      42.832      42.832     0.02
timer:  overfsm           1       0.490       0.490     0.00
timer:  optical           1       5.121       5.121     0.00
  

elaps: ELAPSED times:
elaps:  Routine       Calls   Time/call    Tot.time        %
elaps:  siesta            1   25095.991   25095.991   100.00
elaps:  Setup             1       0.380       0.380     0.00
elaps:  bands             3      33.789     101.367     0.40
elaps:  writewave         1       0.002       0.002     0.00
elaps:  KSV_init          1       0.000       0.000     0.00
elaps:  IterMD            1   24993.568   24993.568    99.59
elaps:  hsparse           1       0.050       0.050     0.00
elaps:  overlap           1       0.978       0.978     0.00
elaps:  IterSCF          45     554.722   24962.480    99.47
elaps:  kinefsm           2       0.507       1.013     0.00
elaps:  nlefsm            2       2.934       5.868     0.02
elaps:  DHSCF            46      16.798     772.726     3.08
elaps:  DHSCF1            1       0.127       0.127     0.00
elaps:  DHSCF2            1       5.920       5.920     0.02
elaps:  REORD           370       0.001       0.506     0.00
elaps:  POISON           47       0.279      13.131     0.05
elaps:  DHSCF3           46      16.407     754.711     3.01
elaps:  rhoofd           46       7.512     345.555     1.38
elaps:  cellXC           46       0.448      20.630     0.08
elaps:  vmat             46       8.070     371.235     1.48
elaps:  MolMec            2       0.000       0.000     0.00
elaps:  diagon           45     537.922   24206.504    96.46
elaps:  c-eigval      10516       0.838    8809.498    35.10
elaps:  c-buildHS     10516       0.017     178.432     0.71
elaps:  cdiag         20911       0.851   17795.186    70.91
elaps:  cdiag1        20911       0.053    1104.220     4.40
elaps:  cdiag2        20911       0.240    5017.222    19.99
elaps:  cdiag3        20911       0.495   10345.958    41.23
elaps:  cdiag4        20911       0.029     599.192     2.39
elaps:  c-eigvec      10395       0.894    9289.057    37.01
elaps:  c-buildD      10395       0.596    6200.380    24.71
elaps:  DHSCF4            1      11.639      11.639     0.05
elaps:  dfscf             1      11.094      11.094     0.04
elaps:  overfsm           1       0.060       0.060     0.00
elaps:  optical           1       0.000       0.000     0.00
  
>> End of run:  21-APR-2016   8:51:37
