Siesta Version:                                        siesta-3.2-pl-3
Architecture  : x86_64-unknown-linux-gnu--unknown
Compiler flags: mpiifort -g -O2 -fPIC -xSSE4.1 -fp-model source -shared-intel 
PARALLEL version

* Running on    8 nodes in parallel
>> Start of run:  28-APR-2016   7:22:20

                           ***********************       
                           *  WELCOME TO SIESTA  *       
                           ***********************       

reinit: Reading from standard input
************************** Dump of input data file ****************************
#(1) General system descriptors
SystemName            GRP_doping    # Descriptive name of the system
SystemLabel           GRP_doping    # Short name for naming files
%include STRUCT.fdf
%include KPT.fdf
%include BASIS.fdf
#%include TS.fdf # for transiesta calculation
#(4) DFT, Grid, SCF
XC.functional         GGA           # LDA or GGA (default = LDA)
XC.authors            PBE           # CA (Ceperley-Aldr) = PZ
                                    #    (Perdew-Zunger) - LDA - Default
                                    # PW92 (Perdew-Wang-92) - LDA
                                    # PBE (Perdew-Burke-Ernzerhof) - GGA
MeshCutoff            200.000000    Ry      # Default: 50.0 Ry ~ 0.444 Bohr
                                    #         100.0 Ry ~ 0.314 Bohr
MaxSCFIterations      500           # Default: 50
DM.MixingWeight       0.05          # Default: 0.25
DM.NumberPulay        10            # Default: 0
DM.PulayOnFile        F             # SystemLabel.P1, SystemLabel.P2
DM.Tolerance          1.d-4         # Default: 1.d-4
DM.UseSaveDM          .true.        # because of the bug
SCFMustConverge       .true.
NeglNonOverlapInt     F             # Default: F
#(5) Eigenvalue problem: order-N or diagonalization
SolutionMethod        Diagon        # or Transiesta
ElectronicTemperature 300.0 K       # Default: 300.0 K
#(6) Molecular dynamics and relaxations
#MD.TypeOfRun          CG            # Type of dynamics:
#MD.VariableCell       F
#MD.NumCGsteps         0           # 0 for single-point / 100 for gopt
#MD.MaxCGDispl         0.2 Bohr      # Default: 0.2 Bohr
#MD.MaxForceTol        0.02 eV/Ang   # Default: 0.04 eV/Ang
#MD.MaxStressTol       1.0 GPa       # Default: 1.0 GPa
# Geometry Constraints
#%block GeometryConstraints
#	position from 1 to 44
#%endblock GeometryConstraints
BandLinesScale   pi/a
%block BandLines
 1   0.00000000  0.00000000  0.00000000
50   0.00000000  0.07809418  0.00000000
50   0.04509075  0.07809242  0.00000000
20   0.00000000  0.00000000  0.00000000
%endblock BandLines
************************** End of input data file *****************************

reinit: -----------------------------------------------------------------------
reinit: System Name: GRP_doping
reinit: -----------------------------------------------------------------------
reinit: System Label: GRP_doping                                                  
reinit: -----------------------------------------------------------------------

initatom: Reading input for the pseudopotentials and atomic orbitals ----------
 Species number:            1  Label: B Atomic number:           5
 Species number:            2  Label: C Atomic number:           6
Ground state valence configuration:   2s02  2p01
Reading pseudopotential information in formatted form from B.psf

Valence configuration for pseudopotential generation:
2s( 2.00) rc: 1.74
2p( 1.00) rc: 1.74
3d( 0.00) rc: 1.74
4f( 0.00) rc: 1.74
Ground state valence configuration:   2s02  2p02
Reading pseudopotential information in formatted form from C.psf

Valence configuration for pseudopotential generation:
2s( 2.00) rc: 1.54
2p( 2.00) rc: 1.54
3d( 0.00) rc: 1.54
4f( 0.00) rc: 1.54
For B, standard SIESTA heuristics set lmxkb to 3
 (one more than the basis l, including polarization orbitals).
Use PS.lmax or PS.KBprojectors blocks to override.
For C, standard SIESTA heuristics set lmxkb to 3
 (one more than the basis l, including polarization orbitals).
Use PS.lmax or PS.KBprojectors blocks to override.

<basis_specs>
===============================================================================
B                    Z=   5    Mass=  10.810        Charge= 0.17977+309
Lmxo=1 Lmxkb= 3    BasisType=split      Semic=F
L=0  Nsemic=0  Cnfigmx=2
          n=1  nzeta=2  polorb=0
            splnorm:   0.15000    
               vcte:    0.0000    
               rinn:    0.0000    
                rcs:    0.0000      0.0000    
            lambdas:    1.0000      1.0000    
L=1  Nsemic=0  Cnfigmx=2
          n=1  nzeta=2  polorb=1
            splnorm:   0.15000    
               vcte:    0.0000    
               rinn:    0.0000    
                rcs:    0.0000      0.0000    
            lambdas:    1.0000      1.0000    
-------------------------------------------------------------------------------
L=0  Nkbl=1  erefs: 0.17977+309
L=1  Nkbl=1  erefs: 0.17977+309
L=2  Nkbl=1  erefs: 0.17977+309
L=3  Nkbl=1  erefs: 0.17977+309
===============================================================================
</basis_specs>

atom: Called for B                     (Z =   5)

read_vps: Pseudopotential generation method:
read_vps: ATM3      Troullier-Martins                       
Total valence charge:    3.00000

read_vps: Pseudopotential includes a core correction:
read_vps: Pseudo-core for xc-correction

xc_check: Exchange-correlation functional:
xc_check: GGA Perdew, Burke & Ernzerhof 1996
V l=0 = -2*Zval/r beyond r=  1.7165
V l=1 = -2*Zval/r beyond r=  1.7165
V l=2 = -2*Zval/r beyond r=  1.7165
V l=3 = -2*Zval/r beyond r=  1.6951
All V_l potentials equal beyond r=  1.7165
This should be close to max(r_c) in ps generation
All pots = -2*Zval/r beyond r=  1.7165

VLOCAL1: 99.0% of the norm of Vloc inside     14.733 Ry
VLOCAL1: 99.9% of the norm of Vloc inside     33.577 Ry
atom: Maximum radius for 4*pi*r*r*local-pseudopot. charge    2.04484
atom: Maximum radius for r*vlocal+2*Zval:    1.75994
GHOST: No ghost state for L =  0
GHOST: No ghost state for L =  1
GHOST: No ghost state for L =  2
GHOST: No ghost state for L =  3

KBgen: Kleinman-Bylander projectors: 
   l= 0   rc=  1.897051   el= -0.693730   Ekb=  4.595746   kbcos=  0.286105
   l= 1   rc=  1.920920   el= -0.265236   Ekb= -2.350715   kbcos= -0.315747
   l= 2   rc=  2.044840   el=  0.002055   Ekb= -0.690767   kbcos= -0.013822
   l= 3   rc=  2.149707   el=  0.003188   Ekb= -0.315358   kbcos= -0.002055

KBgen: Total number of  Kleinman-Bylander projectors:   16
atom: -------------------------------------------------------------------------

atom: SANKEY-TYPE ORBITALS:
atom: Selected multiple-zeta basis: split     

SPLIT: Orbitals with angular momentum L= 0

SPLIT: Basis orbitals for state 2s

SPLIT: PAO cut-off radius determined from an
SPLIT: energy shift=  0.007350 Ry

   izeta = 1
                 lambda =    1.000000
                     rc =    5.422032
                 energy =   -0.686029
                kinetic =    0.576707
    potential(screened) =   -1.262736
       potential(ionic) =   -3.271094

   izeta = 2
                 rmatch =    4.222573
              splitnorm =    0.150000
                 energy =   -0.602132
                kinetic =    0.858975
    potential(screened) =   -1.461107
       potential(ionic) =   -3.582536

SPLIT: Orbitals with angular momentum L= 1

SPLIT: Basis orbitals for state 2p

SPLIT: PAO cut-off radius determined from an
SPLIT: energy shift=  0.007350 Ry

   izeta = 1
                 lambda =    1.000000
                     rc =    6.790259
                 energy =   -0.258578
                kinetic =    1.481412
    potential(screened) =   -1.739989
       potential(ionic) =   -3.657461

   izeta = 2
                 rmatch =    4.608740
              splitnorm =    0.150000
                 energy =   -0.173757
                kinetic =    2.186690
    potential(screened) =   -2.360447
       potential(ionic) =   -4.464260

POLgen: Perturbative polarization orbital with L=  2

POLgen: Polarization orbital for state 2p

   izeta = 1
                     rc =    6.790259
                 energy =    0.684082
                kinetic =    1.471481
    potential(screened) =   -0.787399
       potential(ionic) =   -2.406985
atom: Total number of Sankey-type orbitals: 13

atm_pop: Valence configuration (for local Pseudopot. screening):
 2s( 2.00)                                                            
 2p( 1.00)                                                            
Vna: chval, zval:    3.00000   3.00000

Vna:  Cut-off radius for the neutral-atom potential:   6.790259
comcore: Pseudo-core radius Rcore=  2.122997

atom: _________________________________________________________________________

<basis_specs>
===============================================================================
C                    Z=   6    Mass=  12.010        Charge= 0.17977+309
Lmxo=1 Lmxkb= 3    BasisType=split      Semic=F
L=0  Nsemic=0  Cnfigmx=2
          n=1  nzeta=2  polorb=0
            splnorm:   0.15000    
               vcte:    0.0000    
               rinn:    0.0000    
                rcs:    0.0000      0.0000    
            lambdas:    1.0000      1.0000    
L=1  Nsemic=0  Cnfigmx=2
          n=1  nzeta=2  polorb=1
            splnorm:   0.15000    
               vcte:    0.0000    
               rinn:    0.0000    
                rcs:    0.0000      0.0000    
            lambdas:    1.0000      1.0000    
-------------------------------------------------------------------------------
L=0  Nkbl=1  erefs: 0.17977+309
L=1  Nkbl=1  erefs: 0.17977+309
L=2  Nkbl=1  erefs: 0.17977+309
L=3  Nkbl=1  erefs: 0.17977+309
===============================================================================
</basis_specs>

atom: Called for C                     (Z =   6)

read_vps: Pseudopotential generation method:
read_vps: ATM3      Troullier-Martins                       
Total valence charge:    4.00000

read_vps: Pseudopotential includes a core correction:
read_vps: Pseudo-core for xc-correction

xc_check: Exchange-correlation functional:
xc_check: GGA Perdew, Burke & Ernzerhof 1996
V l=0 = -2*Zval/r beyond r=  1.5227
V l=1 = -2*Zval/r beyond r=  1.5227
V l=2 = -2*Zval/r beyond r=  1.5227
V l=3 = -2*Zval/r beyond r=  1.5038
All V_l potentials equal beyond r=  1.5227
This should be close to max(r_c) in ps generation
All pots = -2*Zval/r beyond r=  1.5227

VLOCAL1: 99.0% of the norm of Vloc inside     18.722 Ry
VLOCAL1: 99.9% of the norm of Vloc inside     42.668 Ry
atom: Maximum radius for 4*pi*r*r*local-pseudopot. charge    1.83678
atom: Maximum radius for r*vlocal+2*Zval:    1.58088
GHOST: No ghost state for L =  0
GHOST: No ghost state for L =  1
GHOST: No ghost state for L =  2
GHOST: No ghost state for L =  3

KBgen: Kleinman-Bylander projectors: 
   l= 0   rc=  1.704034   el= -1.009801   Ekb=  5.335044   kbcos=  0.316824
   l= 1   rc=  1.704034   el= -0.388707   Ekb= -3.785862   kbcos= -0.366464
   l= 2   rc=  1.791422   el=  0.001971   Ekb= -0.970471   kbcos= -0.009212
   l= 3   rc=  1.859892   el=  0.003065   Ekb= -0.399525   kbcos= -0.001223

KBgen: Total number of  Kleinman-Bylander projectors:   16
atom: -------------------------------------------------------------------------

atom: SANKEY-TYPE ORBITALS:
atom: Selected multiple-zeta basis: split     

SPLIT: Orbitals with angular momentum L= 0

SPLIT: Basis orbitals for state 2s

SPLIT: PAO cut-off radius determined from an
SPLIT: energy shift=  0.007350 Ry

   izeta = 1
                 lambda =    1.000000
                     rc =    4.632753
                 energy =   -1.002270
                kinetic =    0.855760
    potential(screened) =   -1.858031
       potential(ionic) =   -5.417575

   izeta = 2
                 rmatch =    3.431921
              splitnorm =    0.150000
                 energy =   -0.867111
                kinetic =    1.300804
    potential(screened) =   -2.167915
       potential(ionic) =   -5.962684

SPLIT: Orbitals with angular momentum L= 1

SPLIT: Basis orbitals for state 2p

SPLIT: PAO cut-off radius determined from an
SPLIT: energy shift=  0.007350 Ry

   izeta = 1
                 lambda =    1.000000
                     rc =    5.658549
                 energy =   -0.381140
                kinetic =    2.399701
    potential(screened) =   -2.780841
       potential(ionic) =   -6.206085

   izeta = 2
                 rmatch =    3.653288
              splitnorm =    0.150000
                 energy =   -0.249149
                kinetic =    3.542762
    potential(screened) =   -3.791911
       potential(ionic) =   -7.581078

POLgen: Perturbative polarization orbital with L=  2

POLgen: Polarization orbital for state 2p

   izeta = 1
                     rc =    5.658549
                 energy =    1.109913
                kinetic =    2.304789
    potential(screened) =   -1.194876
       potential(ionic) =   -4.013592
atom: Total number of Sankey-type orbitals: 13

atm_pop: Valence configuration (for local Pseudopot. screening):
 2s( 2.00)                                                            
 2p( 2.00)                                                            
Vna: chval, zval:    4.00000   4.00000

Vna:  Cut-off radius for the neutral-atom potential:   5.658549
comcore: Pseudo-core radius Rcore=  1.791422

atom: _________________________________________________________________________

prinput: Basis input ----------------------------------------------------------

PAO.BasisType split     

%block ChemicalSpeciesLabel
    1    5 B                       # Species index, atomic number, species label
    2    6 C                       # Species index, atomic number, species label
%endblock ChemicalSpeciesLabel

%block PAO.Basis                 # Define Basis set
B                     2                    # Species label, number of l-shells
 n=2   0   2                         # n, l, Nzeta 
   5.422      4.223   
   1.000      1.000   
 n=2   1   2 P   1                   # n, l, Nzeta, Polarization, NzetaPol
   6.790      4.609   
   1.000      1.000   
C                     2                    # Species label, number of l-shells
 n=2   0   2                         # n, l, Nzeta 
   4.633      3.432   
   1.000      1.000   
 n=2   1   2 P   1                   # n, l, Nzeta, Polarization, NzetaPol
   5.659      3.653   
   1.000      1.000   
%endblock PAO.Basis

prinput: ----------------------------------------------------------------------

coor:   Atomic-coordinates input format  =     Fractional

siesta: Atomic coordinates (Bohr) and species
siesta:      4.63094  34.85847   0.00000  1        1
siesta:      6.95932  30.82560   0.00000  1        2
siesta:      6.95932  33.51406   0.00000  1        3
siesta:      9.28770  21.41544   0.00000  1        4
siesta:      6.95932  22.75985   0.00000  1        5
siesta:      6.95932  25.44831   0.00000  1        6
siesta:     -0.02582  21.41544   0.00000  1        7
siesta:      2.30256  22.75985   0.00000  1        8
siesta:      2.30256  25.44831   0.00000  1        9
siesta:     -2.35420  22.75985   0.00000  1       10
siesta:     -2.35420  25.44831   0.00000  1       11
siesta:      4.63094  26.79272   0.00000  1       12
siesta:      4.63094  29.48119   0.00000  1       13
siesta:     -0.02582  26.79272   0.00000  1       14
siesta:     -0.02582  29.48119   0.00000  1       15
siesta:      2.30256  30.82560   0.00000  1       16
siesta:      2.30256  33.51406   0.00000  1       17
siesta:     -2.35420  30.82560   0.00000  1       18
siesta:     -2.35420  33.51406   0.00000  1       19
siesta:     -0.02582  34.85847   0.00000  1       20
siesta:     -0.02582   2.59549   0.00000  2       21
siesta:     -0.02582   5.28395   0.00000  2       22
siesta:     -2.35420  38.89134   0.00000  2       23
siesta:     -2.35420  41.57980   0.00000  2       24
siesta:      2.30256  38.89134   0.00000  2       25
siesta:      2.30256  41.57980   0.00000  2       26
siesta:      4.63094  37.54693   0.00000  2       27
siesta:      9.28770  26.79272   0.00000  2       28
siesta:      9.28770  29.48119   0.00000  2       29
siesta:     -4.68258  34.85847   0.00000  2       30
siesta:     -4.68258  37.54693   0.00000  2       31
siesta:      2.30256   6.62836   0.00000  2       32
siesta:      2.30256   9.31683   0.00000  2       33
siesta:      4.63094  10.66124   0.00000  2       34
siesta:      4.63094  13.34970   0.00000  2       35
siesta:      6.95932  14.69411   0.00000  2       36
siesta:      6.95932  17.38257   0.00000  2       37
siesta:      9.28770  18.72698   0.00000  2       38
siesta:     11.61608  22.75985   0.00000  2       39
siesta:     11.61608  25.44831   0.00000  2       40
siesta:     -2.35420   6.62836   0.00000  2       41
siesta:     -2.35420   9.31683   0.00000  2       42
siesta:     -0.02582  10.66124   0.00000  2       43
siesta:     -0.02582  13.34970   0.00000  2       44
siesta:      2.30256  14.69411   0.00000  2       45
siesta:      2.30256  17.38257   0.00000  2       46
siesta:      4.63094  18.72698   0.00000  2       47
siesta:      4.63094  21.41544   0.00000  2       48
siesta:     -4.68258  10.66124   0.00000  2       49
siesta:     -4.68258  13.34970   0.00000  2       50
siesta:     -2.35420  14.69411   0.00000  2       51
siesta:     -2.35420  17.38257   0.00000  2       52
siesta:     -0.02582  18.72698   0.00000  2       53
siesta:     -7.01096  14.69411   0.00000  2       54
siesta:     -7.01096  17.38257   0.00000  2       55
siesta:     -4.68258  18.72698   0.00000  2       56
siesta:     -4.68258  21.41544   0.00000  2       57
siesta:     -9.33934  18.72698   0.00000  2       58
siesta:     -9.33934  21.41544   0.00000  2       59
siesta:     -7.01096  22.75985   0.00000  2       60
siesta:     -7.01096  25.44831   0.00000  2       61
siesta:    -11.66772  22.75985   0.00000  2       62
siesta:    -11.66772  25.44831   0.00000  2       63
siesta:     -9.33934  26.79272   0.00000  2       64
siesta:     -9.33934  29.48119   0.00000  2       65
siesta:     -4.68258  26.79272   0.00000  2       66
siesta:     -4.68258  29.48119   0.00000  2       67
siesta:     -7.01096  30.82560   0.00000  2       68
siesta:     -7.01096  33.51406   0.00000  2       69
siesta:     -0.02582  37.54693   0.00000  2       70
siesta:     -0.02582  42.92421   0.00000  2       71
siesta:     -0.02582  45.61267   0.00000  2       72

siesta: System type = slab      

initatomlists: Number of atoms, orbitals, and projectors:     72   936  1152

siesta: ******************** Simulation parameters ****************************
siesta:
siesta: The following are some of the parameters of the simulation.
siesta: A complete list of the parameters used, including default values,
siesta: can be found in file out.fdf
siesta:
redata: Non-Collinear-spin run           =     F
redata: SpinPolarized (Up/Down) run      =     F
redata: Number of spin components        =     1
redata: Long output                      =     F
redata: Number of Atomic Species         =        2
redata: Charge density info will appear in .RHO file
redata: Write Mulliken Pop.              =     NO
redata: Mesh Cutoff                      =   200.0000  Ry
redata: Net charge of the system         =     0.0000 |e|
redata: Max. number of SCF Iter          =      500
redata: SCF convergence failure will abort job
redata: Performing Pulay mixing using    =    10 iterations
redata: Mix DM in first SCF step ?       =     F
redata: Write Pulay info on disk?        =     F
redata: Discard 1st Pulay DM after  kick =     F
redata: New DM Mixing Weight             =     0.0500
redata: New DM Occupancy tolerance       = 0.000000000001
redata: No kicks to SCF
redata: DM Mixing Weight for Kicks       =     0.5000
redata: DM Tolerance for SCF             =     0.000100
redata: Require Energy convergence for SCF =     F
redata: DM Energy tolerance for SCF      =     0.000100 eV
redata: Require Harris convergence for SCF =     F
redata: DM Harris energy tolerance for SCF =     0.000100 eV
redata: Using Saved Data (generic)   =     F
redata: Use continuation files for DM    =     T
redata: Neglect nonoverlap interactions  =     F
redata: Method of Calculation            =     Diagonalization
redata: Divide and Conquer               =     T
redata: Electronic Temperature           =     0.0019  Ry
redata: Fix the spin of the system       =     F
redata: Dynamics option                  =     Verlet MD run
redata: Initial MD time step             =        1
redata:   Final MD time step             =        1
redata: Length of MD time step           =     1.0000  fs
redata: Initial Temperature of MD run    =     0.0000  K
redata: Perform a MD quench              =     F
redata: ***********************************************************************
Total number of electrons:   268.000000
Total ionic charge:   268.000000

* ProcessorY, Blocksize:    2  24

k-point displ. along   1 input, could be:     0.50    0.00
k-point displ. along   2 input, could be:     0.50    0.00
 Kpoints in:          231 . Kpoints trimmed:          231

siesta: k-grid: Number of k-points =   231
siesta: k-grid: Cutoff (effective) =     5.000 Ang
siesta: k-grid: Supercell and displacements
siesta: k-grid:   21   0   0      0.500
siesta: k-grid:    0  21   0      0.500
siesta: k-grid:    0   0   1      0.000
Naive supercell factors:     2    2    2

superc: Internal auxiliary supercell:     2 x     2 x     2  =       8
superc: Number of atoms, orbitals, and projectors:    576   7488   9216

* Maximum dynamic memory allocated =     4 MB

siesta:                 ==============================
                            Begin MD step =      1
                        ==============================

superc: Internal auxiliary supercell:     2 x     2 x     2  =       8
superc: Number of atoms, orbitals, and projectors:    576   7488   9216

outcell: Unit cell vectors (Ang):
       12.804619    7.392750    0.000000
        0.000000   14.785500    0.000000
        0.000000    0.000000   10.000000

outcell: Cell vector modules (Ang)   :   14.785500   14.785500   10.000000
outcell: Cell angles (23,13,12) (deg):     90.0000     90.0000     60.0000
outcell: Cell volume (Ang**3)        :   1893.2269
New_DM. Step:     1
Initializing Density Matrix...

InitMesh: MESH =   120 x   120 x    90 =     1296000
InitMesh: Mesh cutoff (required, used) =   200.000   223.865 Ry

* Maximum dynamic memory allocated =   224 MB

stepf: Fermi-Dirac step function

siesta: Program's energy decomposition (eV):
siesta: Ebs     =     -5543.973603
siesta: Eions   =     15841.876847
siesta: Ena     =      4242.596690
siesta: Ekin    =      5323.417823
siesta: Enl     =       807.943796
siesta: DEna    =        -0.000008
siesta: DUscf   =         0.000000
siesta: DUext   =         0.000000
siesta: Exc     =     -4202.707148
siesta: eta*DQ  =         0.000000
siesta: Emadel  =         0.000000
siesta: Emeta   =         0.000000
siesta: Emolmec =         0.000000
siesta: Ekinion =         0.000000
siesta: Eharris =     -9413.388031
siesta: Etot    =     -9670.625695
siesta: FreeEng =     -9670.625695

siesta: iscf   Eharris(eV)      E_KS(eV)   FreeEng(eV)   dDmax  Ef(eV)
siesta:    1    -9413.3880    -9670.6257    -9670.6257  6.4561 -8.3790
timer: Routine,Calls,Time,% = IterSCF        1    4434.430  99.73
elaps: Routine,Calls,Wall,% = IterSCF        1     554.985  99.73
siesta:    2   -14190.1553    -8665.5205    -8665.5985 20.2073 -3.9895
siesta:    3    -9355.8545    -9526.0988    -9526.1537  3.5090 -6.6467
siesta:    4    -9332.8052    -9405.9089    -9405.9145  1.6304 -5.7054
siesta:    5    -9277.9027    -9316.4123    -9316.4475  1.1650 -5.4104
siesta:    6    -9264.3702    -9282.7109    -9282.7524  1.0369 -5.2140
siesta:    7    -9259.4368    -9274.0664    -9274.1092  0.8105 -5.1947
siesta:    8    -9256.4783    -9267.4755    -9267.5141  0.7658 -5.2368
siesta:    9    -9254.7986    -9261.3322    -9261.3744  0.6740 -5.2074
siesta:   10    -9255.6295    -9242.8608    -9242.9102  0.5540 -5.0311
siesta:   11    -9254.8424    -9235.9525    -9236.0129  0.4391 -4.9672
siesta:   12    -9253.7471    -9228.6543    -9228.7122  0.2727 -4.9844
siesta:   13    -9253.3129    -9226.2966    -9226.3504  0.1872 -4.9817
siesta:   14    -9252.7278    -9230.9467    -9231.0164  0.1595 -5.0375
siesta:   15    -9252.3527    -9233.0278    -9233.0707  0.1023 -5.0428
siesta:   16    -9252.1676    -9239.0945    -9239.1550  0.0687 -5.0624
siesta:   17    -9252.1116    -9242.2899    -9242.3554  0.0466 -5.0706
siesta:   18    -9252.0910    -9244.8078    -9244.8694  0.0310 -5.0801
siesta:   19    -9252.0714    -9247.4347    -9247.4954  0.0221 -5.0897
siesta:   20    -9252.0636    -9248.9800    -9249.0408  0.0208 -5.0938
siesta:   21    -9252.0577    -9250.0010    -9250.0601  0.0198 -5.0899
siesta:   22    -9252.0572    -9251.0590    -9251.1199  0.0133 -5.0873
siesta:   23    -9252.0553    -9251.5248    -9251.5849  0.0098 -5.0820
siesta:   24    -9252.0541    -9251.7931    -9251.8548  0.0042 -5.0804
siesta:   25    -9252.0538    -9251.8730    -9251.9347  0.0029 -5.0793
siesta:   26    -9252.0540    -9251.9251    -9251.9869  0.0015 -5.0792
siesta:   27    -9252.0540    -9251.9668    -9252.0284  0.0012 -5.0795
siesta:   28    -9252.0539    -9252.0220    -9252.0835  0.0010 -5.0798
siesta:   29    -9252.0539    -9252.0482    -9252.1098  0.0006 -5.0801
siesta:   30    -9252.0539    -9252.0596    -9252.1211  0.0004 -5.0803
siesta:   31    -9252.0539    -9252.0413    -9252.1028  0.0003 -5.0804
siesta:   32    -9252.0539    -9252.0296    -9252.0911  0.0002 -5.0804
siesta:   33    -9252.0539    -9252.0325    -9252.0940  0.0002 -5.0804
siesta:   34    -9252.0539    -9252.0362    -9252.0978  0.0001 -5.0805
siesta:   35    -9252.0539    -9252.0397    -9252.1012  0.0001 -5.0805

siesta: E_KS(eV) =            -9252.0433

siesta: E_KS - E_eggbox =     -9252.0433

siesta: Atomic forces (eV/Ang):
----------------------------------------
   Tot   -0.191126   -0.168341    0.000000
----------------------------------------
   Max  561.898848
   Res  148.703133    sqrt( Sum f_i^2 / 3N )
----------------------------------------
   Max  561.898848    constrained

Stress-tensor-Voigt (kbar):     -788.06    -2725.19       -0.67       -3.36        0.00        0.00
(Free)E + p*V (eV/cell)    -7868.0316
Target enthalpy (eV/cell)    -9252.1048

siesta: Stress tensor (static) (eV/Ang**3):
        -0.491865   -0.002096    0.000000
        -0.002096   -1.700914    0.000000
         0.000000    0.000000   -0.000418

siesta: Pressure (static):       1171.30907856  kBar

siesta: Stress tensor (total) (eV/Ang**3):
        -0.491865   -0.002096    0.000000
        -0.002096   -1.700914    0.000000
         0.000000    0.000000   -0.000418

siesta: Pressure (total):       1171.30907856  kBar

siesta: Temp_ion =       0.000 K

* Maximum dynamic memory allocated =   240 MB
Computing bands...

siesta: Program's energy decomposition (eV):
siesta: Ebs     =     -4151.194575
siesta: Eions   =     15841.876847
siesta: Ena     =      4242.596690
siesta: Ekin    =      8210.207130
siesta: Enl     =      -800.055150
siesta: DEna    =      -794.965664
siesta: DUscf   =       106.597356
siesta: DUext   =         0.000000
siesta: Exc     =     -4374.546811
siesta: eta*DQ  =         0.000000
siesta: Emadel  =         0.000000
siesta: Emeta   =         0.000000
siesta: Emolmec =         0.000000
siesta: Ekinion =         0.000000
siesta: Eharris =     -9252.053890
siesta: Etot    =     -9252.043297
siesta: FreeEng =     -9252.104842

siesta: Final energy (eV):
siesta:  Band Struct. =   -4151.194575
siesta:       Kinetic =    8210.207130
siesta:       Hartree =   26802.278351
siesta:    Ext. field =       0.000000
siesta:   Exch.-corr. =   -4374.546811
siesta:  Ion-electron =  -61510.081768
siesta:       Ion-ion =   21620.099802
siesta:       Ekinion =       0.000000
siesta:         Total =   -9252.043297

siesta: Atomic forces (eV/Ang):
siesta:      1   16.474220    3.694972    0.000000
siesta:      2    7.845707    0.648970    0.000000
siesta:      3    3.191288    3.023758    0.000000
siesta:      4    8.293873   -3.624396    0.000000
siesta:      5   -5.324701   -2.906096    0.000000
siesta:      6    3.306923    2.288184    0.000000
siesta:      7   -0.775617   -3.778833    0.000000
siesta:      8    4.528245   -3.330861    0.000000
siesta:      9   -1.115634    1.593738    0.000000
siesta:     10   -2.836313   -3.435696    0.000000
siesta:     11   -3.830636    2.589921    0.000000
siesta:     12   -1.566632   -1.081920    0.000000
siesta:     13   -0.433197    1.314201    0.000000
siesta:     14    1.146560    0.148263    0.000000
siesta:     15   -1.043646 -411.187476    0.000000
siesta:     16   15.230792    0.712529    0.000000
siesta:     17   14.723743 -400.156935    0.000000
siesta:     18  -18.982435   -1.125561    0.000000
siesta:     19  -16.358527 -399.968068    0.000000
siesta:     20    0.736639  104.127479    0.000000
siesta:     21   -0.409909  407.232208    0.000000
siesta:     22    0.533033 -124.093936    0.000000
siesta:     23    0.757787  125.628559    0.000000
siesta:     24  -16.146961 -549.202303    0.000000
siesta:     25   -0.386234  124.659131    0.000000
siesta:     26   16.419904 -549.855201    0.000000
siesta:     27   26.103526 -548.903304    0.000000
siesta:     28    7.250752    5.111462    0.000000
siesta:     29    0.967022   -3.557156    0.000000
siesta:     30  -25.084996   -0.309044    0.000000
siesta:     31  -28.537123 -550.981124    0.000000
siesta:     32   15.711398  404.932795    0.000000
siesta:     33    0.892764 -126.544603    0.000000
siesta:     34   38.063349  555.424110    0.000000
siesta:     35   26.547030   -6.622024    0.000000
siesta:     36   -2.350743   -1.762134    0.000000
siesta:     37    2.680667   -1.120049    0.000000
siesta:     38   -3.004590   -3.633417    0.000000
siesta:     39    2.866601    9.004594    0.000000
siesta:     40    0.333011   -6.673414    0.000000
siesta:     41  -15.537703  407.191896    0.000000
siesta:     42    1.389629 -125.973093    0.000000
siesta:     43    1.284764  549.079780    0.000000
siesta:     44    0.174886 -128.485547    0.000000
siesta:     45   20.945847  558.600472    0.000000
siesta:     46   22.123354   -5.857706    0.000000
siesta:     47   -1.721806    2.602366    0.000000
siesta:     48   -0.091406   -3.599489    0.000000
siesta:     49  -35.772601  552.275722    0.000000
siesta:     50  -27.426244   -6.204019    0.000000
siesta:     51  -22.401494  557.243344    0.000000
siesta:     52  -21.953672   -5.944674    0.000000
siesta:     53    0.933970  561.898848    0.000000
siesta:     54    2.656484   -1.720524    0.000000
siesta:     55   -2.049794   -0.227755    0.000000
siesta:     56    0.621087    2.235959    0.000000
siesta:     57   -3.054091   -1.608242    0.000000
siesta:     58    0.868505   -0.283778    0.000000
siesta:     59   -1.713733   -1.969891    0.000000
siesta:     60   -0.025400   -0.188859    0.000000
siesta:     61    0.293294   -0.379139    0.000000
siesta:     62   -0.711053    6.371898    0.000000
siesta:     63    0.543168   -6.685204    0.000000
siesta:     64   -2.622598    2.077982    0.000000
siesta:     65    1.262157    0.704120    0.000000
siesta:     66   -3.241048    1.501046    0.000000
siesta:     67   -1.307411   -2.240836    0.000000
siesta:     68   -2.823117   -0.217496    0.000000
siesta:     69    2.290730    2.317633    0.000000
siesta:     70    0.287412 -539.295153    0.000000
siesta:     71    0.538696  129.883691    0.000000
siesta:     72   -0.368876 -551.553017    0.000000
siesta: ----------------------------------------
siesta:    Tot   -0.191126   -0.168341    0.000000

siesta: Stress tensor (static) (eV/Ang**3):
siesta:    -0.491865   -0.002096    0.000000
siesta:    -0.002096   -1.700914    0.000000
siesta:     0.000000    0.000000   -0.000418

siesta: Cell volume =       1893.226884 Ang**3

siesta: Pressure (static):
siesta:                Solid            Molecule  Units
siesta:           0.00796224          0.11418526  Ry/Bohr**3
siesta:           0.73106572         10.48410205  eV/Ang**3
siesta:        1171.30907856      16797.56490275  kBar
(Free)E+ p_basis*V_orbitals  =       -9215.048156
(Free)Eharris+ p_basis*V_orbitals  =       -9215.062385

siesta: Electric dipole (a.u.)  =    0.000000    0.000000    0.000000
siesta: Electric dipole (Debye) =    0.000000    0.000000    0.000000

* Maximum dynamic memory allocated : Node    0 =   240 MB
* Maximum dynamic memory allocated : Node    1 =    83 MB
* Maximum dynamic memory allocated : Node    2 =    85 MB
* Maximum dynamic memory allocated : Node    3 =   227 MB
* Maximum dynamic memory allocated : Node    4 =   227 MB
* Maximum dynamic memory allocated : Node    5 =    83 MB
* Maximum dynamic memory allocated : Node    6 =    85 MB
* Maximum dynamic memory allocated : Node    7 =   209 MB

* Maximum memory occured during matrixMtoO                    

timer: CPU execution times:
timer:  Routine       Calls   Time/call    Tot.time        %
timer:  siesta            1  152189.202  152189.202   100.00
timer:  Setup             1       3.094       3.094     0.00
timer:  bands             3     269.211     807.633     0.53
timer:  writewave         1       0.020       0.020     0.00
timer:  KSV_init          1       0.003       0.003     0.00
timer:  IterMD            1  151372.597  151372.597    99.46
timer:  hsparse           1       0.397       0.397     0.00
timer:  overlap           1       7.781       7.781     0.01
timer:  IterSCF          35    4318.288  151140.090    99.31
timer:  kinefsm           2       4.035       8.069     0.01
timer:  nlefsm            2      21.369      42.739     0.03
timer:  DHSCF            36     123.034    4429.234     2.91
timer:  DHSCF1            1       0.989       0.989     0.00
timer:  DHSCF2            1      45.151      45.151     0.03
timer:  REORD           290       0.010       2.915     0.00
timer:  POISON           37       2.240      82.870     0.05
timer:  DHSCF3           36     120.486    4337.486     2.85
timer:  rhoofd           36      25.792     928.527     0.61
timer:  cellXC           36       3.526     126.928     0.08
timer:  vmat             36      58.637    2110.930     1.39
timer:  MolMec            2       0.000       0.000     0.00
timer:  diagon           35    4194.108  146793.781    96.45
timer:  c-eigval       8206       6.670   54730.097    35.96
timer:  c-buildHS      8206       0.121     996.996     0.66
timer:  cdiag         16291       6.872  111953.524    73.56
timer:  cdiag1        16291       0.427    6961.947     4.57
timer:  cdiag2        16291       1.904   31024.354    20.39
timer:  cdiag3        16291       3.940   64183.877    42.17
timer:  cdiag4        16291       0.225    3669.439     2.41
timer:  c-eigvec       8085       7.275   58816.518    38.65
timer:  c-buildD       8085       4.207   34010.736    22.35
timer:  DHSCF4            1      43.709      43.709     0.03
timer:  dfscf             1      41.020      41.020     0.03
timer:  overfsm           1       0.480       0.480     0.00
timer:  optical           1       5.133       5.133     0.00
  

elaps: ELAPSED times:
elaps:  Routine       Calls   Time/call    Tot.time        %
elaps:  siesta            1   19045.147   19045.147   100.00
elaps:  Setup             1       0.386       0.386     0.00
elaps:  bands             3      33.703     101.109     0.53
elaps:  writewave         1       0.002       0.002     0.00
elaps:  KSV_init          1       0.000       0.000     0.00
elaps:  IterMD            1   18942.974   18942.974    99.46
elaps:  hsparse           1       0.051       0.051     0.00
elaps:  overlap           1       0.981       0.981     0.01
elaps:  IterSCF          35     540.397   18913.889    99.31
elaps:  kinefsm           2       0.510       1.020     0.01
elaps:  nlefsm            2       2.678       5.355     0.03
elaps:  DHSCF            36      15.546     559.674     2.94
elaps:  DHSCF1            1       0.127       0.127     0.00
elaps:  DHSCF2            1       5.644       5.644     0.03
elaps:  REORD           290       0.001       0.390     0.00
elaps:  POISON           37       0.280      10.355     0.05
elaps:  DHSCF3           36      15.073     542.632     2.85
elaps:  rhoofd           36       6.945     250.030     1.31
elaps:  cellXC           36       0.440      15.854     0.08
elaps:  vmat             36       7.335     264.072     1.39
elaps:  MolMec            2       0.000       0.000     0.00
elaps:  diagon           35     524.884   18370.951    96.46
elaps:  c-eigval       8206       0.834    6847.682    35.95
elaps:  c-buildHS      8206       0.017     137.684     0.72
elaps:  cdiag         16291       0.847   13800.805    72.46
elaps:  cdiag1        16291       0.053     862.161     4.53
elaps:  cdiag2        16291       0.238    3881.827    20.38
elaps:  cdiag3        16291       0.494    8041.599    42.22
elaps:  cdiag4        16291       0.029     466.765     2.45
elaps:  c-eigvec       8085       0.889    7184.547    37.72
elaps:  c-buildD       8085       0.548    4433.129    23.28
elaps:  DHSCF4            1      11.013      11.013     0.06
elaps:  dfscf             1      10.457      10.457     0.05
elaps:  overfsm           1       0.065       0.065     0.00
elaps:  optical           1       0.000       0.000     0.00
  
>> End of run:  28-APR-2016  12:39:45
