Siesta Version:                                        siesta-3.2-pl-3
Architecture  : x86_64-unknown-linux-gnu--unknown
Compiler flags: mpiifort -g -O2 -fPIC -xSSE4.1 -fp-model source -shared-intel 
PARALLEL version

* Running on    8 nodes in parallel
>> Start of run:  30-APR-2016  18:57:28

                           ***********************       
                           *  WELCOME TO SIESTA  *       
                           ***********************       

reinit: Reading from standard input
************************** Dump of input data file ****************************
#(1) General system descriptors
SystemName            GRP_doping    # Descriptive name of the system
SystemLabel           GRP_doping    # Short name for naming files
%include STRUCT.fdf
%include KPT.fdf
%include BASIS.fdf
#%include TS.fdf # for transiesta calculation
#(4) DFT, Grid, SCF
XC.functional         GGA           # LDA or GGA (default = LDA)
XC.authors            PBE           # CA (Ceperley-Aldr) = PZ
                                    #    (Perdew-Zunger) - LDA - Default
                                    # PW92 (Perdew-Wang-92) - LDA
                                    # PBE (Perdew-Burke-Ernzerhof) - GGA
MeshCutoff            200.000000    Ry      # Default: 50.0 Ry ~ 0.444 Bohr
                                    #         100.0 Ry ~ 0.314 Bohr
MaxSCFIterations      500           # Default: 50
DM.MixingWeight       0.05          # Default: 0.25
DM.NumberPulay        10            # Default: 0
DM.PulayOnFile        F             # SystemLabel.P1, SystemLabel.P2
DM.Tolerance          1.d-4         # Default: 1.d-4
DM.UseSaveDM          .true.        # because of the bug
SCFMustConverge       .true.
NeglNonOverlapInt     F             # Default: F
#(5) Eigenvalue problem: order-N or diagonalization
SolutionMethod        Diagon        # or Transiesta
ElectronicTemperature 300.0 K       # Default: 300.0 K
#(6) Molecular dynamics and relaxations
#MD.TypeOfRun          CG            # Type of dynamics:
#MD.VariableCell       F
#MD.NumCGsteps         0           # 0 for single-point / 100 for gopt
#MD.MaxCGDispl         0.2 Bohr      # Default: 0.2 Bohr
#MD.MaxForceTol        0.02 eV/Ang   # Default: 0.04 eV/Ang
#MD.MaxStressTol       1.0 GPa       # Default: 1.0 GPa
# Geometry Constraints
#%block GeometryConstraints
#	position from 1 to 44
#%endblock GeometryConstraints
BandLinesScale   pi/a
%block BandLines
 1   0.00000000  0.00000000  0.00000000
50   0.00000000  0.07809418  0.00000000
50   0.04509075  0.07809242  0.00000000
20   0.00000000  0.00000000  0.00000000
%endblock BandLines
************************** End of input data file *****************************

reinit: -----------------------------------------------------------------------
reinit: System Name: GRP_doping
reinit: -----------------------------------------------------------------------
reinit: System Label: GRP_doping                                                  
reinit: -----------------------------------------------------------------------

initatom: Reading input for the pseudopotentials and atomic orbitals ----------
 Species number:            1  Label: B Atomic number:           5
 Species number:            2  Label: C Atomic number:           6
Ground state valence configuration:   2s02  2p01
Reading pseudopotential information in formatted form from B.psf

Valence configuration for pseudopotential generation:
2s( 2.00) rc: 1.74
2p( 1.00) rc: 1.74
3d( 0.00) rc: 1.74
4f( 0.00) rc: 1.74
Ground state valence configuration:   2s02  2p02
Reading pseudopotential information in formatted form from C.psf

Valence configuration for pseudopotential generation:
2s( 2.00) rc: 1.54
2p( 2.00) rc: 1.54
3d( 0.00) rc: 1.54
4f( 0.00) rc: 1.54
For B, standard SIESTA heuristics set lmxkb to 3
 (one more than the basis l, including polarization orbitals).
Use PS.lmax or PS.KBprojectors blocks to override.
For C, standard SIESTA heuristics set lmxkb to 3
 (one more than the basis l, including polarization orbitals).
Use PS.lmax or PS.KBprojectors blocks to override.

<basis_specs>
===============================================================================
B                    Z=   5    Mass=  10.810        Charge= 0.17977+309
Lmxo=1 Lmxkb= 3    BasisType=split      Semic=F
L=0  Nsemic=0  Cnfigmx=2
          n=1  nzeta=2  polorb=0
            splnorm:   0.15000    
               vcte:    0.0000    
               rinn:    0.0000    
                rcs:    0.0000      0.0000    
            lambdas:    1.0000      1.0000    
L=1  Nsemic=0  Cnfigmx=2
          n=1  nzeta=2  polorb=1
            splnorm:   0.15000    
               vcte:    0.0000    
               rinn:    0.0000    
                rcs:    0.0000      0.0000    
            lambdas:    1.0000      1.0000    
-------------------------------------------------------------------------------
L=0  Nkbl=1  erefs: 0.17977+309
L=1  Nkbl=1  erefs: 0.17977+309
L=2  Nkbl=1  erefs: 0.17977+309
L=3  Nkbl=1  erefs: 0.17977+309
===============================================================================
</basis_specs>

atom: Called for B                     (Z =   5)

read_vps: Pseudopotential generation method:
read_vps: ATM3      Troullier-Martins                       
Total valence charge:    3.00000

read_vps: Pseudopotential includes a core correction:
read_vps: Pseudo-core for xc-correction

xc_check: Exchange-correlation functional:
xc_check: GGA Perdew, Burke & Ernzerhof 1996
V l=0 = -2*Zval/r beyond r=  1.7165
V l=1 = -2*Zval/r beyond r=  1.7165
V l=2 = -2*Zval/r beyond r=  1.7165
V l=3 = -2*Zval/r beyond r=  1.6951
All V_l potentials equal beyond r=  1.7165
This should be close to max(r_c) in ps generation
All pots = -2*Zval/r beyond r=  1.7165

VLOCAL1: 99.0% of the norm of Vloc inside     14.733 Ry
VLOCAL1: 99.9% of the norm of Vloc inside     33.577 Ry
atom: Maximum radius for 4*pi*r*r*local-pseudopot. charge    2.04484
atom: Maximum radius for r*vlocal+2*Zval:    1.75994
GHOST: No ghost state for L =  0
GHOST: No ghost state for L =  1
GHOST: No ghost state for L =  2
GHOST: No ghost state for L =  3

KBgen: Kleinman-Bylander projectors: 
   l= 0   rc=  1.897051   el= -0.693730   Ekb=  4.595746   kbcos=  0.286105
   l= 1   rc=  1.920920   el= -0.265236   Ekb= -2.350715   kbcos= -0.315747
   l= 2   rc=  2.044840   el=  0.002055   Ekb= -0.690767   kbcos= -0.013822
   l= 3   rc=  2.149707   el=  0.003188   Ekb= -0.315358   kbcos= -0.002055

KBgen: Total number of  Kleinman-Bylander projectors:   16
atom: -------------------------------------------------------------------------

atom: SANKEY-TYPE ORBITALS:
atom: Selected multiple-zeta basis: split     

SPLIT: Orbitals with angular momentum L= 0

SPLIT: Basis orbitals for state 2s

SPLIT: PAO cut-off radius determined from an
SPLIT: energy shift=  0.007350 Ry

   izeta = 1
                 lambda =    1.000000
                     rc =    5.422032
                 energy =   -0.686029
                kinetic =    0.576707
    potential(screened) =   -1.262736
       potential(ionic) =   -3.271094

   izeta = 2
                 rmatch =    4.222573
              splitnorm =    0.150000
                 energy =   -0.602132
                kinetic =    0.858975
    potential(screened) =   -1.461107
       potential(ionic) =   -3.582536

SPLIT: Orbitals with angular momentum L= 1

SPLIT: Basis orbitals for state 2p

SPLIT: PAO cut-off radius determined from an
SPLIT: energy shift=  0.007350 Ry

   izeta = 1
                 lambda =    1.000000
                     rc =    6.790259
                 energy =   -0.258578
                kinetic =    1.481412
    potential(screened) =   -1.739989
       potential(ionic) =   -3.657461

   izeta = 2
                 rmatch =    4.608740
              splitnorm =    0.150000
                 energy =   -0.173757
                kinetic =    2.186690
    potential(screened) =   -2.360447
       potential(ionic) =   -4.464260

POLgen: Perturbative polarization orbital with L=  2

POLgen: Polarization orbital for state 2p

   izeta = 1
                     rc =    6.790259
                 energy =    0.684082
                kinetic =    1.471481
    potential(screened) =   -0.787399
       potential(ionic) =   -2.406985
atom: Total number of Sankey-type orbitals: 13

atm_pop: Valence configuration (for local Pseudopot. screening):
 2s( 2.00)                                                            
 2p( 1.00)                                                            
Vna: chval, zval:    3.00000   3.00000

Vna:  Cut-off radius for the neutral-atom potential:   6.790259
comcore: Pseudo-core radius Rcore=  2.122997

atom: _________________________________________________________________________

<basis_specs>
===============================================================================
C                    Z=   6    Mass=  12.010        Charge= 0.17977+309
Lmxo=1 Lmxkb= 3    BasisType=split      Semic=F
L=0  Nsemic=0  Cnfigmx=2
          n=1  nzeta=2  polorb=0
            splnorm:   0.15000    
               vcte:    0.0000    
               rinn:    0.0000    
                rcs:    0.0000      0.0000    
            lambdas:    1.0000      1.0000    
L=1  Nsemic=0  Cnfigmx=2
          n=1  nzeta=2  polorb=1
            splnorm:   0.15000    
               vcte:    0.0000    
               rinn:    0.0000    
                rcs:    0.0000      0.0000    
            lambdas:    1.0000      1.0000    
-------------------------------------------------------------------------------
L=0  Nkbl=1  erefs: 0.17977+309
L=1  Nkbl=1  erefs: 0.17977+309
L=2  Nkbl=1  erefs: 0.17977+309
L=3  Nkbl=1  erefs: 0.17977+309
===============================================================================
</basis_specs>

atom: Called for C                     (Z =   6)

read_vps: Pseudopotential generation method:
read_vps: ATM3      Troullier-Martins                       
Total valence charge:    4.00000

read_vps: Pseudopotential includes a core correction:
read_vps: Pseudo-core for xc-correction

xc_check: Exchange-correlation functional:
xc_check: GGA Perdew, Burke & Ernzerhof 1996
V l=0 = -2*Zval/r beyond r=  1.5227
V l=1 = -2*Zval/r beyond r=  1.5227
V l=2 = -2*Zval/r beyond r=  1.5227
V l=3 = -2*Zval/r beyond r=  1.5038
All V_l potentials equal beyond r=  1.5227
This should be close to max(r_c) in ps generation
All pots = -2*Zval/r beyond r=  1.5227

VLOCAL1: 99.0% of the norm of Vloc inside     18.722 Ry
VLOCAL1: 99.9% of the norm of Vloc inside     42.668 Ry
atom: Maximum radius for 4*pi*r*r*local-pseudopot. charge    1.83678
atom: Maximum radius for r*vlocal+2*Zval:    1.58088
GHOST: No ghost state for L =  0
GHOST: No ghost state for L =  1
GHOST: No ghost state for L =  2
GHOST: No ghost state for L =  3

KBgen: Kleinman-Bylander projectors: 
   l= 0   rc=  1.704034   el= -1.009801   Ekb=  5.335044   kbcos=  0.316824
   l= 1   rc=  1.704034   el= -0.388707   Ekb= -3.785862   kbcos= -0.366464
   l= 2   rc=  1.791422   el=  0.001971   Ekb= -0.970471   kbcos= -0.009212
   l= 3   rc=  1.859892   el=  0.003065   Ekb= -0.399525   kbcos= -0.001223

KBgen: Total number of  Kleinman-Bylander projectors:   16
atom: -------------------------------------------------------------------------

atom: SANKEY-TYPE ORBITALS:
atom: Selected multiple-zeta basis: split     

SPLIT: Orbitals with angular momentum L= 0

SPLIT: Basis orbitals for state 2s

SPLIT: PAO cut-off radius determined from an
SPLIT: energy shift=  0.007350 Ry

   izeta = 1
                 lambda =    1.000000
                     rc =    4.632753
                 energy =   -1.002270
                kinetic =    0.855760
    potential(screened) =   -1.858031
       potential(ionic) =   -5.417575

   izeta = 2
                 rmatch =    3.431921
              splitnorm =    0.150000
                 energy =   -0.867111
                kinetic =    1.300804
    potential(screened) =   -2.167915
       potential(ionic) =   -5.962684

SPLIT: Orbitals with angular momentum L= 1

SPLIT: Basis orbitals for state 2p

SPLIT: PAO cut-off radius determined from an
SPLIT: energy shift=  0.007350 Ry

   izeta = 1
                 lambda =    1.000000
                     rc =    5.658549
                 energy =   -0.381140
                kinetic =    2.399701
    potential(screened) =   -2.780841
       potential(ionic) =   -6.206085

   izeta = 2
                 rmatch =    3.653288
              splitnorm =    0.150000
                 energy =   -0.249149
                kinetic =    3.542762
    potential(screened) =   -3.791911
       potential(ionic) =   -7.581078

POLgen: Perturbative polarization orbital with L=  2

POLgen: Polarization orbital for state 2p

   izeta = 1
                     rc =    5.658549
                 energy =    1.109913
                kinetic =    2.304789
    potential(screened) =   -1.194876
       potential(ionic) =   -4.013592
atom: Total number of Sankey-type orbitals: 13

atm_pop: Valence configuration (for local Pseudopot. screening):
 2s( 2.00)                                                            
 2p( 2.00)                                                            
Vna: chval, zval:    4.00000   4.00000

Vna:  Cut-off radius for the neutral-atom potential:   5.658549
comcore: Pseudo-core radius Rcore=  1.791422

atom: _________________________________________________________________________

prinput: Basis input ----------------------------------------------------------

PAO.BasisType split     

%block ChemicalSpeciesLabel
    1    5 B                       # Species index, atomic number, species label
    2    6 C                       # Species index, atomic number, species label
%endblock ChemicalSpeciesLabel

%block PAO.Basis                 # Define Basis set
B                     2                    # Species label, number of l-shells
 n=2   0   2                         # n, l, Nzeta 
   5.422      4.223   
   1.000      1.000   
 n=2   1   2 P   1                   # n, l, Nzeta, Polarization, NzetaPol
   6.790      4.609   
   1.000      1.000   
C                     2                    # Species label, number of l-shells
 n=2   0   2                         # n, l, Nzeta 
   4.633      3.432   
   1.000      1.000   
 n=2   1   2 P   1                   # n, l, Nzeta, Polarization, NzetaPol
   5.659      3.653   
   1.000      1.000   
%endblock PAO.Basis

prinput: ----------------------------------------------------------------------

coor:   Atomic-coordinates input format  =     Fractional

siesta: Atomic coordinates (Bohr) and species
siesta:     -2.35420  41.57980   0.00000  1        1
siesta:      2.30256  41.57980   0.00000  1        2
siesta:      4.63094  13.34970   0.00000  1        3
siesta:      4.63094  21.41544   0.00000  1        4
siesta:      6.95932  25.44831   0.00000  1        5
siesta:     -4.68258  13.34970   0.00000  1        6
siesta:     -7.01096  14.69411   0.00000  1        7
siesta:     -7.01096  17.38257   0.00000  1        8
siesta:     -4.68258  21.41544   0.00000  1        9
siesta:     -9.33934  18.72698   0.00000  1       10
siesta:     -7.01096  22.75985   0.00000  1       11
siesta:      4.63094  26.79272   0.00000  1       12
siesta:     -4.68258  26.79272   0.00000  1       13
siesta:     -7.01096  30.82560   0.00000  1       14
siesta:     -0.02582  34.85847   0.00000  1       15
siesta:     -0.02582  42.92421   0.00000  1       16
siesta:     -0.02582  45.61267   0.00000  1       17
siesta:     -0.02582   2.59549   0.00000  2       18
siesta:     -0.02582   5.28395   0.00000  2       19
siesta:     -2.35420  38.89134   0.00000  2       20
siesta:      2.30256  38.89134   0.00000  2       21
siesta:      4.63094  34.85847   0.00000  2       22
siesta:      4.63094  37.54693   0.00000  2       23
siesta:      6.95932  30.82560   0.00000  2       24
siesta:      6.95932  33.51406   0.00000  2       25
siesta:      9.28770  26.79272   0.00000  2       26
siesta:      9.28770  29.48119   0.00000  2       27
siesta:     -4.68258  34.85847   0.00000  2       28
siesta:     -4.68258  37.54693   0.00000  2       29
siesta:      2.30256   6.62836   0.00000  2       30
siesta:      2.30256   9.31683   0.00000  2       31
siesta:      4.63094  10.66124   0.00000  2       32
siesta:      6.95932  14.69411   0.00000  2       33
siesta:      6.95932  17.38257   0.00000  2       34
siesta:      9.28770  18.72698   0.00000  2       35
siesta:      9.28770  21.41544   0.00000  2       36
siesta:     11.61608  22.75985   0.00000  2       37
siesta:     11.61608  25.44831   0.00000  2       38
siesta:     -2.35420   6.62836   0.00000  2       39
siesta:     -2.35420   9.31683   0.00000  2       40
siesta:     -0.02582  10.66124   0.00000  2       41
siesta:     -0.02582  13.34970   0.00000  2       42
siesta:      2.30256  14.69411   0.00000  2       43
siesta:      2.30256  17.38257   0.00000  2       44
siesta:      4.63094  18.72698   0.00000  2       45
siesta:      6.95932  22.75985   0.00000  2       46
siesta:     -4.68258  10.66124   0.00000  2       47
siesta:     -2.35420  14.69411   0.00000  2       48
siesta:     -2.35420  17.38257   0.00000  2       49
siesta:     -0.02582  18.72698   0.00000  2       50
siesta:     -0.02582  21.41544   0.00000  2       51
siesta:      2.30256  22.75985   0.00000  2       52
siesta:      2.30256  25.44831   0.00000  2       53
siesta:     -4.68258  18.72698   0.00000  2       54
siesta:     -2.35420  22.75985   0.00000  2       55
siesta:     -2.35420  25.44831   0.00000  2       56
siesta:     -9.33934  21.41544   0.00000  2       57
siesta:     -7.01096  25.44831   0.00000  2       58
siesta:    -11.66772  22.75985   0.00000  2       59
siesta:    -11.66772  25.44831   0.00000  2       60
siesta:     -9.33934  26.79272   0.00000  2       61
siesta:     -9.33934  29.48119   0.00000  2       62
siesta:      4.63094  29.48119   0.00000  2       63
siesta:     -0.02582  26.79272   0.00000  2       64
siesta:     -0.02582  29.48119   0.00000  2       65
siesta:     -4.68258  29.48119   0.00000  2       66
siesta:      2.30256  30.82560   0.00000  2       67
siesta:      2.30256  33.51406   0.00000  2       68
siesta:     -2.35420  30.82560   0.00000  2       69
siesta:     -2.35420  33.51406   0.00000  2       70
siesta:     -7.01096  33.51406   0.00000  2       71
siesta:     -0.02582  37.54693   0.00000  2       72

siesta: System type = slab      

initatomlists: Number of atoms, orbitals, and projectors:     72   936  1152

siesta: ******************** Simulation parameters ****************************
siesta:
siesta: The following are some of the parameters of the simulation.
siesta: A complete list of the parameters used, including default values,
siesta: can be found in file out.fdf
siesta:
redata: Non-Collinear-spin run           =     F
redata: SpinPolarized (Up/Down) run      =     F
redata: Number of spin components        =     1
redata: Long output                      =     F
redata: Number of Atomic Species         =        2
redata: Charge density info will appear in .RHO file
redata: Write Mulliken Pop.              =     NO
redata: Mesh Cutoff                      =   200.0000  Ry
redata: Net charge of the system         =     0.0000 |e|
redata: Max. number of SCF Iter          =      500
redata: SCF convergence failure will abort job
redata: Performing Pulay mixing using    =    10 iterations
redata: Mix DM in first SCF step ?       =     F
redata: Write Pulay info on disk?        =     F
redata: Discard 1st Pulay DM after  kick =     F
redata: New DM Mixing Weight             =     0.0500
redata: New DM Occupancy tolerance       = 0.000000000001
redata: No kicks to SCF
redata: DM Mixing Weight for Kicks       =     0.5000
redata: DM Tolerance for SCF             =     0.000100
redata: Require Energy convergence for SCF =     F
redata: DM Energy tolerance for SCF      =     0.000100 eV
redata: Require Harris convergence for SCF =     F
redata: DM Harris energy tolerance for SCF =     0.000100 eV
redata: Using Saved Data (generic)   =     F
redata: Use continuation files for DM    =     T
redata: Neglect nonoverlap interactions  =     F
redata: Method of Calculation            =     Diagonalization
redata: Divide and Conquer               =     T
redata: Electronic Temperature           =     0.0019  Ry
redata: Fix the spin of the system       =     F
redata: Dynamics option                  =     Verlet MD run
redata: Initial MD time step             =        1
redata:   Final MD time step             =        1
redata: Length of MD time step           =     1.0000  fs
redata: Initial Temperature of MD run    =     0.0000  K
redata: Perform a MD quench              =     F
redata: ***********************************************************************
Total number of electrons:   271.000000
Total ionic charge:   271.000000

* ProcessorY, Blocksize:    2  24

k-point displ. along   1 input, could be:     0.50    0.00
k-point displ. along   2 input, could be:     0.50    0.00
 Kpoints in:          231 . Kpoints trimmed:          231

siesta: k-grid: Number of k-points =   231
siesta: k-grid: Cutoff (effective) =     5.000 Ang
siesta: k-grid: Supercell and displacements
siesta: k-grid:   21   0   0      0.500
siesta: k-grid:    0  21   0      0.500
siesta: k-grid:    0   0   1      0.000
Naive supercell factors:     2    2    2

superc: Internal auxiliary supercell:     2 x     2 x     2  =       8
superc: Number of atoms, orbitals, and projectors:    576   7488   9216

* Maximum dynamic memory allocated =     4 MB

siesta:                 ==============================
                            Begin MD step =      1
                        ==============================

superc: Internal auxiliary supercell:     2 x     2 x     2  =       8
superc: Number of atoms, orbitals, and projectors:    576   7488   9216

outcell: Unit cell vectors (Ang):
       12.804619    7.392750    0.000000
        0.000000   14.785500    0.000000
        0.000000    0.000000   10.000000

outcell: Cell vector modules (Ang)   :   14.785500   14.785500   10.000000
outcell: Cell angles (23,13,12) (deg):     90.0000     90.0000     60.0000
outcell: Cell volume (Ang**3)        :   1893.2269
New_DM. Step:     1
Initializing Density Matrix...

InitMesh: MESH =   120 x   120 x    90 =     1296000
InitMesh: Mesh cutoff (required, used) =   200.000   223.865 Ry

* Maximum dynamic memory allocated =   218 MB

stepf: Fermi-Dirac step function

siesta: Program's energy decomposition (eV):
siesta: Ebs     =     -5596.045762
siesta: Eions   =     16226.046981
siesta: Ena     =      4317.944680
siesta: Ekin    =      5481.631332
siesta: Enl     =       782.821781
siesta: DEna    =        -0.000009
siesta: DUscf   =         0.000000
siesta: DUext   =         0.000000
siesta: Exc     =     -4192.302021
siesta: eta*DQ  =         0.000000
siesta: Emadel  =         0.000000
siesta: Emeta   =         0.000000
siesta: Emolmec =         0.000000
siesta: Ekinion =         0.000000
siesta: Eharris =     -9599.162976
siesta: Etot    =     -9835.951218
siesta: FreeEng =     -9835.951218

siesta: iscf   Eharris(eV)      E_KS(eV)   FreeEng(eV)   dDmax  Ef(eV)
siesta:    1    -9599.1630    -9835.9512    -9835.9512  7.8477 -8.3257
timer: Routine,Calls,Time,% = IterSCF        1    3470.751  99.69
elaps: Routine,Calls,Wall,% = IterSCF        1     434.695  99.69
siesta:    2   -14103.5451    -8851.1891    -8851.2719 16.1461 -3.5306
siesta:    3    -9574.3704    -9673.3498    -9673.3862  2.3664 -6.1160
siesta:    4    -9531.6086    -9581.3647    -9581.4017  1.3846 -5.7070
siesta:    5    -9472.8681    -9481.7153    -9481.7519  1.2417 -5.2211
siesta:    6    -9462.4227    -9459.4876    -9459.5358  1.1762 -5.0241
siesta:    7    -9447.5298    -9444.4950    -9444.5358  0.9252 -4.8924
siesta:    8    -9444.9578    -9438.6709    -9438.7134  0.5961 -4.9747
siesta:    9    -9444.0673    -9436.3435    -9436.3947  0.5802 -4.9508
siesta:   10    -9444.0496    -9431.3193    -9431.3707  0.6485 -4.9545
siesta:   11    -9443.6206    -9424.3077    -9424.3355  0.7081 -4.9223
siesta:   12    -9443.4642    -9420.3953    -9420.4723  0.6535 -4.9461
siesta:   13    -9442.9217    -9421.5495    -9421.5880  0.1803 -4.9630
siesta:   14    -9442.5832    -9423.6904    -9423.7461  0.4318 -4.9555
siesta:   15    -9442.1955    -9426.1033    -9426.1765  0.1997 -4.9434
siesta:   16    -9442.0558    -9428.5348    -9428.5910  0.3024 -4.9359
siesta:   17    -9441.9922    -9430.5148    -9430.5800  0.2465 -4.9542
siesta:   18    -9441.9438    -9433.5662    -9433.6232  0.2768 -4.9643
siesta:   19    -9441.9381    -9436.1676    -9436.2264  0.3172 -4.9877
siesta:   20    -9441.8923    -9438.2703    -9438.3237  0.0839 -4.9943
siesta:   21    -9441.8919    -9438.7187    -9438.7786  0.0885 -4.9954
siesta:   22    -9441.8867    -9439.3632    -9439.4215  0.1037 -4.9884
siesta:   23    -9441.8809    -9439.9340    -9439.9921  0.0459 -4.9842
siesta:   24    -9441.8792    -9440.5970    -9440.6570  0.0292 -4.9811
siesta:   25    -9441.8783    -9441.1884    -9441.2494  0.0184 -4.9829
siesta:   26    -9441.8773    -9441.4483    -9441.5091  0.0168 -4.9834
siesta:   27    -9441.8767    -9441.7578    -9441.8185  0.0108 -4.9834
siesta:   28    -9441.8768    -9441.8778    -9441.9390  0.0070 -4.9836
siesta:   29    -9441.8767    -9441.8965    -9441.9576  0.0050 -4.9833
siesta:   30    -9441.8766    -9441.8704    -9441.9314  0.0061 -4.9838
siesta:   31    -9441.8766    -9441.8967    -9441.9578  0.0034 -4.9841
siesta:   32    -9441.8766    -9441.9038    -9441.9649  0.0030 -4.9840
siesta:   33    -9441.8766    -9441.8807    -9441.9417  0.0012 -4.9839
siesta:   34    -9441.8765    -9441.8799    -9441.9409  0.0008 -4.9840
siesta:   35    -9441.8765    -9441.8795    -9441.9406  0.0008 -4.9840
siesta:   36    -9441.8765    -9441.8819    -9441.9430  0.0006 -4.9840
siesta:   37    -9441.8765    -9441.8738    -9441.9348  0.0004 -4.9839
siesta:   38    -9441.8765    -9441.8768    -9441.9378  0.0003 -4.9839
siesta:   39    -9441.8765    -9441.8750    -9441.9361  0.0001 -4.9839
siesta:   40    -9441.8765    -9441.8747    -9441.9358  0.0001 -4.9839
siesta:   41    -9441.8765    -9441.8729    -9441.9339  0.0002 -4.9839
siesta:   42    -9441.8765    -9441.8728    -9441.9338  0.0002 -4.9839
siesta:   43    -9441.8765    -9441.8726    -9441.9337  0.0001 -4.9839

siesta: E_KS(eV) =            -9441.8728

siesta: E_KS - E_eggbox =     -9441.8728

siesta: Atomic forces (eV/Ang):
----------------------------------------
   Tot   -0.128138    0.167770    0.000000
----------------------------------------
   Max  561.365878
   Res  148.817472    sqrt( Sum f_i^2 / 3N )
----------------------------------------
   Max  561.365878    constrained

Stress-tensor-Voigt (kbar):     -774.59    -2659.08       -0.60        8.07        0.00        0.00
(Free)E + p*V (eV/cell)    -8089.2341
Target enthalpy (eV/cell)    -9441.9338

siesta: Stress tensor (static) (eV/Ang**3):
        -0.483458    0.005036    0.000000
         0.005036   -1.659652    0.000000
         0.000000    0.000000   -0.000373

siesta: Pressure (static):       1144.75835698  kBar

siesta: Stress tensor (total) (eV/Ang**3):
        -0.483458    0.005036    0.000000
         0.005036   -1.659652    0.000000
         0.000000    0.000000   -0.000373

siesta: Pressure (total):       1144.75835698  kBar

siesta: Temp_ion =       0.000 K

* Maximum dynamic memory allocated =   235 MB
Computing bands...

siesta: Program's energy decomposition (eV):
siesta: Ebs     =     -4226.249150
siesta: Eions   =     16226.046981
siesta: Ena     =      4317.944680
siesta: Ekin    =      8355.938479
siesta: Enl     =      -844.655455
siesta: DEna    =      -786.786143
siesta: DUscf   =       106.068950
siesta: DUext   =         0.000000
siesta: Exc     =     -4364.336308
siesta: eta*DQ  =         0.000000
siesta: Emadel  =         0.000000
siesta: Emeta   =         0.000000
siesta: Emolmec =         0.000000
siesta: Ekinion =         0.000000
siesta: Eharris =     -9441.876525
siesta: Etot    =     -9441.872778
siesta: FreeEng =     -9441.933829

siesta: Final energy (eV):
siesta:  Band Struct. =   -4226.249150
siesta:       Kinetic =    8355.938479
siesta:       Hartree =   27156.760163
siesta:    Ext. field =       0.000000
siesta:   Exch.-corr. =   -4364.336308
siesta:  Ion-electron =  -62376.955255
siesta:       Ion-ion =   21786.720143
siesta:       Ekinion =       0.000000
siesta:         Total =   -9441.872778

siesta: Atomic forces (eV/Ang):
siesta:      1    1.753036 -399.975622    0.000000
siesta:      2   -2.137337 -396.455539    0.000000
siesta:      3   23.488973   -0.977615    0.000000
siesta:      4    0.727654    0.462765    0.000000
siesta:      5    3.442480   -3.203649    0.000000
siesta:      6  -19.281918   -3.622276    0.000000
siesta:      7   -3.398026   -2.967268    0.000000
siesta:      8    0.007599   -2.141239    0.000000
siesta:      9    3.814944   -1.762089    0.000000
siesta:     10   -4.212087    2.378736    0.000000
siesta:     11   -3.468089    3.709861    0.000000
siesta:     12   -3.574033    1.909591    0.000000
siesta:     13   -0.659105   -0.197979    0.000000
siesta:     14   -2.806536    1.307642    0.000000
siesta:     15    0.139971  113.854145    0.000000
siesta:     16    0.393472  103.430875    0.000000
siesta:     17    0.522875 -409.795471    0.000000
siesta:     18    0.128258  551.125701    0.000000
siesta:     19   -0.063122 -134.970415    0.000000
siesta:     20   -4.067653  128.796910    0.000000
siesta:     21    3.628807  128.810720    0.000000
siesta:     22   26.922568    4.783350    0.000000
siesta:     23   35.193538 -554.029160    0.000000
siesta:     24    1.521528    0.810284    0.000000
siesta:     25   -2.518695    1.891359    0.000000
siesta:     26    5.529120    4.553096    0.000000
siesta:     27   -0.547177   -0.064642    0.000000
siesta:     28  -28.034795    5.010156    0.000000
siesta:     29  -34.983553 -554.410817    0.000000
siesta:     30   23.707176  551.565393    0.000000
siesta:     31   -0.522744 -127.923839    0.000000
siesta:     32   29.111998  548.040592    0.000000
siesta:     33    0.104724    0.142326    0.000000
siesta:     34    3.558443   -1.307394    0.000000
siesta:     35   -1.189773   -0.468361    0.000000
siesta:     36    2.799803   -1.720339    0.000000
siesta:     37   -0.272739    5.782933    0.000000
siesta:     38    0.353169   -6.138743    0.000000
siesta:     39  -23.929780  551.788677    0.000000
siesta:     40    0.423748 -128.202281    0.000000
siesta:     41   -0.138007  553.025437    0.000000
siesta:     42   -0.731020 -124.638662    0.000000
siesta:     43   32.490312  406.301318    0.000000
siesta:     44   22.118626   -1.246509    0.000000
siesta:     45   -2.492899   -3.258859    0.000000
siesta:     46    2.533218   -0.596638    0.000000
siesta:     47  -28.393981  548.802674    0.000000
siesta:     48  -32.340278  409.333810    0.000000
siesta:     49  -22.084863   -1.379252    0.000000
siesta:     50   -0.176064  420.979785    0.000000
siesta:     51    0.261845    3.617419    0.000000
siesta:     52   -4.082918    0.786602    0.000000
siesta:     53   -3.357853   -0.538496    0.000000
siesta:     54    4.901568   -1.878660    0.000000
siesta:     55    3.612814    0.859851    0.000000
siesta:     56    3.873156   -0.878853    0.000000
siesta:     57   -7.572674   -1.480932    0.000000
siesta:     58   -2.320472    0.753597    0.000000
siesta:     59    0.707719    6.443346    0.000000
siesta:     60   -0.812395   -5.799214    0.000000
siesta:     61   -3.052751    2.044367    0.000000
siesta:     62   -1.430276   -2.825560    0.000000
siesta:     63   -1.323763    2.102435    0.000000
siesta:     64   -0.297322   -2.363728    0.000000
siesta:     65    0.007365 -561.365878    0.000000
siesta:     66    4.102885    1.143253    0.000000
siesta:     67   22.554224    6.355015    0.000000
siesta:     68   15.462105 -551.246822    0.000000
siesta:     69  -22.620368    5.959514    0.000000
siesta:     70  -14.749593 -551.818389    0.000000
siesta:     71    3.745762    5.932777    0.000000
siesta:     72   -0.128963 -542.777349    0.000000
siesta: ----------------------------------------
siesta:    Tot   -0.128138    0.167770    0.000000

siesta: Stress tensor (static) (eV/Ang**3):
siesta:    -0.483458    0.005036    0.000000
siesta:     0.005036   -1.659652    0.000000
siesta:     0.000000    0.000000   -0.000373

siesta: Cell volume =       1893.226884 Ang**3

siesta: Pressure (static):
siesta:                Solid            Molecule  Units
siesta:           0.00778175          0.11406523  Ry/Bohr**3
siesta:           0.71449424         10.47308164  eV/Ang**3
siesta:        1144.75835698      16779.90806743  kBar
(Free)E+ p_basis*V_orbitals  =       -9405.825004
(Free)Eharris+ p_basis*V_orbitals  =       -9405.828919

siesta: Electric dipole (a.u.)  =    0.000000    0.000000    0.000000
siesta: Electric dipole (Debye) =    0.000000    0.000000    0.000000

* Maximum dynamic memory allocated : Node    0 =   235 MB
* Maximum dynamic memory allocated : Node    1 =    82 MB
* Maximum dynamic memory allocated : Node    2 =    84 MB
* Maximum dynamic memory allocated : Node    3 =   222 MB
* Maximum dynamic memory allocated : Node    4 =   226 MB
* Maximum dynamic memory allocated : Node    5 =    82 MB
* Maximum dynamic memory allocated : Node    6 =    85 MB
* Maximum dynamic memory allocated : Node    7 =   208 MB

* Maximum memory occured during matrixMtoO                    

timer: CPU execution times:
timer:  Routine       Calls   Time/call    Tot.time        %
timer:  siesta            1  147530.045  147530.045   100.00
timer:  Setup             1       2.711       2.711     0.00
timer:  bands             3     243.976     731.928     0.50
timer:  writewave         1       0.018       0.018     0.00
timer:  KSV_init          1       0.005       0.005     0.00
timer:  IterMD            1  146790.229  146790.229    99.50
timer:  hsparse           1       0.517       0.517     0.00
timer:  overlap           1       7.187       7.187     0.00
timer:  IterSCF          43    3409.119  146592.105    99.36
timer:  kinefsm           2       3.734       7.467     0.01
timer:  nlefsm            2      19.753      39.505     0.03
timer:  DHSCF            44     100.559    4424.592     3.00
timer:  DHSCF1            1       0.993       0.993     0.00
timer:  DHSCF2            1      41.370      41.370     0.03
timer:  REORD           354       0.005       1.803     0.00
timer:  POISON           45       0.870      39.164     0.03
timer:  DHSCF3           44      98.687    4342.241     2.94
timer:  rhoofd           44      22.705     999.023     0.68
timer:  cellXC           44       3.278     144.216     0.10
timer:  vmat             44      46.105    2028.628     1.38
timer:  MolMec            2       0.000       0.000     0.00
timer:  diagon           43    3307.952  142241.927    96.42
timer:  c-eigval      10054       6.037   60697.239    41.14
timer:  c-buildHS     10054       0.052     520.801     0.35
timer:  cdiag         19987       6.183  123574.420    83.76
timer:  cdiag1        19987       0.385    7690.994     5.21
timer:  cdiag2        19987       1.771   35392.102    23.99
timer:  cdiag3        19987       3.735   74647.087    50.60
timer:  cdiag4        19987       0.161    3210.141     2.18
timer:  c-eigvec       9933       6.426   63832.387    43.27
timer:  c-buildD       9933       1.852   18392.962    12.47
timer:  DHSCF4            1      39.129      39.129     0.03
timer:  dfscf             1      36.371      36.371     0.02
timer:  overfsm           1       0.443       0.443     0.00
timer:  optical           1       4.527       4.527     0.00
  

elaps: ELAPSED times:
elaps:  Routine       Calls   Time/call    Tot.time        %
elaps:  siesta            1   18476.663   18476.663   100.00
elaps:  Setup             1       0.340       0.340     0.00
elaps:  bands             3      30.572      91.716     0.50
elaps:  writewave         1       0.002       0.002     0.00
elaps:  KSV_init          1       0.000       0.000     0.00
elaps:  IterMD            1   18384.008   18384.008    99.50
elaps:  hsparse           1       0.070       0.070     0.00
elaps:  overlap           1       0.904       0.904     0.00
elaps:  IterSCF          43     426.958   18359.199    99.36
elaps:  kinefsm           2       0.470       0.940     0.01
elaps:  nlefsm            2       2.577       5.155     0.03
elaps:  DHSCF            44      12.702     558.888     3.02
elaps:  DHSCF1            1       0.126       0.126     0.00
elaps:  DHSCF2            1       5.181       5.181     0.03
elaps:  REORD           354       0.001       0.241     0.00
elaps:  POISON           45       0.110       4.944     0.03
elaps:  DHSCF3           44      12.361     543.866     2.94
elaps:  rhoofd           44       6.020     264.859     1.43
elaps:  cellXC           44       0.410      18.051     0.10
elaps:  vmat             44       5.774     254.075     1.38
elaps:  MolMec            2       0.000       0.000     0.00
elaps:  diagon           43     414.294   17814.630    96.42
elaps:  c-eigval      10054       0.756    7601.579    41.14
elaps:  c-buildHS     10054       0.007      70.276     0.38
elaps:  cdiag         19987       0.771   15408.507    83.39
elaps:  cdiag1        19987       0.048     958.626     5.19
elaps:  cdiag2        19987       0.222    4433.235    23.99
elaps:  cdiag3        19987       0.468    9361.368    50.67
elaps:  cdiag4        19987       0.020     401.070     2.17
elaps:  c-eigvec       9933       0.799    7932.988    42.94
elaps:  c-buildD       9933       0.238    2363.435    12.79
elaps:  DHSCF4            1       9.615       9.615     0.05
elaps:  dfscf             1       9.072       9.072     0.05
elaps:  overfsm           1       0.057       0.057     0.00
elaps:  optical           1       0.000       0.000     0.00
  
>> End of run:   1-MAY-2016   0:05:25
