Siesta Version:                                        siesta-3.2-pl-3
Architecture  : x86_64-unknown-linux-gnu--unknown
Compiler flags: mpiifort -g -O2 -fPIC -xSSE4.1 -fp-model source -shared-intel 
PARALLEL version

* Running on    8 nodes in parallel
>> Start of run:  22-APR-2016  11:34:24

                           ***********************       
                           *  WELCOME TO SIESTA  *       
                           ***********************       

reinit: Reading from standard input
************************** Dump of input data file ****************************
#(1) General system descriptors
SystemName            GRP_doping    # Descriptive name of the system
SystemLabel           GRP_doping    # Short name for naming files
%include STRUCT.fdf
%include KPT.fdf
%include BASIS.fdf
#%include TS.fdf # for transiesta calculation
#(4) DFT, Grid, SCF
XC.functional         GGA           # LDA or GGA (default = LDA)
XC.authors            PBE           # CA (Ceperley-Aldr) = PZ
                                    #    (Perdew-Zunger) - LDA - Default
                                    # PW92 (Perdew-Wang-92) - LDA
                                    # PBE (Perdew-Burke-Ernzerhof) - GGA
MeshCutoff            200.000000    Ry      # Default: 50.0 Ry ~ 0.444 Bohr
                                    #         100.0 Ry ~ 0.314 Bohr
MaxSCFIterations      500           # Default: 50
DM.MixingWeight       0.05          # Default: 0.25
DM.NumberPulay        10            # Default: 0
DM.PulayOnFile        F             # SystemLabel.P1, SystemLabel.P2
DM.Tolerance          1.d-4         # Default: 1.d-4
DM.UseSaveDM          .true.        # because of the bug
SCFMustConverge       .true.
NeglNonOverlapInt     F             # Default: F
#(5) Eigenvalue problem: order-N or diagonalization
SolutionMethod        Diagon        # or Transiesta
ElectronicTemperature 300.0 K       # Default: 300.0 K
#(6) Molecular dynamics and relaxations
#MD.TypeOfRun          CG            # Type of dynamics:
#MD.VariableCell       F
#MD.NumCGsteps         0           # 0 for single-point / 100 for gopt
#MD.MaxCGDispl         0.2 Bohr      # Default: 0.2 Bohr
#MD.MaxForceTol        0.02 eV/Ang   # Default: 0.04 eV/Ang
#MD.MaxStressTol       1.0 GPa       # Default: 1.0 GPa
# Geometry Constraints
#%block GeometryConstraints
#	position from 1 to 44
#%endblock GeometryConstraints
BandLinesScale   pi/a
%block BandLines
 1   0.00000000  0.00000000  0.00000000
50   0.00000000  0.07809418  0.00000000
50   0.04509075  0.07809242  0.00000000
20   0.00000000  0.00000000  0.00000000
%endblock BandLines
************************** End of input data file *****************************

reinit: -----------------------------------------------------------------------
reinit: System Name: GRP_doping
reinit: -----------------------------------------------------------------------
reinit: System Label: GRP_doping                                                  
reinit: -----------------------------------------------------------------------

initatom: Reading input for the pseudopotentials and atomic orbitals ----------
 Species number:            1  Label: N Atomic number:           7
 Species number:            2  Label: C Atomic number:           6
Ground state valence configuration:   2s02  2p03
Reading pseudopotential information in formatted form from N.psf

Valence configuration for pseudopotential generation:
2s( 2.00) rc: 1.48
2p( 3.00) rc: 1.48
3d( 0.00) rc: 1.48
4f( 0.00) rc: 1.48
Ground state valence configuration:   2s02  2p02
Reading pseudopotential information in formatted form from C.psf

Valence configuration for pseudopotential generation:
2s( 2.00) rc: 1.54
2p( 2.00) rc: 1.54
3d( 0.00) rc: 1.54
4f( 0.00) rc: 1.54
For N, standard SIESTA heuristics set lmxkb to 3
 (one more than the basis l, including polarization orbitals).
Use PS.lmax or PS.KBprojectors blocks to override.
For C, standard SIESTA heuristics set lmxkb to 3
 (one more than the basis l, including polarization orbitals).
Use PS.lmax or PS.KBprojectors blocks to override.

<basis_specs>
===============================================================================
N                    Z=   7    Mass=  14.010        Charge= 0.17977+309
Lmxo=1 Lmxkb= 3    BasisType=split      Semic=F
L=0  Nsemic=0  Cnfigmx=2
          n=1  nzeta=2  polorb=0
            splnorm:   0.15000    
               vcte:    0.0000    
               rinn:    0.0000    
                rcs:    0.0000      0.0000    
            lambdas:    1.0000      1.0000    
L=1  Nsemic=0  Cnfigmx=2
          n=1  nzeta=2  polorb=1
            splnorm:   0.15000    
               vcte:    0.0000    
               rinn:    0.0000    
                rcs:    0.0000      0.0000    
            lambdas:    1.0000      1.0000    
-------------------------------------------------------------------------------
L=0  Nkbl=1  erefs: 0.17977+309
L=1  Nkbl=1  erefs: 0.17977+309
L=2  Nkbl=1  erefs: 0.17977+309
L=3  Nkbl=1  erefs: 0.17977+309
===============================================================================
</basis_specs>

atom: Called for N                     (Z =   7)

read_vps: Pseudopotential generation method:
read_vps: ATM3      Troullier-Martins                       
Total valence charge:    5.00000

read_vps: Pseudopotential includes a core correction:
read_vps: Pseudo-core for xc-correction

xc_check: Exchange-correlation functional:
xc_check: GGA Perdew, Burke & Ernzerhof 1996
V l=0 = -2*Zval/r beyond r=  1.4606
V l=1 = -2*Zval/r beyond r=  1.4606
V l=2 = -2*Zval/r beyond r=  1.4606
V l=3 = -2*Zval/r beyond r=  1.4606
All V_l potentials equal beyond r=  1.4606
This should be close to max(r_c) in ps generation
All pots = -2*Zval/r beyond r=  1.4606

VLOCAL1: 99.0% of the norm of Vloc inside     20.347 Ry
VLOCAL1: 99.9% of the norm of Vloc inside     46.372 Ry
atom: Maximum radius for 4*pi*r*r*local-pseudopot. charge    1.76189
atom: Maximum radius for r*vlocal+2*Zval:    1.53550
GHOST: No ghost state for L =  0
GHOST: No ghost state for L =  1
GHOST: No ghost state for L =  2
GHOST: No ghost state for L =  3

KBgen: Kleinman-Bylander projectors: 
   l= 0   rc=  1.634559   el= -1.363963   Ekb=  5.296955   kbcos=  0.335621
   l= 1   rc=  1.614250   el= -0.521451   Ekb= -5.259161   kbcos= -0.433408
   l= 2   rc=  1.718383   el=  0.001991   Ekb= -1.271464   kbcos= -0.007566
   l= 3   rc=  1.761893   el=  0.003093   Ekb= -0.494769   kbcos= -0.001015

KBgen: Total number of  Kleinman-Bylander projectors:   16
atom: -------------------------------------------------------------------------

atom: SANKEY-TYPE ORBITALS:
atom: Selected multiple-zeta basis: split     

SPLIT: Orbitals with angular momentum L= 0

SPLIT: Basis orbitals for state 2s

SPLIT: PAO cut-off radius determined from an
SPLIT: energy shift=  0.007350 Ry

   izeta = 1
                 lambda =    1.000000
                     rc =    4.071465
                 energy =   -1.356470
                kinetic =    1.176977
    potential(screened) =   -2.533447
       potential(ionic) =   -8.057990

   izeta = 2
                 rmatch =    2.905100
              splitnorm =    0.150000
                 energy =   -1.158343
                kinetic =    1.813009
    potential(screened) =   -2.971352
       potential(ionic) =   -8.901931

SPLIT: Orbitals with angular momentum L= 1

SPLIT: Basis orbitals for state 2p

SPLIT: PAO cut-off radius determined from an
SPLIT: energy shift=  0.007350 Ry

   izeta = 1
                 lambda =    1.000000
                     rc =    4.972977
                 energy =   -0.513884
                kinetic =    3.441732
    potential(screened) =   -3.955616
       potential(ionic) =   -9.287901

   izeta = 2
                 rmatch =    3.054066
              splitnorm =    0.150000
                 energy =   -0.318226
                kinetic =    5.125348
    potential(screened) =   -5.443573
       potential(ionic) =  -11.380999

POLgen: Perturbative polarization orbital with L=  2

POLgen: Polarization orbital for state 2p

   izeta = 1
                     rc =    4.972977
                 energy =    1.607437
                kinetic =    3.268125
    potential(screened) =   -1.660688
       potential(ionic) =   -5.973652
atom: Total number of Sankey-type orbitals: 13

atm_pop: Valence configuration (for local Pseudopot. screening):
 2s( 2.00)                                                            
 2p( 3.00)                                                            
Vna: chval, zval:    5.00000   5.00000

Vna:  Cut-off radius for the neutral-atom potential:   4.972977
comcore: Pseudo-core radius Rcore=  1.554824

atom: _________________________________________________________________________

<basis_specs>
===============================================================================
C                    Z=   6    Mass=  12.010        Charge= 0.17977+309
Lmxo=1 Lmxkb= 3    BasisType=split      Semic=F
L=0  Nsemic=0  Cnfigmx=2
          n=1  nzeta=2  polorb=0
            splnorm:   0.15000    
               vcte:    0.0000    
               rinn:    0.0000    
                rcs:    0.0000      0.0000    
            lambdas:    1.0000      1.0000    
L=1  Nsemic=0  Cnfigmx=2
          n=1  nzeta=2  polorb=1
            splnorm:   0.15000    
               vcte:    0.0000    
               rinn:    0.0000    
                rcs:    0.0000      0.0000    
            lambdas:    1.0000      1.0000    
-------------------------------------------------------------------------------
L=0  Nkbl=1  erefs: 0.17977+309
L=1  Nkbl=1  erefs: 0.17977+309
L=2  Nkbl=1  erefs: 0.17977+309
L=3  Nkbl=1  erefs: 0.17977+309
===============================================================================
</basis_specs>

atom: Called for C                     (Z =   6)

read_vps: Pseudopotential generation method:
read_vps: ATM3      Troullier-Martins                       
Total valence charge:    4.00000

read_vps: Pseudopotential includes a core correction:
read_vps: Pseudo-core for xc-correction

xc_check: Exchange-correlation functional:
xc_check: GGA Perdew, Burke & Ernzerhof 1996
V l=0 = -2*Zval/r beyond r=  1.5227
V l=1 = -2*Zval/r beyond r=  1.5227
V l=2 = -2*Zval/r beyond r=  1.5227
V l=3 = -2*Zval/r beyond r=  1.5038
All V_l potentials equal beyond r=  1.5227
This should be close to max(r_c) in ps generation
All pots = -2*Zval/r beyond r=  1.5227

VLOCAL1: 99.0% of the norm of Vloc inside     18.722 Ry
VLOCAL1: 99.9% of the norm of Vloc inside     42.668 Ry
atom: Maximum radius for 4*pi*r*r*local-pseudopot. charge    1.83678
atom: Maximum radius for r*vlocal+2*Zval:    1.58088
GHOST: No ghost state for L =  0
GHOST: No ghost state for L =  1
GHOST: No ghost state for L =  2
GHOST: No ghost state for L =  3

KBgen: Kleinman-Bylander projectors: 
   l= 0   rc=  1.704034   el= -1.009801   Ekb=  5.335044   kbcos=  0.316824
   l= 1   rc=  1.704034   el= -0.388707   Ekb= -3.785862   kbcos= -0.366464
   l= 2   rc=  1.791422   el=  0.001971   Ekb= -0.970471   kbcos= -0.009212
   l= 3   rc=  1.859892   el=  0.003065   Ekb= -0.399525   kbcos= -0.001223

KBgen: Total number of  Kleinman-Bylander projectors:   16
atom: -------------------------------------------------------------------------

atom: SANKEY-TYPE ORBITALS:
atom: Selected multiple-zeta basis: split     

SPLIT: Orbitals with angular momentum L= 0

SPLIT: Basis orbitals for state 2s

SPLIT: PAO cut-off radius determined from an
SPLIT: energy shift=  0.007350 Ry

   izeta = 1
                 lambda =    1.000000
                     rc =    4.632753
                 energy =   -1.002270
                kinetic =    0.855760
    potential(screened) =   -1.858031
       potential(ionic) =   -5.417575

   izeta = 2
                 rmatch =    3.431921
              splitnorm =    0.150000
                 energy =   -0.867111
                kinetic =    1.300804
    potential(screened) =   -2.167915
       potential(ionic) =   -5.962684

SPLIT: Orbitals with angular momentum L= 1

SPLIT: Basis orbitals for state 2p

SPLIT: PAO cut-off radius determined from an
SPLIT: energy shift=  0.007350 Ry

   izeta = 1
                 lambda =    1.000000
                     rc =    5.658549
                 energy =   -0.381140
                kinetic =    2.399701
    potential(screened) =   -2.780841
       potential(ionic) =   -6.206085

   izeta = 2
                 rmatch =    3.653288
              splitnorm =    0.150000
                 energy =   -0.249149
                kinetic =    3.542762
    potential(screened) =   -3.791911
       potential(ionic) =   -7.581078

POLgen: Perturbative polarization orbital with L=  2

POLgen: Polarization orbital for state 2p

   izeta = 1
                     rc =    5.658549
                 energy =    1.109913
                kinetic =    2.304789
    potential(screened) =   -1.194876
       potential(ionic) =   -4.013592
atom: Total number of Sankey-type orbitals: 13

atm_pop: Valence configuration (for local Pseudopot. screening):
 2s( 2.00)                                                            
 2p( 2.00)                                                            
Vna: chval, zval:    4.00000   4.00000

Vna:  Cut-off radius for the neutral-atom potential:   5.658549
comcore: Pseudo-core radius Rcore=  1.791422

atom: _________________________________________________________________________

prinput: Basis input ----------------------------------------------------------

PAO.BasisType split     

%block ChemicalSpeciesLabel
    1    7 N                       # Species index, atomic number, species label
    2    6 C                       # Species index, atomic number, species label
%endblock ChemicalSpeciesLabel

%block PAO.Basis                 # Define Basis set
N                     2                    # Species label, number of l-shells
 n=2   0   2                         # n, l, Nzeta 
   4.071      2.905   
   1.000      1.000   
 n=2   1   2 P   1                   # n, l, Nzeta, Polarization, NzetaPol
   4.973      3.054   
   1.000      1.000   
C                     2                    # Species label, number of l-shells
 n=2   0   2                         # n, l, Nzeta 
   4.633      3.432   
   1.000      1.000   
 n=2   1   2 P   1                   # n, l, Nzeta, Polarization, NzetaPol
   5.659      3.653   
   1.000      1.000   
%endblock PAO.Basis

prinput: ----------------------------------------------------------------------

coor:   Atomic-coordinates input format  =     Fractional

siesta: Atomic coordinates (Bohr) and species
siesta:     -2.35420  38.89134   0.00000  1        1
siesta:      2.30256  38.89134   0.00000  1        2
siesta:      4.63094  34.85847   0.00000  1        3
siesta:      4.63094  37.54693   0.00000  1        4
siesta:     -4.68258  34.85847   0.00000  1        5
siesta:     -4.68258  37.54693   0.00000  1        6
siesta:      2.30256   9.31683   0.00000  1        7
siesta:      4.63094  10.66124   0.00000  1        8
siesta:      4.63094  13.34970   0.00000  1        9
siesta:     -2.35420   9.31683   0.00000  1       10
siesta:     -0.02582  10.66124   0.00000  1       11
siesta:     -0.02582  13.34970   0.00000  1       12
siesta:      2.30256  14.69411   0.00000  1       13
siesta:     -4.68258  10.66124   0.00000  1       14
siesta:     -4.68258  13.34970   0.00000  1       15
siesta:     -2.35420  14.69411   0.00000  1       16
siesta:     -0.02582  21.41544   0.00000  1       17
siesta:      2.30256  25.44831   0.00000  1       18
siesta:     -2.35420  22.75985   0.00000  1       19
siesta:     -2.35420  25.44831   0.00000  1       20
siesta:     -0.02582  26.79272   0.00000  1       21
siesta:      2.30256  33.51406   0.00000  1       22
siesta:     -2.35420  33.51406   0.00000  1       23
siesta:     -0.02582  34.85847   0.00000  1       24
siesta:     -0.02582  37.54693   0.00000  1       25
siesta:     -0.02582   2.59549   0.00000  2       26
siesta:     -0.02582   5.28395   0.00000  2       27
siesta:     -2.35420  41.57980   0.00000  2       28
siesta:      2.30256  41.57980   0.00000  2       29
siesta:      6.95932  30.82560   0.00000  2       30
siesta:      6.95932  33.51406   0.00000  2       31
siesta:      9.28770  26.79272   0.00000  2       32
siesta:      9.28770  29.48119   0.00000  2       33
siesta:      2.30256   6.62836   0.00000  2       34
siesta:      6.95932  14.69411   0.00000  2       35
siesta:      6.95932  17.38257   0.00000  2       36
siesta:      9.28770  18.72698   0.00000  2       37
siesta:      9.28770  21.41544   0.00000  2       38
siesta:     11.61608  22.75985   0.00000  2       39
siesta:     11.61608  25.44831   0.00000  2       40
siesta:     -2.35420   6.62836   0.00000  2       41
siesta:      2.30256  17.38257   0.00000  2       42
siesta:      4.63094  18.72698   0.00000  2       43
siesta:      4.63094  21.41544   0.00000  2       44
siesta:      6.95932  22.75985   0.00000  2       45
siesta:      6.95932  25.44831   0.00000  2       46
siesta:     -2.35420  17.38257   0.00000  2       47
siesta:     -0.02582  18.72698   0.00000  2       48
siesta:      2.30256  22.75985   0.00000  2       49
siesta:     -7.01096  14.69411   0.00000  2       50
siesta:     -7.01096  17.38257   0.00000  2       51
siesta:     -4.68258  18.72698   0.00000  2       52
siesta:     -4.68258  21.41544   0.00000  2       53
siesta:     -9.33934  18.72698   0.00000  2       54
siesta:     -9.33934  21.41544   0.00000  2       55
siesta:     -7.01096  22.75985   0.00000  2       56
siesta:     -7.01096  25.44831   0.00000  2       57
siesta:    -11.66772  22.75985   0.00000  2       58
siesta:    -11.66772  25.44831   0.00000  2       59
siesta:     -9.33934  26.79272   0.00000  2       60
siesta:     -9.33934  29.48119   0.00000  2       61
siesta:      4.63094  26.79272   0.00000  2       62
siesta:      4.63094  29.48119   0.00000  2       63
siesta:     -0.02582  29.48119   0.00000  2       64
siesta:     -4.68258  26.79272   0.00000  2       65
siesta:     -4.68258  29.48119   0.00000  2       66
siesta:      2.30256  30.82560   0.00000  2       67
siesta:     -2.35420  30.82560   0.00000  2       68
siesta:     -7.01096  30.82560   0.00000  2       69
siesta:     -7.01096  33.51406   0.00000  2       70
siesta:     -0.02582  42.92421   0.00000  2       71
siesta:     -0.02582  45.61267   0.00000  2       72

siesta: System type = slab      

initatomlists: Number of atoms, orbitals, and projectors:     72   936  1152

siesta: ******************** Simulation parameters ****************************
siesta:
siesta: The following are some of the parameters of the simulation.
siesta: A complete list of the parameters used, including default values,
siesta: can be found in file out.fdf
siesta:
redata: Non-Collinear-spin run           =     F
redata: SpinPolarized (Up/Down) run      =     F
redata: Number of spin components        =     1
redata: Long output                      =     F
redata: Number of Atomic Species         =        2
redata: Charge density info will appear in .RHO file
redata: Write Mulliken Pop.              =     NO
redata: Mesh Cutoff                      =   200.0000  Ry
redata: Net charge of the system         =     0.0000 |e|
redata: Max. number of SCF Iter          =      500
redata: SCF convergence failure will abort job
redata: Performing Pulay mixing using    =    10 iterations
redata: Mix DM in first SCF step ?       =     F
redata: Write Pulay info on disk?        =     F
redata: Discard 1st Pulay DM after  kick =     F
redata: New DM Mixing Weight             =     0.0500
redata: New DM Occupancy tolerance       = 0.000000000001
redata: No kicks to SCF
redata: DM Mixing Weight for Kicks       =     0.5000
redata: DM Tolerance for SCF             =     0.000100
redata: Require Energy convergence for SCF =     F
redata: DM Energy tolerance for SCF      =     0.000100 eV
redata: Require Harris convergence for SCF =     F
redata: DM Harris energy tolerance for SCF =     0.000100 eV
redata: Using Saved Data (generic)   =     F
redata: Use continuation files for DM    =     T
redata: Neglect nonoverlap interactions  =     F
redata: Method of Calculation            =     Diagonalization
redata: Divide and Conquer               =     T
redata: Electronic Temperature           =     0.0019  Ry
redata: Fix the spin of the system       =     F
redata: Dynamics option                  =     Verlet MD run
redata: Initial MD time step             =        1
redata:   Final MD time step             =        1
redata: Length of MD time step           =     1.0000  fs
redata: Initial Temperature of MD run    =     0.0000  K
redata: Perform a MD quench              =     F
redata: ***********************************************************************
Total number of electrons:   313.000000
Total ionic charge:   313.000000

* ProcessorY, Blocksize:    2  24

k-point displ. along   1 input, could be:     0.50    0.00
k-point displ. along   2 input, could be:     0.50    0.00
 Kpoints in:          231 . Kpoints trimmed:          231

siesta: k-grid: Number of k-points =   231
siesta: k-grid: Cutoff (effective) =     5.000 Ang
siesta: k-grid: Supercell and displacements
siesta: k-grid:   21   0   0      0.500
siesta: k-grid:    0  21   0      0.500
siesta: k-grid:    0   0   1      0.000
Naive supercell factors:     2    2    2

superc: Internal auxiliary supercell:     2 x     2 x     2  =       8
superc: Number of atoms, orbitals, and projectors:    576   7488   9216

* Maximum dynamic memory allocated =     4 MB

siesta:                 ==============================
                            Begin MD step =      1
                        ==============================

superc: Internal auxiliary supercell:     2 x     2 x     2  =       8
superc: Number of atoms, orbitals, and projectors:    576   7488   9216

outcell: Unit cell vectors (Ang):
       12.804619    7.392750    0.000000
        0.000000   14.785500    0.000000
        0.000000    0.000000   10.000000

outcell: Cell vector modules (Ang)   :   14.785500   14.785500   10.000000
outcell: Cell angles (23,13,12) (deg):     90.0000     90.0000     60.0000
outcell: Cell volume (Ang**3)        :   1893.2269
New_DM. Step:     1
Initializing Density Matrix...

InitMesh: MESH =   120 x   120 x    90 =     1296000
InitMesh: Mesh cutoff (required, used) =   200.000   223.865 Ry

* Maximum dynamic memory allocated =   177 MB

stepf: Fermi-Dirac step function

siesta: Program's energy decomposition (eV):
siesta: Ebs     =     -6457.137835
siesta: Eions   =     22421.682175
siesta: Ena     =      5012.909767
siesta: Ekin    =      8476.244847
siesta: Enl     =      -144.323495
siesta: DEna    =        -0.000015
siesta: DUscf   =         0.000000
siesta: DUext   =         0.000000
siesta: Exc     =     -4821.150677
siesta: eta*DQ  =         0.000000
siesta: Emadel  =         0.000000
siesta: Emeta   =         0.000000
siesta: Emolmec =         0.000000
siesta: Ekinion =         0.000000
siesta: Eharris =    -13422.645016
siesta: Etot    =    -13898.001748
siesta: FreeEng =    -13898.001748

siesta: iscf   Eharris(eV)      E_KS(eV)   FreeEng(eV)   dDmax  Ef(eV)
siesta:    1   -13422.6450   -13898.0017   -13898.0017  4.7914 -6.4059
timer: Routine,Calls,Time,% = IterSCF        1    4264.715  99.73
elaps: Routine,Calls,Wall,% = IterSCF        1     533.723  99.73
siesta:    2   -14312.8871   -13117.1595   -13117.2240 10.6713 -2.0719
siesta:    3   -13317.6473   -13648.8183   -13648.8414  1.9846 -4.1894
siesta:    4   -13304.7004   -13499.3455   -13499.4029  0.8115 -3.5415
siesta:    5   -13295.5965   -13479.9835   -13480.0359  0.7754 -3.3744
siesta:    6   -13292.4089   -13460.1910   -13460.2502  0.6991 -3.2836
siesta:    7   -13290.0277   -13427.4662   -13427.5368  0.5821 -3.3250
siesta:    8   -13292.0845   -13369.2800   -13369.3213  0.3766 -3.6153
siesta:    9   -13291.5805   -13351.8122   -13351.8377  0.3197 -3.6078
siesta:   10   -13290.6379   -13307.0736   -13307.1276  0.1908 -3.4670
siesta:   11   -13289.4345   -13287.8204   -13287.8568  0.1466 -3.3298
siesta:   12   -13288.8595   -13283.6074   -13283.6428  0.0924 -3.2719
siesta:   13   -13288.5349   -13283.9157   -13283.9561  0.0729 -3.2806
siesta:   14   -13288.4576   -13284.5644   -13284.6105  0.0829 -3.3055
siesta:   15   -13288.3570   -13286.4085   -13286.4513  0.0663 -3.3655
siesta:   16   -13288.3290   -13286.9694   -13287.0078  0.0691 -3.3633
siesta:   17   -13288.3102   -13287.4380   -13287.4759  0.0488 -3.3509
siesta:   18   -13288.2983   -13287.8844   -13287.9229  0.0323 -3.3295
siesta:   19   -13288.2922   -13287.7168   -13287.7552  0.0200 -3.3032
siesta:   20   -13288.2907   -13287.5084   -13287.5494  0.0088 -3.3005
siesta:   21   -13288.2875   -13287.5818   -13287.6231  0.0067 -3.3011
siesta:   22   -13288.2866   -13287.5810   -13287.6223  0.0055 -3.3029
siesta:   23   -13288.2859   -13287.8954   -13287.9365  0.0055 -3.3039
siesta:   24   -13288.2859   -13288.1860   -13288.2270  0.0031 -3.3059
siesta:   25   -13288.2858   -13288.3227   -13288.3635  0.0018 -3.3058
siesta:   26   -13288.2856   -13288.3968   -13288.4376  0.0013 -3.3054
siesta:   27   -13288.2856   -13288.4251   -13288.4660  0.0014 -3.3059
siesta:   28   -13288.2856   -13288.4220   -13288.4629  0.0012 -3.3058
siesta:   29   -13288.2855   -13288.3980   -13288.4389  0.0008 -3.3056
siesta:   30   -13288.2855   -13288.3386   -13288.3795  0.0004 -3.3057
siesta:   31   -13288.2856   -13288.3287   -13288.3696  0.0003 -3.3059
siesta:   32   -13288.2856   -13288.3153   -13288.3562  0.0002 -3.3059
siesta:   33   -13288.2856   -13288.2953   -13288.3362  0.0001 -3.3059
siesta:   34   -13288.2856   -13288.2877   -13288.3286  0.0001 -3.3058

siesta: E_KS(eV) =           -13288.2878

siesta: E_KS - E_eggbox =    -13288.2878

siesta: Atomic forces (eV/Ang):
----------------------------------------
   Tot   -0.005004    0.011062    0.000000
----------------------------------------
   Max  767.981294
   Res  197.386363    sqrt( Sum f_i^2 / 3N )
----------------------------------------
   Max  767.981294    constrained

Stress-tensor-Voigt (kbar):     -630.99    -3569.68       -0.19        0.09        0.00        0.00
(Free)E + p*V (eV/cell)   -11633.6860
Target enthalpy (eV/cell)   -13288.3287

siesta: Stress tensor (static) (eV/Ang**3):
        -0.393829    0.000058    0.000000
         0.000058   -2.227996    0.000000
         0.000000    0.000000   -0.000116

siesta: Pressure (static):       1400.28567830  kBar

siesta: Stress tensor (total) (eV/Ang**3):
        -0.393829    0.000058    0.000000
         0.000058   -2.227996    0.000000
         0.000000    0.000000   -0.000116

siesta: Pressure (total):       1400.28567830  kBar

siesta: Temp_ion =       0.000 K

* Maximum dynamic memory allocated =   193 MB
Computing bands...

siesta: Program's energy decomposition (eV):
siesta: Ebs     =     -5265.170849
siesta: Eions   =     22421.682175
siesta: Ena     =      5012.909767
siesta: Ekin    =     11840.646213
siesta: Enl     =     -1979.055850
siesta: DEna    =      -844.570198
siesta: DUscf   =       112.792782
siesta: DUext   =         0.000000
siesta: Exc     =     -5009.328336
siesta: eta*DQ  =         0.000000
siesta: Emadel  =         0.000000
siesta: Emeta   =         0.000000
siesta: Emolmec =         0.000000
siesta: Ekinion =         0.000000
siesta: Eharris =    -13288.285568
siesta: Etot    =    -13288.287797
siesta: FreeEng =    -13288.328676

siesta: Final energy (eV):
siesta:  Band Struct. =   -5265.170849
siesta:       Kinetic =   11840.646213
siesta:       Hartree =   39690.908001
siesta:    Ext. field =       0.000000
siesta:   Exch.-corr. =   -5009.328336
siesta:  Ion-electron =  -90777.951089
siesta:       Ion-ion =   30967.437414
siesta:       Ekinion =       0.000000
siesta:         Total =  -13288.287797

siesta: Atomic forces (eV/Ang):
siesta:      1    5.048321  111.162802    0.000000
siesta:      2   -4.937352  110.927078    0.000000
siesta:      3   33.107745   -1.763583    0.000000
siesta:      4   28.375704 -753.668707    0.000000
siesta:      5  -33.249966   -1.741922    0.000000
siesta:      6  -28.411010 -753.717980    0.000000
siesta:      7   -4.969273 -110.952972    0.000000
siesta:      8   28.316659  753.649532    0.000000
siesta:      9   33.176223    1.762944    0.000000
siesta:     10    5.098111 -111.184876    0.000000
siesta:     11   -0.150679  767.981294    0.000000
siesta:     12    0.024965 -114.987767    0.000000
siesta:     13    8.332851  688.995115    0.000000
siesta:     14  -28.367654  753.708229    0.000000
siesta:     15  -33.280542    1.717100    0.000000
siesta:     16   -8.477487  689.099991    0.000000
siesta:     17    0.421810    0.460395    0.000000
siesta:     18   -0.263318   -1.321189    0.000000
siesta:     19   -0.383600   -1.175814    0.000000
siesta:     20   -0.117970    0.461704    0.000000
siesta:     21    0.508950    1.388152    0.000000
siesta:     22    8.440421 -688.784319    0.000000
siesta:     23   -8.440773 -688.886212    0.000000
siesta:     24   -0.031695  114.671802    0.000000
siesta:     25   -0.119587 -767.860453    0.000000
siesta:     26    0.039989  545.023006    0.000000
siesta:     27    0.105702 -120.303913    0.000000
siesta:     28  -12.988014 -653.471710    0.000000
siesta:     29   13.089339 -653.646441    0.000000
siesta:     30    1.486218    0.975191    0.000000
siesta:     31   -3.188984    1.544210    0.000000
siesta:     32    1.725780    2.980697    0.000000
siesta:     33   -0.392756    0.130199    0.000000
siesta:     34   13.215510  653.855179    0.000000
siesta:     35   -3.130122   -1.614166    0.000000
siesta:     36    1.188233   -0.961491    0.000000
siesta:     37   -0.364105   -0.215163    0.000000
siesta:     38    1.604929   -2.716154    0.000000
siesta:     39    0.022223    7.487661    0.000000
siesta:     40   -0.000137   -7.422399    0.000000
siesta:     41  -13.136991  653.765583    0.000000
siesta:     42   22.216081   -5.463771    0.000000
siesta:     43   -1.850500    2.224972    0.000000
siesta:     44   -0.576311   -0.222581    0.000000
siesta:     45   -0.038437    1.009752    0.000000
siesta:     46   -0.673783   -1.308776    0.000000
siesta:     47  -22.081142   -5.863226    0.000000
siesta:     48   -0.084609  568.157247    0.000000
siesta:     49   -0.388941    0.437859    0.000000
siesta:     50    3.163434   -1.487280    0.000000
siesta:     51   -1.526443   -0.916652    0.000000
siesta:     52    2.247317    3.322763    0.000000
siesta:     53    0.071867   -0.694358    0.000000
siesta:     54    0.348747   -0.310502    0.000000
siesta:     55   -1.625633   -2.854344    0.000000
siesta:     56    0.683337    0.842817    0.000000
siesta:     57    0.596980   -0.900330    0.000000
siesta:     58    0.015863    7.373882    0.000000
siesta:     59    0.021556   -7.361429    0.000000
siesta:     60   -1.576989    2.838496    0.000000
siesta:     61    0.391601    0.302938    0.000000
siesta:     62   -0.437324    1.023870    0.000000
siesta:     63   -2.232215   -3.012150    0.000000
siesta:     64    0.100127 -568.680241    0.000000
siesta:     65    0.303371    0.715303    0.000000
siesta:     66    2.285684   -3.218055    0.000000
siesta:     67   21.661747    5.371796    0.000000
siesta:     68  -21.725525    5.614527    0.000000
siesta:     69   -1.608128    0.896421    0.000000
siesta:     70    3.206630    1.528662    0.000000
siesta:     71    0.203120  120.462899    0.000000
siesta:     72   -0.024154 -545.170084    0.000000
siesta: ----------------------------------------
siesta:    Tot   -0.005004    0.011062    0.000000

siesta: Stress tensor (static) (eV/Ang**3):
siesta:    -0.393829    0.000058    0.000000
siesta:     0.000058   -2.227996    0.000000
siesta:     0.000000    0.000000   -0.000116

siesta: Cell volume =       1893.226884 Ang**3

siesta: Pressure (static):
siesta:                Solid            Molecule  Units
siesta:           0.00951876          0.15894253  Ry/Bohr**3
siesta:           0.87398013         14.59356250  eV/Ang**3
siesta:        1400.28567830      23381.71757544  kBar
(Free)E+ p_basis*V_orbitals  =      -13261.165148
(Free)Eharris+ p_basis*V_orbitals  =      -13261.163018

siesta: Electric dipole (a.u.)  =    0.000000    0.000000    0.000000
siesta: Electric dipole (Debye) =    0.000000    0.000000    0.000000

* Maximum dynamic memory allocated : Node    0 =   193 MB
* Maximum dynamic memory allocated : Node    1 =    70 MB
* Maximum dynamic memory allocated : Node    2 =    73 MB
* Maximum dynamic memory allocated : Node    3 =   184 MB
* Maximum dynamic memory allocated : Node    4 =   187 MB
* Maximum dynamic memory allocated : Node    5 =    70 MB
* Maximum dynamic memory allocated : Node    6 =    73 MB
* Maximum dynamic memory allocated : Node    7 =   172 MB

* Maximum memory occured during matrixMtoO                    

timer: CPU execution times:
timer:  Routine       Calls   Time/call    Tot.time        %
timer:  siesta            1  143224.236  143224.236   100.00
timer:  Setup             1       3.042       3.042     0.00
timer:  bands             3     272.502     817.507     0.57
timer:  writewave         1       0.018       0.018     0.00
timer:  KSV_init          1       0.004       0.004     0.00
timer:  IterMD            1  142397.806  142397.806    99.42
timer:  hsparse           1       0.234       0.234     0.00
timer:  overlap           1       7.715       7.715     0.01
timer:  IterSCF          34    4183.525  142239.848    99.31
timer:  kinefsm           2       3.986       7.972     0.01
timer:  nlefsm            2      18.373      36.745     0.03
timer:  DHSCF            35      81.190    2841.648     1.98
timer:  DHSCF1            1       0.773       0.773     0.00
timer:  DHSCF2            1      32.527      32.527     0.02
timer:  REORD           282       0.011       3.092     0.00
timer:  POISON           36       2.515      90.528     0.06
timer:  DHSCF3           35      79.347    2777.141     1.94
timer:  rhoofd           35      16.133     564.644     0.39
timer:  cellXC           35       3.466     121.296     0.08
timer:  vmat             35      38.326    1341.417     0.94
timer:  MolMec            2       0.000       0.000     0.00
timer:  diagon           34    4100.995  139433.845    97.35
timer:  c-eigval       7975       6.767   53964.264    37.68
timer:  c-buildHS      7975       0.133    1060.778     0.74
timer:  cdiag         15829       6.956  110101.923    76.87
timer:  cdiag1        15829       0.433    6861.254     4.79
timer:  cdiag2        15829       1.922   30418.570    21.24
timer:  cdiag3        15829       3.993   63207.848    44.13
timer:  cdiag4        15829       0.211    3341.120     2.33
timer:  c-eigvec       7854       7.339   57642.624    40.25
timer:  c-buildD       7854       3.641   28599.380    19.97
timer:  DHSCF4            1      29.102      29.102     0.02
timer:  dfscf             1      27.275      27.275     0.02
timer:  overfsm           1       0.391       0.391     0.00
timer:  optical           1       5.133       5.133     0.00
  

elaps: ELAPSED times:
elaps:  Routine       Calls   Time/call    Tot.time        %
elaps:  siesta            1   17922.838   17922.838   100.00
elaps:  Setup             1       0.380       0.380     0.00
elaps:  bands             3      34.115     102.345     0.57
elaps:  writewave         1       0.002       0.002     0.00
elaps:  KSV_init          1       0.000       0.000     0.00
elaps:  IterMD            1   17819.436   17819.436    99.42
elaps:  hsparse           1       0.029       0.029     0.00
elaps:  overlap           1       0.970       0.970     0.01
elaps:  IterSCF          34     523.520   17799.677    99.31
elaps:  kinefsm           2       0.527       1.055     0.01
elaps:  nlefsm            2       2.264       4.529     0.03
elaps:  DHSCF            35      10.264     359.235     2.00
elaps:  DHSCF1            1       0.101       0.101     0.00
elaps:  DHSCF2            1       4.063       4.063     0.02
elaps:  REORD           282       0.001       0.422     0.00
elaps:  POISON           36       0.314      11.305     0.06
elaps:  DHSCF3           35       9.927     347.443     1.94
elaps:  rhoofd           35       4.320     151.187     0.84
elaps:  cellXC           35       0.433      15.142     0.08
elaps:  vmat             35       4.795     167.808     0.94
elaps:  MolMec            2       0.000       0.000     0.00
elaps:  diagon           34     513.195   17448.621    97.35
elaps:  c-eigval       7975       0.847    6752.057    37.67
elaps:  c-buildHS      7975       0.018     141.201     0.79
elaps:  cdiag         15829       0.870   13777.154    76.87
elaps:  cdiag1        15829       0.054     848.354     4.73
elaps:  cdiag2        15829       0.240    3806.528    21.24
elaps:  cdiag3        15829       0.500    7919.517    44.19
elaps:  cdiag4        15829       0.027     427.406     2.38
elaps:  c-eigvec       7854       0.922    7243.519    40.42
elaps:  c-buildD       7854       0.452    3549.022    19.80
elaps:  DHSCF4            1       7.334       7.334     0.04
elaps:  dfscf             1       6.941       6.941     0.04
elaps:  overfsm           1       0.047       0.047     0.00
elaps:  optical           1       0.000       0.000     0.00
  
>> End of run:  22-APR-2016  16:33:07
