Siesta Version:                                        siesta-3.2-pl-3
Architecture  : x86_64-unknown-linux-gnu--unknown
Compiler flags: mpiifort -g -O2 -fPIC -xSSE4.1 -fp-model source -shared-intel 
PARALLEL version

* Running on    8 nodes in parallel
>> Start of run:  23-APR-2016  15:31:06

                           ***********************       
                           *  WELCOME TO SIESTA  *       
                           ***********************       

reinit: Reading from standard input
************************** Dump of input data file ****************************
#(1) General system descriptors
SystemName            GRP_doping    # Descriptive name of the system
SystemLabel           GRP_doping    # Short name for naming files
%include STRUCT.fdf
%include KPT.fdf
%include BASIS.fdf
#%include TS.fdf # for transiesta calculation
#(4) DFT, Grid, SCF
XC.functional         GGA           # LDA or GGA (default = LDA)
XC.authors            PBE           # CA (Ceperley-Aldr) = PZ
                                    #    (Perdew-Zunger) - LDA - Default
                                    # PW92 (Perdew-Wang-92) - LDA
                                    # PBE (Perdew-Burke-Ernzerhof) - GGA
MeshCutoff            200.000000    Ry      # Default: 50.0 Ry ~ 0.444 Bohr
                                    #         100.0 Ry ~ 0.314 Bohr
MaxSCFIterations      500           # Default: 50
DM.MixingWeight       0.05          # Default: 0.25
DM.NumberPulay        10            # Default: 0
DM.PulayOnFile        F             # SystemLabel.P1, SystemLabel.P2
DM.Tolerance          1.d-4         # Default: 1.d-4
DM.UseSaveDM          .true.        # because of the bug
SCFMustConverge       .true.
NeglNonOverlapInt     F             # Default: F
#(5) Eigenvalue problem: order-N or diagonalization
SolutionMethod        Diagon        # or Transiesta
ElectronicTemperature 300.0 K       # Default: 300.0 K
#(6) Molecular dynamics and relaxations
#MD.TypeOfRun          CG            # Type of dynamics:
#MD.VariableCell       F
#MD.NumCGsteps         0           # 0 for single-point / 100 for gopt
#MD.MaxCGDispl         0.2 Bohr      # Default: 0.2 Bohr
#MD.MaxForceTol        0.02 eV/Ang   # Default: 0.04 eV/Ang
#MD.MaxStressTol       1.0 GPa       # Default: 1.0 GPa
# Geometry Constraints
#%block GeometryConstraints
#	position from 1 to 44
#%endblock GeometryConstraints
BandLinesScale   pi/a
%block BandLines
 1   0.00000000  0.00000000  0.00000000
50   0.00000000  0.07809418  0.00000000
50   0.04509075  0.07809242  0.00000000
20   0.00000000  0.00000000  0.00000000
%endblock BandLines
************************** End of input data file *****************************

reinit: -----------------------------------------------------------------------
reinit: System Name: GRP_doping
reinit: -----------------------------------------------------------------------
reinit: System Label: GRP_doping                                                  
reinit: -----------------------------------------------------------------------

initatom: Reading input for the pseudopotentials and atomic orbitals ----------
 Species number:            1  Label: B Atomic number:           5
 Species number:            2  Label: C Atomic number:           6
Ground state valence configuration:   2s02  2p01
Reading pseudopotential information in formatted form from B.psf

Valence configuration for pseudopotential generation:
2s( 2.00) rc: 1.74
2p( 1.00) rc: 1.74
3d( 0.00) rc: 1.74
4f( 0.00) rc: 1.74
Ground state valence configuration:   2s02  2p02
Reading pseudopotential information in formatted form from C.psf

Valence configuration for pseudopotential generation:
2s( 2.00) rc: 1.54
2p( 2.00) rc: 1.54
3d( 0.00) rc: 1.54
4f( 0.00) rc: 1.54
For B, standard SIESTA heuristics set lmxkb to 3
 (one more than the basis l, including polarization orbitals).
Use PS.lmax or PS.KBprojectors blocks to override.
For C, standard SIESTA heuristics set lmxkb to 3
 (one more than the basis l, including polarization orbitals).
Use PS.lmax or PS.KBprojectors blocks to override.

<basis_specs>
===============================================================================
B                    Z=   5    Mass=  10.810        Charge= 0.17977+309
Lmxo=1 Lmxkb= 3    BasisType=split      Semic=F
L=0  Nsemic=0  Cnfigmx=2
          n=1  nzeta=2  polorb=0
            splnorm:   0.15000    
               vcte:    0.0000    
               rinn:    0.0000    
                rcs:    0.0000      0.0000    
            lambdas:    1.0000      1.0000    
L=1  Nsemic=0  Cnfigmx=2
          n=1  nzeta=2  polorb=1
            splnorm:   0.15000    
               vcte:    0.0000    
               rinn:    0.0000    
                rcs:    0.0000      0.0000    
            lambdas:    1.0000      1.0000    
-------------------------------------------------------------------------------
L=0  Nkbl=1  erefs: 0.17977+309
L=1  Nkbl=1  erefs: 0.17977+309
L=2  Nkbl=1  erefs: 0.17977+309
L=3  Nkbl=1  erefs: 0.17977+309
===============================================================================
</basis_specs>

atom: Called for B                     (Z =   5)

read_vps: Pseudopotential generation method:
read_vps: ATM3      Troullier-Martins                       
Total valence charge:    3.00000

read_vps: Pseudopotential includes a core correction:
read_vps: Pseudo-core for xc-correction

xc_check: Exchange-correlation functional:
xc_check: GGA Perdew, Burke & Ernzerhof 1996
V l=0 = -2*Zval/r beyond r=  1.7165
V l=1 = -2*Zval/r beyond r=  1.7165
V l=2 = -2*Zval/r beyond r=  1.7165
V l=3 = -2*Zval/r beyond r=  1.6951
All V_l potentials equal beyond r=  1.7165
This should be close to max(r_c) in ps generation
All pots = -2*Zval/r beyond r=  1.7165

VLOCAL1: 99.0% of the norm of Vloc inside     14.733 Ry
VLOCAL1: 99.9% of the norm of Vloc inside     33.577 Ry
atom: Maximum radius for 4*pi*r*r*local-pseudopot. charge    2.04484
atom: Maximum radius for r*vlocal+2*Zval:    1.75994
GHOST: No ghost state for L =  0
GHOST: No ghost state for L =  1
GHOST: No ghost state for L =  2
GHOST: No ghost state for L =  3

KBgen: Kleinman-Bylander projectors: 
   l= 0   rc=  1.897051   el= -0.693730   Ekb=  4.595746   kbcos=  0.286105
   l= 1   rc=  1.920920   el= -0.265236   Ekb= -2.350715   kbcos= -0.315747
   l= 2   rc=  2.044840   el=  0.002055   Ekb= -0.690767   kbcos= -0.013822
   l= 3   rc=  2.149707   el=  0.003188   Ekb= -0.315358   kbcos= -0.002055

KBgen: Total number of  Kleinman-Bylander projectors:   16
atom: -------------------------------------------------------------------------

atom: SANKEY-TYPE ORBITALS:
atom: Selected multiple-zeta basis: split     

SPLIT: Orbitals with angular momentum L= 0

SPLIT: Basis orbitals for state 2s

SPLIT: PAO cut-off radius determined from an
SPLIT: energy shift=  0.007350 Ry

   izeta = 1
                 lambda =    1.000000
                     rc =    5.422032
                 energy =   -0.686029
                kinetic =    0.576707
    potential(screened) =   -1.262736
       potential(ionic) =   -3.271094

   izeta = 2
                 rmatch =    4.222573
              splitnorm =    0.150000
                 energy =   -0.602132
                kinetic =    0.858975
    potential(screened) =   -1.461107
       potential(ionic) =   -3.582536

SPLIT: Orbitals with angular momentum L= 1

SPLIT: Basis orbitals for state 2p

SPLIT: PAO cut-off radius determined from an
SPLIT: energy shift=  0.007350 Ry

   izeta = 1
                 lambda =    1.000000
                     rc =    6.790259
                 energy =   -0.258578
                kinetic =    1.481412
    potential(screened) =   -1.739989
       potential(ionic) =   -3.657461

   izeta = 2
                 rmatch =    4.608740
              splitnorm =    0.150000
                 energy =   -0.173757
                kinetic =    2.186690
    potential(screened) =   -2.360447
       potential(ionic) =   -4.464260

POLgen: Perturbative polarization orbital with L=  2

POLgen: Polarization orbital for state 2p

   izeta = 1
                     rc =    6.790259
                 energy =    0.684082
                kinetic =    1.471481
    potential(screened) =   -0.787399
       potential(ionic) =   -2.406985
atom: Total number of Sankey-type orbitals: 13

atm_pop: Valence configuration (for local Pseudopot. screening):
 2s( 2.00)                                                            
 2p( 1.00)                                                            
Vna: chval, zval:    3.00000   3.00000

Vna:  Cut-off radius for the neutral-atom potential:   6.790259
comcore: Pseudo-core radius Rcore=  2.122997

atom: _________________________________________________________________________

<basis_specs>
===============================================================================
C                    Z=   6    Mass=  12.010        Charge= 0.17977+309
Lmxo=1 Lmxkb= 3    BasisType=split      Semic=F
L=0  Nsemic=0  Cnfigmx=2
          n=1  nzeta=2  polorb=0
            splnorm:   0.15000    
               vcte:    0.0000    
               rinn:    0.0000    
                rcs:    0.0000      0.0000    
            lambdas:    1.0000      1.0000    
L=1  Nsemic=0  Cnfigmx=2
          n=1  nzeta=2  polorb=1
            splnorm:   0.15000    
               vcte:    0.0000    
               rinn:    0.0000    
                rcs:    0.0000      0.0000    
            lambdas:    1.0000      1.0000    
-------------------------------------------------------------------------------
L=0  Nkbl=1  erefs: 0.17977+309
L=1  Nkbl=1  erefs: 0.17977+309
L=2  Nkbl=1  erefs: 0.17977+309
L=3  Nkbl=1  erefs: 0.17977+309
===============================================================================
</basis_specs>

atom: Called for C                     (Z =   6)

read_vps: Pseudopotential generation method:
read_vps: ATM3      Troullier-Martins                       
Total valence charge:    4.00000

read_vps: Pseudopotential includes a core correction:
read_vps: Pseudo-core for xc-correction

xc_check: Exchange-correlation functional:
xc_check: GGA Perdew, Burke & Ernzerhof 1996
V l=0 = -2*Zval/r beyond r=  1.5227
V l=1 = -2*Zval/r beyond r=  1.5227
V l=2 = -2*Zval/r beyond r=  1.5227
V l=3 = -2*Zval/r beyond r=  1.5038
All V_l potentials equal beyond r=  1.5227
This should be close to max(r_c) in ps generation
All pots = -2*Zval/r beyond r=  1.5227

VLOCAL1: 99.0% of the norm of Vloc inside     18.722 Ry
VLOCAL1: 99.9% of the norm of Vloc inside     42.668 Ry
atom: Maximum radius for 4*pi*r*r*local-pseudopot. charge    1.83678
atom: Maximum radius for r*vlocal+2*Zval:    1.58088
GHOST: No ghost state for L =  0
GHOST: No ghost state for L =  1
GHOST: No ghost state for L =  2
GHOST: No ghost state for L =  3

KBgen: Kleinman-Bylander projectors: 
   l= 0   rc=  1.704034   el= -1.009801   Ekb=  5.335044   kbcos=  0.316824
   l= 1   rc=  1.704034   el= -0.388707   Ekb= -3.785862   kbcos= -0.366464
   l= 2   rc=  1.791422   el=  0.001971   Ekb= -0.970471   kbcos= -0.009212
   l= 3   rc=  1.859892   el=  0.003065   Ekb= -0.399525   kbcos= -0.001223

KBgen: Total number of  Kleinman-Bylander projectors:   16
atom: -------------------------------------------------------------------------

atom: SANKEY-TYPE ORBITALS:
atom: Selected multiple-zeta basis: split     

SPLIT: Orbitals with angular momentum L= 0

SPLIT: Basis orbitals for state 2s

SPLIT: PAO cut-off radius determined from an
SPLIT: energy shift=  0.007350 Ry

   izeta = 1
                 lambda =    1.000000
                     rc =    4.632753
                 energy =   -1.002270
                kinetic =    0.855760
    potential(screened) =   -1.858031
       potential(ionic) =   -5.417575

   izeta = 2
                 rmatch =    3.431921
              splitnorm =    0.150000
                 energy =   -0.867111
                kinetic =    1.300804
    potential(screened) =   -2.167915
       potential(ionic) =   -5.962684

SPLIT: Orbitals with angular momentum L= 1

SPLIT: Basis orbitals for state 2p

SPLIT: PAO cut-off radius determined from an
SPLIT: energy shift=  0.007350 Ry

   izeta = 1
                 lambda =    1.000000
                     rc =    5.658549
                 energy =   -0.381140
                kinetic =    2.399701
    potential(screened) =   -2.780841
       potential(ionic) =   -6.206085

   izeta = 2
                 rmatch =    3.653288
              splitnorm =    0.150000
                 energy =   -0.249149
                kinetic =    3.542762
    potential(screened) =   -3.791911
       potential(ionic) =   -7.581078

POLgen: Perturbative polarization orbital with L=  2

POLgen: Polarization orbital for state 2p

   izeta = 1
                     rc =    5.658549
                 energy =    1.109913
                kinetic =    2.304789
    potential(screened) =   -1.194876
       potential(ionic) =   -4.013592
atom: Total number of Sankey-type orbitals: 13

atm_pop: Valence configuration (for local Pseudopot. screening):
 2s( 2.00)                                                            
 2p( 2.00)                                                            
Vna: chval, zval:    4.00000   4.00000

Vna:  Cut-off radius for the neutral-atom potential:   5.658549
comcore: Pseudo-core radius Rcore=  1.791422

atom: _________________________________________________________________________

prinput: Basis input ----------------------------------------------------------

PAO.BasisType split     

%block ChemicalSpeciesLabel
    1    5 B                       # Species index, atomic number, species label
    2    6 C                       # Species index, atomic number, species label
%endblock ChemicalSpeciesLabel

%block PAO.Basis                 # Define Basis set
B                     2                    # Species label, number of l-shells
 n=2   0   2                         # n, l, Nzeta 
   5.422      4.223   
   1.000      1.000   
 n=2   1   2 P   1                   # n, l, Nzeta, Polarization, NzetaPol
   6.790      4.609   
   1.000      1.000   
C                     2                    # Species label, number of l-shells
 n=2   0   2                         # n, l, Nzeta 
   4.633      3.432   
   1.000      1.000   
 n=2   1   2 P   1                   # n, l, Nzeta, Polarization, NzetaPol
   5.659      3.653   
   1.000      1.000   
%endblock PAO.Basis

prinput: ----------------------------------------------------------------------

coor:   Atomic-coordinates input format  =     Fractional

siesta: Atomic coordinates (Bohr) and species
siesta:      9.28770  26.79272   0.00000  1        1
siesta:     -0.02582  13.34970   0.00000  1        2
siesta:      2.30256  14.69411   0.00000  1        3
siesta:      2.30256  17.38257   0.00000  1        4
siesta:      4.63094  18.72698   0.00000  1        5
siesta:      4.63094  21.41544   0.00000  1        6
siesta:      6.95932  22.75985   0.00000  1        7
siesta:      6.95932  25.44831   0.00000  1        8
siesta:     -0.02582  18.72698   0.00000  1        9
siesta:     -0.02582  21.41544   0.00000  1       10
siesta:     -2.35420  22.75985   0.00000  1       11
siesta:     -2.35420  25.44831   0.00000  1       12
siesta:     -9.33934  21.41544   0.00000  1       13
siesta:     -7.01096  22.75985   0.00000  1       14
siesta:     -7.01096  25.44831   0.00000  1       15
siesta:      4.63094  26.79272   0.00000  1       16
siesta:      4.63094  29.48119   0.00000  1       17
siesta:     -4.68258  26.79272   0.00000  1       18
siesta:     -4.68258  29.48119   0.00000  1       19
siesta:      2.30256  30.82560   0.00000  1       20
siesta:      2.30256  33.51406   0.00000  1       21
siesta:     -2.35420  30.82560   0.00000  1       22
siesta:     -2.35420  33.51406   0.00000  1       23
siesta:     -0.02582  34.85847   0.00000  1       24
siesta:     -0.02582   2.59549   0.00000  2       25
siesta:     -0.02582   5.28395   0.00000  2       26
siesta:     -2.35420  38.89134   0.00000  2       27
siesta:     -2.35420  41.57980   0.00000  2       28
siesta:      2.30256  38.89134   0.00000  2       29
siesta:      2.30256  41.57980   0.00000  2       30
siesta:      4.63094  34.85847   0.00000  2       31
siesta:      4.63094  37.54693   0.00000  2       32
siesta:      6.95932  30.82560   0.00000  2       33
siesta:      6.95932  33.51406   0.00000  2       34
siesta:      9.28770  29.48119   0.00000  2       35
siesta:     -4.68258  34.85847   0.00000  2       36
siesta:     -4.68258  37.54693   0.00000  2       37
siesta:      2.30256   6.62836   0.00000  2       38
siesta:      2.30256   9.31683   0.00000  2       39
siesta:      4.63094  10.66124   0.00000  2       40
siesta:      4.63094  13.34970   0.00000  2       41
siesta:      6.95932  14.69411   0.00000  2       42
siesta:      6.95932  17.38257   0.00000  2       43
siesta:      9.28770  18.72698   0.00000  2       44
siesta:      9.28770  21.41544   0.00000  2       45
siesta:     11.61608  22.75985   0.00000  2       46
siesta:     11.61608  25.44831   0.00000  2       47
siesta:     -2.35420   6.62836   0.00000  2       48
siesta:     -2.35420   9.31683   0.00000  2       49
siesta:     -0.02582  10.66124   0.00000  2       50
siesta:     -4.68258  10.66124   0.00000  2       51
siesta:     -4.68258  13.34970   0.00000  2       52
siesta:     -2.35420  14.69411   0.00000  2       53
siesta:     -2.35420  17.38257   0.00000  2       54
siesta:      2.30256  22.75985   0.00000  2       55
siesta:      2.30256  25.44831   0.00000  2       56
siesta:     -7.01096  14.69411   0.00000  2       57
siesta:     -7.01096  17.38257   0.00000  2       58
siesta:     -4.68258  18.72698   0.00000  2       59
siesta:     -4.68258  21.41544   0.00000  2       60
siesta:     -9.33934  18.72698   0.00000  2       61
siesta:    -11.66772  22.75985   0.00000  2       62
siesta:    -11.66772  25.44831   0.00000  2       63
siesta:     -9.33934  26.79272   0.00000  2       64
siesta:     -9.33934  29.48119   0.00000  2       65
siesta:     -0.02582  26.79272   0.00000  2       66
siesta:     -0.02582  29.48119   0.00000  2       67
siesta:     -7.01096  30.82560   0.00000  2       68
siesta:     -7.01096  33.51406   0.00000  2       69
siesta:     -0.02582  37.54693   0.00000  2       70
siesta:     -0.02582  42.92421   0.00000  2       71
siesta:     -0.02582  45.61267   0.00000  2       72

siesta: System type = slab      

initatomlists: Number of atoms, orbitals, and projectors:     72   936  1152

siesta: ******************** Simulation parameters ****************************
siesta:
siesta: The following are some of the parameters of the simulation.
siesta: A complete list of the parameters used, including default values,
siesta: can be found in file out.fdf
siesta:
redata: Non-Collinear-spin run           =     F
redata: SpinPolarized (Up/Down) run      =     F
redata: Number of spin components        =     1
redata: Long output                      =     F
redata: Number of Atomic Species         =        2
redata: Charge density info will appear in .RHO file
redata: Write Mulliken Pop.              =     NO
redata: Mesh Cutoff                      =   200.0000  Ry
redata: Net charge of the system         =     0.0000 |e|
redata: Max. number of SCF Iter          =      500
redata: SCF convergence failure will abort job
redata: Performing Pulay mixing using    =    10 iterations
redata: Mix DM in first SCF step ?       =     F
redata: Write Pulay info on disk?        =     F
redata: Discard 1st Pulay DM after  kick =     F
redata: New DM Mixing Weight             =     0.0500
redata: New DM Occupancy tolerance       = 0.000000000001
redata: No kicks to SCF
redata: DM Mixing Weight for Kicks       =     0.5000
redata: DM Tolerance for SCF             =     0.000100
redata: Require Energy convergence for SCF =     F
redata: DM Energy tolerance for SCF      =     0.000100 eV
redata: Require Harris convergence for SCF =     F
redata: DM Harris energy tolerance for SCF =     0.000100 eV
redata: Using Saved Data (generic)   =     F
redata: Use continuation files for DM    =     T
redata: Neglect nonoverlap interactions  =     F
redata: Method of Calculation            =     Diagonalization
redata: Divide and Conquer               =     T
redata: Electronic Temperature           =     0.0019  Ry
redata: Fix the spin of the system       =     F
redata: Dynamics option                  =     Verlet MD run
redata: Initial MD time step             =        1
redata:   Final MD time step             =        1
redata: Length of MD time step           =     1.0000  fs
redata: Initial Temperature of MD run    =     0.0000  K
redata: Perform a MD quench              =     F
redata: ***********************************************************************
Total number of electrons:   264.000000
Total ionic charge:   264.000000

* ProcessorY, Blocksize:    2  24

k-point displ. along   1 input, could be:     0.50    0.00
k-point displ. along   2 input, could be:     0.50    0.00
 Kpoints in:          231 . Kpoints trimmed:          231

siesta: k-grid: Number of k-points =   231
siesta: k-grid: Cutoff (effective) =     5.000 Ang
siesta: k-grid: Supercell and displacements
siesta: k-grid:   21   0   0      0.500
siesta: k-grid:    0  21   0      0.500
siesta: k-grid:    0   0   1      0.000
Naive supercell factors:     2    2    2

superc: Internal auxiliary supercell:     2 x     2 x     2  =       8
superc: Number of atoms, orbitals, and projectors:    576   7488   9216

* Maximum dynamic memory allocated =     4 MB

siesta:                 ==============================
                            Begin MD step =      1
                        ==============================

superc: Internal auxiliary supercell:     2 x     2 x     2  =       8
superc: Number of atoms, orbitals, and projectors:    576   7488   9216

outcell: Unit cell vectors (Ang):
       12.804619    7.392750    0.000000
        0.000000   14.785500    0.000000
        0.000000    0.000000   10.000000

outcell: Cell vector modules (Ang)   :   14.785500   14.785500   10.000000
outcell: Cell angles (23,13,12) (deg):     90.0000     90.0000     60.0000
outcell: Cell volume (Ang**3)        :   1893.2269
New_DM. Step:     1
Initializing Density Matrix...

InitMesh: MESH =   120 x   120 x    90 =     1296000
InitMesh: Mesh cutoff (required, used) =   200.000   223.865 Ry

* Maximum dynamic memory allocated =   226 MB

stepf: Fermi-Dirac step function

siesta: Program's energy decomposition (eV):
siesta: Ebs     =     -5471.608239
siesta: Eions   =     15329.650002
siesta: Ena     =      4149.430972
siesta: Ekin    =      5112.466478
siesta: Enl     =       847.447770
siesta: DEna    =        -0.000007
siesta: DUscf   =         0.000000
siesta: DUext   =         0.000000
siesta: Exc     =     -4207.621731
siesta: eta*DQ  =         0.000000
siesta: Emadel  =         0.000000
siesta: Emeta   =         0.000000
siesta: Emolmec =         0.000000
siesta: Ekinion =         0.000000
siesta: Eharris =     -9195.028043
siesta: Etot    =     -9427.926521
siesta: FreeEng =     -9427.926521

siesta: iscf   Eharris(eV)      E_KS(eV)   FreeEng(eV)   dDmax  Ef(eV)
siesta:    1    -9195.0280    -9427.9265    -9427.9265  6.3819 -8.6220
timer: Routine,Calls,Time,% = IterSCF        1    4430.033  99.74
elaps: Routine,Calls,Wall,% = IterSCF        1     554.418  99.74
siesta:    2   -13923.0159    -8411.0627    -8411.0864 20.2029 -2.3856
siesta:    3    -9122.1040    -9317.4141    -9317.4527  3.7071 -7.7371
siesta:    4    -9102.1766    -9195.3359    -9195.3790  1.8107 -6.4121
siesta:    5    -9071.7529    -9101.7144    -9101.7724  1.1330 -5.6805
siesta:    6    -9047.3533    -9047.0995    -9047.1609  0.9662 -5.4212
siesta:    7    -9042.2781    -9034.5338    -9034.5896  0.8634 -5.4251
siesta:    8    -9037.8355    -9025.8101    -9025.8702  0.6646 -5.4664
siesta:    9    -9037.2558    -9023.0993    -9023.1627  0.6402 -5.4438
siesta:   10    -9036.7430    -9014.4883    -9014.5668  0.3793 -5.3696
siesta:   11    -9036.2608    -9008.0298    -9008.1138  0.3362 -5.3173
siesta:   12    -9036.2732    -9005.0477    -9005.1311  0.2204 -5.2807
siesta:   13    -9036.0163    -9004.8665    -9004.9633  0.2436 -5.2810
siesta:   14    -9035.5512    -9009.1508    -9009.2442  0.1835 -5.3006
siesta:   15    -9035.1634    -9014.2572    -9014.3452  0.0966 -5.3307
siesta:   16    -9035.0115    -9019.2678    -9019.3659  0.0959 -5.3524
siesta:   17    -9034.9704    -9025.9140    -9026.0166  0.0512 -5.3810
siesta:   18    -9034.9438    -9029.2499    -9029.3499  0.0786 -5.3920
siesta:   19    -9034.9352    -9030.6924    -9030.7941  0.0399 -5.3916
siesta:   20    -9034.9187    -9033.0752    -9033.1763  0.0235 -5.3859
siesta:   21    -9034.9127    -9033.1559    -9033.2586  0.0190 -5.3752
siesta:   22    -9034.9129    -9033.8931    -9033.9972  0.0109 -5.3660
siesta:   23    -9034.9119    -9034.2103    -9034.3133  0.0069 -5.3643
siesta:   24    -9034.9111    -9034.3442    -9034.4470  0.0063 -5.3639
siesta:   25    -9034.9108    -9034.5604    -9034.6630  0.0055 -5.3633
siesta:   26    -9034.9105    -9034.7237    -9034.8262  0.0053 -5.3637
siesta:   27    -9034.9103    -9034.7454    -9034.8482  0.0030 -5.3639
siesta:   28    -9034.9101    -9034.8549    -9034.9577  0.0028 -5.3642
siesta:   29    -9034.9101    -9034.8155    -9034.9184  0.0013 -5.3641
siesta:   30    -9034.9101    -9034.8352    -9034.9380  0.0007 -5.3647
siesta:   31    -9034.9101    -9034.9008    -9035.0036  0.0004 -5.3651
siesta:   32    -9034.9101    -9034.9374    -9035.0401  0.0004 -5.3652
siesta:   33    -9034.9101    -9034.9344    -9035.0372  0.0005 -5.3651
siesta:   34    -9034.9101    -9034.9290    -9035.0317  0.0004 -5.3651
siesta:   35    -9034.9101    -9034.9158    -9035.0186  0.0001 -5.3651
siesta:   36    -9034.9101    -9034.9080    -9035.0108  0.0001 -5.3651
siesta:   37    -9034.9101    -9034.9067    -9035.0094  0.0001 -5.3651

siesta: E_KS(eV) =            -9034.9055

siesta: E_KS - E_eggbox =     -9034.9055

siesta: Atomic forces (eV/Ang):
----------------------------------------
   Tot   -0.086426    0.093109    0.000000
----------------------------------------
   Max  555.673818
   Res  144.146411    sqrt( Sum f_i^2 / 3N )
----------------------------------------
   Max  555.673818    constrained

Stress-tensor-Voigt (kbar):     -791.47    -2660.57       -0.74       -6.42        0.00        0.00
(Free)E + p*V (eV/cell)    -7675.0180
Target enthalpy (eV/cell)    -9035.0083

siesta: Stress tensor (static) (eV/Ang**3):
        -0.493992   -0.004007    0.000000
        -0.004007   -1.660579    0.000000
         0.000000    0.000000   -0.000465

siesta: Pressure (static):       1150.92816811  kBar

siesta: Stress tensor (total) (eV/Ang**3):
        -0.493992   -0.004007    0.000000
        -0.004007   -1.660579    0.000000
         0.000000    0.000000   -0.000465

siesta: Pressure (total):       1150.92816811  kBar

siesta: Temp_ion =       0.000 K

* Maximum dynamic memory allocated =   242 MB
Computing bands...

siesta: Program's energy decomposition (eV):
siesta: Ebs     =     -4060.311876
siesta: Eions   =     15329.650002
siesta: Ena     =      4149.430972
siesta: Ekin    =      7956.806963
siesta: Enl     =      -750.411213
siesta: DEna    =      -789.958575
siesta: DUscf   =       106.113612
siesta: DUext   =         0.000000
siesta: Exc     =     -4377.237237
siesta: eta*DQ  =         0.000000
siesta: Emadel  =         0.000000
siesta: Emeta   =         0.000000
siesta: Emolmec =         0.000000
siesta: Ekinion =         0.000000
siesta: Eharris =     -9034.910100
siesta: Etot    =     -9034.905480
siesta: FreeEng =     -9035.008264

siesta: Final energy (eV):
siesta:  Band Struct. =   -4060.311876
siesta:       Kinetic =    7956.806963
siesta:       Hartree =   25763.634547
siesta:    Ext. field =       0.000000
siesta:   Exch.-corr. =   -4377.237237
siesta:  Ion-electron =  -59187.081452
siesta:       Ion-ion =   20808.971699
siesta:       Ekinion =       0.000000
siesta:         Total =   -9034.905480

siesta: Atomic forces (eV/Ang):
siesta:      1    8.293518    3.486816    0.000000
siesta:      2    1.242139 -108.198900    0.000000
siesta:      3   17.368427  398.805821    0.000000
siesta:      4   14.689205   -0.344795    0.000000
siesta:      5    3.428208   -3.512224    0.000000
siesta:      6   -5.663280    3.584497    0.000000
siesta:      7    3.436706   -2.228527    0.000000
siesta:      8   -1.512010    1.256123    0.000000
siesta:      9    0.744407  411.245972    0.000000
siesta:     10    4.671362    2.178029    0.000000
siesta:     11   -5.911013   -3.005234    0.000000
siesta:     12    6.082948    4.611278    0.000000
siesta:     13   -8.911447   -3.509789    0.000000
siesta:     14    5.906185   -3.218351    0.000000
siesta:     15   -3.948913    3.514773    0.000000
siesta:     16   -4.342258   -3.317672    0.000000
siesta:     17    2.294958    3.621403    0.000000
siesta:     18   -0.104362   -2.425601    0.000000
siesta:     19   -1.271244    2.669916    0.000000
siesta:     20   15.935030    2.243767    0.000000
siesta:     21   15.040801 -400.361071    0.000000
siesta:     22  -15.947213    2.470093    0.000000
siesta:     23  -15.495669 -398.701047    0.000000
siesta:     24    0.756472  104.453983    0.000000
siesta:     25   -0.629862  545.759620    0.000000
siesta:     26   -0.483931 -132.226687    0.000000
siesta:     27    2.856873  127.768621    0.000000
siesta:     28  -24.306353 -555.532823    0.000000
siesta:     29   -2.903199  122.638650    0.000000
siesta:     30   17.188608 -404.525130    0.000000
siesta:     31   24.973407    0.164995    0.000000
siesta:     32   31.824449 -552.816699    0.000000
siesta:     33    6.634790    2.514060    0.000000
siesta:     34   -2.471014    2.131759    0.000000
siesta:     35   -3.672486    3.355934    0.000000
siesta:     36  -24.294533    0.126866    0.000000
siesta:     37  -30.478465 -550.655515    0.000000
siesta:     38   17.219809  408.566325    0.000000
siesta:     39   -3.097351 -122.536851    0.000000
siesta:     40   31.461503  552.856653    0.000000
siesta:     41   24.779896   -0.134388    0.000000
siesta:     42   -2.397162   -1.992371    0.000000
siesta:     43    5.475974   -2.490686    0.000000
siesta:     44   -1.350169    0.669654    0.000000
siesta:     45    6.283578   -3.960147    0.000000
siesta:     46    0.524667    6.562527    0.000000
siesta:     47    3.000108   -8.939886    0.000000
siesta:     48  -17.318888  406.163306    0.000000
siesta:     49    3.458783 -124.394560    0.000000
siesta:     50    5.564135  551.328289    0.000000
siesta:     51  -35.319994  550.762003    0.000000
siesta:     52  -26.126984   -4.862890    0.000000
siesta:     53  -13.510752  555.673818    0.000000
siesta:     54  -22.544404   -2.973239    0.000000
siesta:     55   -0.975260    1.167911    0.000000
siesta:     56   -3.091113    0.616915    0.000000
siesta:     57    2.970411   -2.115306    0.000000
siesta:     58   -3.151712   -1.253224    0.000000
siesta:     59    1.783308    1.638337    0.000000
siesta:     60   -0.072649   -3.320274    0.000000
siesta:     61    3.424561   -3.335192    0.000000
siesta:     62   -2.664907    7.971775    0.000000
siesta:     63    0.070684   -5.845525    0.000000
siesta:     64   -6.120065    3.941229    0.000000
siesta:     65    1.610910    0.097804    0.000000
siesta:     66    2.499399   -0.032279    0.000000
siesta:     67    1.453564 -554.730664    0.000000
siesta:     68   -6.962206    2.893618    0.000000
siesta:     69    2.445184    1.371876    0.000000
siesta:     70   -5.479412 -550.584124    0.000000
siesta:     71    8.139221  126.586151    0.000000
siesta:     72   -3.090333 -409.296384    0.000000
siesta: ----------------------------------------
siesta:    Tot   -0.086426    0.093109    0.000000

siesta: Stress tensor (static) (eV/Ang**3):
siesta:    -0.493992   -0.004007    0.000000
siesta:    -0.004007   -1.660579    0.000000
siesta:     0.000000    0.000000   -0.000465

siesta: Cell volume =       1893.226884 Ang**3

siesta: Pressure (static):
siesta:                Solid            Molecule  Units
siesta:           0.00782370          0.11038903  Ry/Bohr**3
siesta:           0.71834510         10.13554557  eV/Ang**3
siesta:        1150.92816811      16239.10981406  kBar
(Free)E+ p_basis*V_orbitals  =       -8996.687766
(Free)Eharris+ p_basis*V_orbitals  =       -8996.691200

siesta: Electric dipole (a.u.)  =    0.000000    0.000000    0.000000
siesta: Electric dipole (Debye) =    0.000000    0.000000    0.000000

* Maximum dynamic memory allocated : Node    0 =   242 MB
* Maximum dynamic memory allocated : Node    1 =    83 MB
* Maximum dynamic memory allocated : Node    2 =    86 MB
* Maximum dynamic memory allocated : Node    3 =   231 MB
* Maximum dynamic memory allocated : Node    4 =   235 MB
* Maximum dynamic memory allocated : Node    5 =    85 MB
* Maximum dynamic memory allocated : Node    6 =    88 MB
* Maximum dynamic memory allocated : Node    7 =   214 MB

* Maximum memory occured during matrixMtoO                    

timer: CPU execution times:
timer:  Routine       Calls   Time/call    Tot.time        %
timer:  siesta            1  162244.302  162244.302   100.00
timer:  Setup             1       3.042       3.042     0.00
timer:  bands             3     269.308     807.923     0.50
timer:  writewave         1       0.018       0.018     0.00
timer:  KSV_init          1       0.000       0.000     0.00
timer:  IterMD            1  161427.462  161427.462    99.50
timer:  hsparse           1       0.394       0.394     0.00
timer:  overlap           1       7.797       7.797     0.00
timer:  IterSCF          37    4356.594  161193.963    99.35
timer:  kinefsm           2       4.044       8.088     0.00
timer:  nlefsm            2      21.429      42.857     0.03
timer:  DHSCF            38     125.012    4750.438     2.93
timer:  DHSCF1            1       0.993       0.993     0.00
timer:  DHSCF2            1      45.906      45.906     0.03
timer:  REORD           306       0.010       3.062     0.00
timer:  POISON           39       2.247      87.627     0.05
timer:  DHSCF3           38     122.542    4656.579     2.87
timer:  rhoofd           38      26.872    1021.153     0.63
timer:  cellXC           38       3.488     132.554     0.08
timer:  vmat             38      59.974    2279.019     1.40
timer:  MolMec            2       0.000       0.000     0.00
timer:  diagon           37    4230.496  156528.358    96.48
timer:  c-eigval       8668       6.679   57889.387    35.68
timer:  c-buildHS      8668       0.123    1062.327     0.65
timer:  cdiag         17215       6.867  118217.294    72.86
timer:  cdiag1        17215       0.429    7387.112     4.55
timer:  cdiag2        17215       1.909   32859.242    20.25
timer:  cdiag3        17215       3.940   67828.595    41.81
timer:  cdiag4        17215       0.226    3884.805     2.39
timer:  c-eigvec       8547       7.253   61990.060    38.21
timer:  c-buildD       8547       4.377   37409.488    23.06
timer:  DHSCF4            1      44.965      44.965     0.03
timer:  dfscf             1      42.256      42.256     0.03
timer:  overfsm           1       0.488       0.488     0.00
timer:  optical           1       5.123       5.123     0.00
  

elaps: ELAPSED times:
elaps:  Routine       Calls   Time/call    Tot.time        %
elaps:  siesta            1   20302.993   20302.993   100.00
elaps:  Setup             1       0.381       0.381     0.00
elaps:  bands             3      33.715     101.145     0.50
elaps:  writewave         1       0.002       0.002     0.00
elaps:  KSV_init          1       0.000       0.000     0.00
elaps:  IterMD            1   20200.791   20200.791    99.50
elaps:  hsparse           1       0.050       0.050     0.00
elaps:  overlap           1       0.975       0.975     0.00
elaps:  IterSCF          37     545.178   20171.588    99.35
elaps:  kinefsm           2       0.505       1.011     0.00
elaps:  nlefsm            2       2.688       5.376     0.03
elaps:  DHSCF            38      15.780     599.622     2.95
elaps:  DHSCF1            1       0.127       0.127     0.00
elaps:  DHSCF2            1       5.743       5.743     0.03
elaps:  REORD           306       0.001       0.396     0.00
elaps:  POISON           39       0.282      10.983     0.05
elaps:  DHSCF3           38      15.330     582.554     2.87
elaps:  rhoofd           38       6.992     265.707     1.31
elaps:  cellXC           38       0.435      16.547     0.08
elaps:  vmat             38       7.503     285.100     1.40
elaps:  MolMec            2       0.000       0.000     0.00
elaps:  diagon           37     529.416   19588.384    96.48
elaps:  c-eigval       8668       0.836    7242.960    35.67
elaps:  c-buildHS      8668       0.017     144.099     0.71
elaps:  cdiag         17215       0.852   14660.092    72.21
elaps:  cdiag1        17215       0.053     918.460     4.52
elaps:  cdiag2        17215       0.239    4111.386    20.25
elaps:  cdiag3        17215       0.494    8498.227    41.86
elaps:  cdiag4        17215       0.029     493.288     2.43
elaps:  c-eigvec       8547       0.896    7661.588    37.74
elaps:  c-buildD       8547       0.559    4777.904    23.53
elaps:  DHSCF4            1      10.926      10.926     0.05
elaps:  dfscf             1      10.395      10.395     0.05
elaps:  overfsm           1       0.058       0.058     0.00
elaps:  optical           1       0.000       0.000     0.00
  
>> End of run:  23-APR-2016  21:09:29
