Siesta Version:                                        siesta-3.2-pl-3
Architecture  : x86_64-unknown-linux-gnu--unknown
Compiler flags: mpiifort -g -O2 -fPIC -xSSE4.1 -fp-model source -shared-intel 
PARALLEL version

* Running on    8 nodes in parallel
>> Start of run:  28-APR-2016  20:22:10

                           ***********************       
                           *  WELCOME TO SIESTA  *       
                           ***********************       

reinit: Reading from standard input
************************** Dump of input data file ****************************
#(1) General system descriptors
SystemName            GRP_doping    # Descriptive name of the system
SystemLabel           GRP_doping    # Short name for naming files
%include STRUCT.fdf
%include KPT.fdf
%include BASIS.fdf
#%include TS.fdf # for transiesta calculation
#(4) DFT, Grid, SCF
XC.functional         GGA           # LDA or GGA (default = LDA)
XC.authors            PBE           # CA (Ceperley-Aldr) = PZ
                                    #    (Perdew-Zunger) - LDA - Default
                                    # PW92 (Perdew-Wang-92) - LDA
                                    # PBE (Perdew-Burke-Ernzerhof) - GGA
MeshCutoff            200.000000    Ry      # Default: 50.0 Ry ~ 0.444 Bohr
                                    #         100.0 Ry ~ 0.314 Bohr
MaxSCFIterations      500           # Default: 50
DM.MixingWeight       0.05          # Default: 0.25
DM.NumberPulay        10            # Default: 0
DM.PulayOnFile        F             # SystemLabel.P1, SystemLabel.P2
DM.Tolerance          1.d-4         # Default: 1.d-4
DM.UseSaveDM          .true.        # because of the bug
SCFMustConverge       .true.
NeglNonOverlapInt     F             # Default: F
#(5) Eigenvalue problem: order-N or diagonalization
SolutionMethod        Diagon        # or Transiesta
ElectronicTemperature 300.0 K       # Default: 300.0 K
#(6) Molecular dynamics and relaxations
#MD.TypeOfRun          CG            # Type of dynamics:
#MD.VariableCell       F
#MD.NumCGsteps         0           # 0 for single-point / 100 for gopt
#MD.MaxCGDispl         0.2 Bohr      # Default: 0.2 Bohr
#MD.MaxForceTol        0.02 eV/Ang   # Default: 0.04 eV/Ang
#MD.MaxStressTol       1.0 GPa       # Default: 1.0 GPa
# Geometry Constraints
#%block GeometryConstraints
#	position from 1 to 44
#%endblock GeometryConstraints
BandLinesScale   pi/a
%block BandLines
 1   0.00000000  0.00000000  0.00000000
50   0.00000000  0.07809418  0.00000000
50   0.04509075  0.07809242  0.00000000
20   0.00000000  0.00000000  0.00000000
%endblock BandLines
************************** End of input data file *****************************

reinit: -----------------------------------------------------------------------
reinit: System Name: GRP_doping
reinit: -----------------------------------------------------------------------
reinit: System Label: GRP_doping                                                  
reinit: -----------------------------------------------------------------------

initatom: Reading input for the pseudopotentials and atomic orbitals ----------
 Species number:            1  Label: N Atomic number:           7
 Species number:            2  Label: C Atomic number:           6
Ground state valence configuration:   2s02  2p03
Reading pseudopotential information in formatted form from N.psf

Valence configuration for pseudopotential generation:
2s( 2.00) rc: 1.48
2p( 3.00) rc: 1.48
3d( 0.00) rc: 1.48
4f( 0.00) rc: 1.48
Ground state valence configuration:   2s02  2p02
Reading pseudopotential information in formatted form from C.psf

Valence configuration for pseudopotential generation:
2s( 2.00) rc: 1.54
2p( 2.00) rc: 1.54
3d( 0.00) rc: 1.54
4f( 0.00) rc: 1.54
For N, standard SIESTA heuristics set lmxkb to 3
 (one more than the basis l, including polarization orbitals).
Use PS.lmax or PS.KBprojectors blocks to override.
For C, standard SIESTA heuristics set lmxkb to 3
 (one more than the basis l, including polarization orbitals).
Use PS.lmax or PS.KBprojectors blocks to override.

<basis_specs>
===============================================================================
N                    Z=   7    Mass=  14.010        Charge= 0.17977+309
Lmxo=1 Lmxkb= 3    BasisType=split      Semic=F
L=0  Nsemic=0  Cnfigmx=2
          n=1  nzeta=2  polorb=0
            splnorm:   0.15000    
               vcte:    0.0000    
               rinn:    0.0000    
                rcs:    0.0000      0.0000    
            lambdas:    1.0000      1.0000    
L=1  Nsemic=0  Cnfigmx=2
          n=1  nzeta=2  polorb=1
            splnorm:   0.15000    
               vcte:    0.0000    
               rinn:    0.0000    
                rcs:    0.0000      0.0000    
            lambdas:    1.0000      1.0000    
-------------------------------------------------------------------------------
L=0  Nkbl=1  erefs: 0.17977+309
L=1  Nkbl=1  erefs: 0.17977+309
L=2  Nkbl=1  erefs: 0.17977+309
L=3  Nkbl=1  erefs: 0.17977+309
===============================================================================
</basis_specs>

atom: Called for N                     (Z =   7)

read_vps: Pseudopotential generation method:
read_vps: ATM3      Troullier-Martins                       
Total valence charge:    5.00000

read_vps: Pseudopotential includes a core correction:
read_vps: Pseudo-core for xc-correction

xc_check: Exchange-correlation functional:
xc_check: GGA Perdew, Burke & Ernzerhof 1996
V l=0 = -2*Zval/r beyond r=  1.4606
V l=1 = -2*Zval/r beyond r=  1.4606
V l=2 = -2*Zval/r beyond r=  1.4606
V l=3 = -2*Zval/r beyond r=  1.4606
All V_l potentials equal beyond r=  1.4606
This should be close to max(r_c) in ps generation
All pots = -2*Zval/r beyond r=  1.4606

VLOCAL1: 99.0% of the norm of Vloc inside     20.347 Ry
VLOCAL1: 99.9% of the norm of Vloc inside     46.372 Ry
atom: Maximum radius for 4*pi*r*r*local-pseudopot. charge    1.76189
atom: Maximum radius for r*vlocal+2*Zval:    1.53550
GHOST: No ghost state for L =  0
GHOST: No ghost state for L =  1
GHOST: No ghost state for L =  2
GHOST: No ghost state for L =  3

KBgen: Kleinman-Bylander projectors: 
   l= 0   rc=  1.634559   el= -1.363963   Ekb=  5.296955   kbcos=  0.335621
   l= 1   rc=  1.614250   el= -0.521451   Ekb= -5.259161   kbcos= -0.433408
   l= 2   rc=  1.718383   el=  0.001991   Ekb= -1.271464   kbcos= -0.007566
   l= 3   rc=  1.761893   el=  0.003093   Ekb= -0.494769   kbcos= -0.001015

KBgen: Total number of  Kleinman-Bylander projectors:   16
atom: -------------------------------------------------------------------------

atom: SANKEY-TYPE ORBITALS:
atom: Selected multiple-zeta basis: split     

SPLIT: Orbitals with angular momentum L= 0

SPLIT: Basis orbitals for state 2s

SPLIT: PAO cut-off radius determined from an
SPLIT: energy shift=  0.007350 Ry

   izeta = 1
                 lambda =    1.000000
                     rc =    4.071465
                 energy =   -1.356470
                kinetic =    1.176977
    potential(screened) =   -2.533447
       potential(ionic) =   -8.057990

   izeta = 2
                 rmatch =    2.905100
              splitnorm =    0.150000
                 energy =   -1.158343
                kinetic =    1.813009
    potential(screened) =   -2.971352
       potential(ionic) =   -8.901931

SPLIT: Orbitals with angular momentum L= 1

SPLIT: Basis orbitals for state 2p

SPLIT: PAO cut-off radius determined from an
SPLIT: energy shift=  0.007350 Ry

   izeta = 1
                 lambda =    1.000000
                     rc =    4.972977
                 energy =   -0.513884
                kinetic =    3.441732
    potential(screened) =   -3.955616
       potential(ionic) =   -9.287901

   izeta = 2
                 rmatch =    3.054066
              splitnorm =    0.150000
                 energy =   -0.318226
                kinetic =    5.125348
    potential(screened) =   -5.443573
       potential(ionic) =  -11.380999

POLgen: Perturbative polarization orbital with L=  2

POLgen: Polarization orbital for state 2p

   izeta = 1
                     rc =    4.972977
                 energy =    1.607437
                kinetic =    3.268125
    potential(screened) =   -1.660688
       potential(ionic) =   -5.973652
atom: Total number of Sankey-type orbitals: 13

atm_pop: Valence configuration (for local Pseudopot. screening):
 2s( 2.00)                                                            
 2p( 3.00)                                                            
Vna: chval, zval:    5.00000   5.00000

Vna:  Cut-off radius for the neutral-atom potential:   4.972977
comcore: Pseudo-core radius Rcore=  1.554824

atom: _________________________________________________________________________

<basis_specs>
===============================================================================
C                    Z=   6    Mass=  12.010        Charge= 0.17977+309
Lmxo=1 Lmxkb= 3    BasisType=split      Semic=F
L=0  Nsemic=0  Cnfigmx=2
          n=1  nzeta=2  polorb=0
            splnorm:   0.15000    
               vcte:    0.0000    
               rinn:    0.0000    
                rcs:    0.0000      0.0000    
            lambdas:    1.0000      1.0000    
L=1  Nsemic=0  Cnfigmx=2
          n=1  nzeta=2  polorb=1
            splnorm:   0.15000    
               vcte:    0.0000    
               rinn:    0.0000    
                rcs:    0.0000      0.0000    
            lambdas:    1.0000      1.0000    
-------------------------------------------------------------------------------
L=0  Nkbl=1  erefs: 0.17977+309
L=1  Nkbl=1  erefs: 0.17977+309
L=2  Nkbl=1  erefs: 0.17977+309
L=3  Nkbl=1  erefs: 0.17977+309
===============================================================================
</basis_specs>

atom: Called for C                     (Z =   6)

read_vps: Pseudopotential generation method:
read_vps: ATM3      Troullier-Martins                       
Total valence charge:    4.00000

read_vps: Pseudopotential includes a core correction:
read_vps: Pseudo-core for xc-correction

xc_check: Exchange-correlation functional:
xc_check: GGA Perdew, Burke & Ernzerhof 1996
V l=0 = -2*Zval/r beyond r=  1.5227
V l=1 = -2*Zval/r beyond r=  1.5227
V l=2 = -2*Zval/r beyond r=  1.5227
V l=3 = -2*Zval/r beyond r=  1.5038
All V_l potentials equal beyond r=  1.5227
This should be close to max(r_c) in ps generation
All pots = -2*Zval/r beyond r=  1.5227

VLOCAL1: 99.0% of the norm of Vloc inside     18.722 Ry
VLOCAL1: 99.9% of the norm of Vloc inside     42.668 Ry
atom: Maximum radius for 4*pi*r*r*local-pseudopot. charge    1.83678
atom: Maximum radius for r*vlocal+2*Zval:    1.58088
GHOST: No ghost state for L =  0
GHOST: No ghost state for L =  1
GHOST: No ghost state for L =  2
GHOST: No ghost state for L =  3

KBgen: Kleinman-Bylander projectors: 
   l= 0   rc=  1.704034   el= -1.009801   Ekb=  5.335044   kbcos=  0.316824
   l= 1   rc=  1.704034   el= -0.388707   Ekb= -3.785862   kbcos= -0.366464
   l= 2   rc=  1.791422   el=  0.001971   Ekb= -0.970471   kbcos= -0.009212
   l= 3   rc=  1.859892   el=  0.003065   Ekb= -0.399525   kbcos= -0.001223

KBgen: Total number of  Kleinman-Bylander projectors:   16
atom: -------------------------------------------------------------------------

atom: SANKEY-TYPE ORBITALS:
atom: Selected multiple-zeta basis: split     

SPLIT: Orbitals with angular momentum L= 0

SPLIT: Basis orbitals for state 2s

SPLIT: PAO cut-off radius determined from an
SPLIT: energy shift=  0.007350 Ry

   izeta = 1
                 lambda =    1.000000
                     rc =    4.632753
                 energy =   -1.002270
                kinetic =    0.855760
    potential(screened) =   -1.858031
       potential(ionic) =   -5.417575

   izeta = 2
                 rmatch =    3.431921
              splitnorm =    0.150000
                 energy =   -0.867111
                kinetic =    1.300804
    potential(screened) =   -2.167915
       potential(ionic) =   -5.962684

SPLIT: Orbitals with angular momentum L= 1

SPLIT: Basis orbitals for state 2p

SPLIT: PAO cut-off radius determined from an
SPLIT: energy shift=  0.007350 Ry

   izeta = 1
                 lambda =    1.000000
                     rc =    5.658549
                 energy =   -0.381140
                kinetic =    2.399701
    potential(screened) =   -2.780841
       potential(ionic) =   -6.206085

   izeta = 2
                 rmatch =    3.653288
              splitnorm =    0.150000
                 energy =   -0.249149
                kinetic =    3.542762
    potential(screened) =   -3.791911
       potential(ionic) =   -7.581078

POLgen: Perturbative polarization orbital with L=  2

POLgen: Polarization orbital for state 2p

   izeta = 1
                     rc =    5.658549
                 energy =    1.109913
                kinetic =    2.304789
    potential(screened) =   -1.194876
       potential(ionic) =   -4.013592
atom: Total number of Sankey-type orbitals: 13

atm_pop: Valence configuration (for local Pseudopot. screening):
 2s( 2.00)                                                            
 2p( 2.00)                                                            
Vna: chval, zval:    4.00000   4.00000

Vna:  Cut-off radius for the neutral-atom potential:   5.658549
comcore: Pseudo-core radius Rcore=  1.791422

atom: _________________________________________________________________________

prinput: Basis input ----------------------------------------------------------

PAO.BasisType split     

%block ChemicalSpeciesLabel
    1    7 N                       # Species index, atomic number, species label
    2    6 C                       # Species index, atomic number, species label
%endblock ChemicalSpeciesLabel

%block PAO.Basis                 # Define Basis set
N                     2                    # Species label, number of l-shells
 n=2   0   2                         # n, l, Nzeta 
   4.071      2.905   
   1.000      1.000   
 n=2   1   2 P   1                   # n, l, Nzeta, Polarization, NzetaPol
   4.973      3.054   
   1.000      1.000   
C                     2                    # Species label, number of l-shells
 n=2   0   2                         # n, l, Nzeta 
   4.633      3.432   
   1.000      1.000   
 n=2   1   2 P   1                   # n, l, Nzeta, Polarization, NzetaPol
   5.659      3.653   
   1.000      1.000   
%endblock PAO.Basis

prinput: ----------------------------------------------------------------------

coor:   Atomic-coordinates input format  =     Fractional

siesta: Atomic coordinates (Bohr) and species
siesta:     -0.02582   5.28395   0.00000  1        1
siesta:      2.30256   6.62836   0.00000  1        2
siesta:      2.30256   9.31683   0.00000  1        3
siesta:     -2.35420   6.62836   0.00000  1        4
siesta:     -2.35420   9.31683   0.00000  1        5
siesta:     -0.02582  10.66124   0.00000  1        6
siesta:     -0.02582  21.41544   0.00000  1        7
siesta:      2.30256  22.75985   0.00000  1        8
siesta:      2.30256  25.44831   0.00000  1        9
siesta:     -2.35420  22.75985   0.00000  1       10
siesta:     -2.35420  25.44831   0.00000  1       11
siesta:     -9.33934  18.72698   0.00000  1       12
siesta:     -9.33934  21.41544   0.00000  1       13
siesta:     -7.01096  22.75985   0.00000  1       14
siesta:     -7.01096  25.44831   0.00000  1       15
siesta:    -11.66772  22.75985   0.00000  1       16
siesta:    -11.66772  25.44831   0.00000  1       17
siesta:     -9.33934  26.79272   0.00000  1       18
siesta:     -9.33934  29.48119   0.00000  1       19
siesta:     -0.02582  26.79272   0.00000  1       20
siesta:     -0.02582   2.59549   0.00000  2       21
siesta:     -2.35420  38.89134   0.00000  2       22
siesta:     -2.35420  41.57980   0.00000  2       23
siesta:      2.30256  38.89134   0.00000  2       24
siesta:      2.30256  41.57980   0.00000  2       25
siesta:      4.63094  34.85847   0.00000  2       26
siesta:      4.63094  37.54693   0.00000  2       27
siesta:      6.95932  30.82560   0.00000  2       28
siesta:      6.95932  33.51406   0.00000  2       29
siesta:      9.28770  26.79272   0.00000  2       30
siesta:      9.28770  29.48119   0.00000  2       31
siesta:     -4.68258  34.85847   0.00000  2       32
siesta:     -4.68258  37.54693   0.00000  2       33
siesta:      4.63094  10.66124   0.00000  2       34
siesta:      4.63094  13.34970   0.00000  2       35
siesta:      6.95932  14.69411   0.00000  2       36
siesta:      6.95932  17.38257   0.00000  2       37
siesta:      9.28770  18.72698   0.00000  2       38
siesta:      9.28770  21.41544   0.00000  2       39
siesta:     11.61608  22.75985   0.00000  2       40
siesta:     11.61608  25.44831   0.00000  2       41
siesta:     -0.02582  13.34970   0.00000  2       42
siesta:      2.30256  14.69411   0.00000  2       43
siesta:      2.30256  17.38257   0.00000  2       44
siesta:      4.63094  18.72698   0.00000  2       45
siesta:      4.63094  21.41544   0.00000  2       46
siesta:      6.95932  22.75985   0.00000  2       47
siesta:      6.95932  25.44831   0.00000  2       48
siesta:     -4.68258  10.66124   0.00000  2       49
siesta:     -4.68258  13.34970   0.00000  2       50
siesta:     -2.35420  14.69411   0.00000  2       51
siesta:     -2.35420  17.38257   0.00000  2       52
siesta:     -0.02582  18.72698   0.00000  2       53
siesta:     -7.01096  14.69411   0.00000  2       54
siesta:     -7.01096  17.38257   0.00000  2       55
siesta:     -4.68258  18.72698   0.00000  2       56
siesta:     -4.68258  21.41544   0.00000  2       57
siesta:      4.63094  26.79272   0.00000  2       58
siesta:      4.63094  29.48119   0.00000  2       59
siesta:     -0.02582  29.48119   0.00000  2       60
siesta:     -4.68258  26.79272   0.00000  2       61
siesta:     -4.68258  29.48119   0.00000  2       62
siesta:      2.30256  30.82560   0.00000  2       63
siesta:      2.30256  33.51406   0.00000  2       64
siesta:     -2.35420  30.82560   0.00000  2       65
siesta:     -2.35420  33.51406   0.00000  2       66
siesta:     -7.01096  30.82560   0.00000  2       67
siesta:     -7.01096  33.51406   0.00000  2       68
siesta:     -0.02582  34.85847   0.00000  2       69
siesta:     -0.02582  37.54693   0.00000  2       70
siesta:     -0.02582  42.92421   0.00000  2       71
siesta:     -0.02582  45.61267   0.00000  2       72

siesta: System type = slab      

initatomlists: Number of atoms, orbitals, and projectors:     72   936  1152

siesta: ******************** Simulation parameters ****************************
siesta:
siesta: The following are some of the parameters of the simulation.
siesta: A complete list of the parameters used, including default values,
siesta: can be found in file out.fdf
siesta:
redata: Non-Collinear-spin run           =     F
redata: SpinPolarized (Up/Down) run      =     F
redata: Number of spin components        =     1
redata: Long output                      =     F
redata: Number of Atomic Species         =        2
redata: Charge density info will appear in .RHO file
redata: Write Mulliken Pop.              =     NO
redata: Mesh Cutoff                      =   200.0000  Ry
redata: Net charge of the system         =     0.0000 |e|
redata: Max. number of SCF Iter          =      500
redata: SCF convergence failure will abort job
redata: Performing Pulay mixing using    =    10 iterations
redata: Mix DM in first SCF step ?       =     F
redata: Write Pulay info on disk?        =     F
redata: Discard 1st Pulay DM after  kick =     F
redata: New DM Mixing Weight             =     0.0500
redata: New DM Occupancy tolerance       = 0.000000000001
redata: No kicks to SCF
redata: DM Mixing Weight for Kicks       =     0.5000
redata: DM Tolerance for SCF             =     0.000100
redata: Require Energy convergence for SCF =     F
redata: DM Energy tolerance for SCF      =     0.000100 eV
redata: Require Harris convergence for SCF =     F
redata: DM Harris energy tolerance for SCF =     0.000100 eV
redata: Using Saved Data (generic)   =     F
redata: Use continuation files for DM    =     T
redata: Neglect nonoverlap interactions  =     F
redata: Method of Calculation            =     Diagonalization
redata: Divide and Conquer               =     T
redata: Electronic Temperature           =     0.0019  Ry
redata: Fix the spin of the system       =     F
redata: Dynamics option                  =     Verlet MD run
redata: Initial MD time step             =        1
redata:   Final MD time step             =        1
redata: Length of MD time step           =     1.0000  fs
redata: Initial Temperature of MD run    =     0.0000  K
redata: Perform a MD quench              =     F
redata: ***********************************************************************
Total number of electrons:   308.000000
Total ionic charge:   308.000000

* ProcessorY, Blocksize:    2  24

k-point displ. along   1 input, could be:     0.50    0.00
k-point displ. along   2 input, could be:     0.50    0.00
 Kpoints in:          231 . Kpoints trimmed:          231

siesta: k-grid: Number of k-points =   231
siesta: k-grid: Cutoff (effective) =     5.000 Ang
siesta: k-grid: Supercell and displacements
siesta: k-grid:   21   0   0      0.500
siesta: k-grid:    0  21   0      0.500
siesta: k-grid:    0   0   1      0.000
Naive supercell factors:     2    2    2

superc: Internal auxiliary supercell:     2 x     2 x     2  =       8
superc: Number of atoms, orbitals, and projectors:    576   7488   9216

* Maximum dynamic memory allocated =     4 MB

siesta:                 ==============================
                            Begin MD step =      1
                        ==============================

superc: Internal auxiliary supercell:     2 x     2 x     2  =       8
superc: Number of atoms, orbitals, and projectors:    576   7488   9216

outcell: Unit cell vectors (Ang):
       12.804619    7.392750    0.000000
        0.000000   14.785500    0.000000
        0.000000    0.000000   10.000000

outcell: Cell vector modules (Ang)   :   14.785500   14.785500   10.000000
outcell: Cell angles (23,13,12) (deg):     90.0000     90.0000     60.0000
outcell: Cell volume (Ang**3)        :   1893.2269
New_DM. Step:     1
Initializing Density Matrix...

InitMesh: MESH =   120 x   120 x    90 =     1296000
InitMesh: Mesh cutoff (required, used) =   200.000   223.865 Ry

* Maximum dynamic memory allocated =   181 MB

stepf: Fermi-Dirac step function

siesta: Program's energy decomposition (eV):
siesta: Ebs     =     -6253.439619
siesta: Eions   =     21617.947954
siesta: Ena     =      4921.437926
siesta: Ekin    =      8056.630787
siesta: Enl     =        49.281162
siesta: DEna    =        -0.000015
siesta: DUscf   =         0.000000
siesta: DUext   =         0.000000
siesta: Exc     =     -4671.563522
siesta: eta*DQ  =         0.000000
siesta: Emadel  =         0.000000
siesta: Emeta   =         0.000000
siesta: Emolmec =         0.000000
siesta: Ekinion =         0.000000
siesta: Eharris =    -12887.884948
siesta: Etot    =    -13262.161616
siesta: FreeEng =    -13262.161616

siesta: iscf   Eharris(eV)      E_KS(eV)   FreeEng(eV)   dDmax  Ef(eV)
siesta:    1   -12887.8849   -13262.1616   -13262.1616  5.7009 -6.8207
timer: Routine,Calls,Time,% = IterSCF        1    3370.025  99.70
elaps: Routine,Calls,Wall,% = IterSCF        1     422.072  99.70
siesta:    2   -17853.0922   -12223.6523   -12223.6649 19.9976 -4.1670
siesta:    3   -12791.5888   -13099.0490   -13099.0656  3.2946 -5.3865
siesta:    4   -12782.7841   -12903.9798   -12903.9848  1.1139 -4.1494
siesta:    5   -12741.3229   -12851.8843   -12851.9364  0.9883 -3.8468
siesta:    6   -12733.7545   -12808.2942   -12808.3414  0.9064 -3.7590
siesta:    7   -12731.1924   -12786.4316   -12786.4786  0.8295 -3.9975
siesta:    8   -12730.1199   -12778.4173   -12778.4978  0.7814 -4.0566
siesta:    9   -12729.8043   -12768.8503   -12768.9069  0.7060 -4.1182
siesta:   10   -12727.6480   -12750.0446   -12750.0757  0.5603 -4.0237
siesta:   11   -12727.6878   -12735.5209   -12735.5799  0.4512 -4.0345
siesta:   12   -12728.0605   -12716.5624   -12716.6367  0.5705 -3.7452
siesta:   13   -12728.2025   -12708.7664   -12708.7967  0.4232 -3.8842
siesta:   14   -12727.5828   -12708.7881   -12708.8244  0.2883 -3.8807
siesta:   15   -12726.8176   -12709.4915   -12709.5426  0.1974 -4.0003
siesta:   16   -12726.5368   -12711.5665   -12711.6373  0.2050 -3.9661
siesta:   17   -12726.2943   -12716.0634   -12716.1313  0.2119 -3.9596
siesta:   18   -12726.3084   -12718.6982   -12718.7666  0.2245 -3.9303
siesta:   19   -12726.2311   -12719.7031   -12719.7617  0.1622 -3.9465
siesta:   20   -12726.1921   -12720.3522   -12720.4178  0.1730 -3.9504
siesta:   21   -12726.1776   -12722.8234   -12722.8928  0.0596 -3.9425
siesta:   22   -12726.1747   -12723.8991   -12723.9700  0.0337 -3.9407
siesta:   23   -12726.1656   -12724.7902   -12724.8607  0.0479 -3.9470
siesta:   24   -12726.1623   -12725.8705   -12725.9434  0.0365 -3.9529
siesta:   25   -12726.1580   -12725.9911   -12726.0634  0.0231 -3.9589
siesta:   26   -12726.1594   -12726.3486   -12726.4221  0.0566 -3.9545
siesta:   27   -12726.1561   -12726.4850   -12726.5568  0.0150 -3.9525
siesta:   28   -12726.1559   -12726.5164   -12726.5894  0.0301 -3.9509
siesta:   29   -12726.1556   -12726.4813   -12726.5545  0.0103 -3.9499
siesta:   30   -12726.1556   -12726.3909   -12726.4638  0.0048 -3.9497
siesta:   31   -12726.1557   -12726.3314   -12726.4041  0.0034 -3.9497
siesta:   32   -12726.1556   -12726.2312   -12726.3038  0.0017 -3.9496
siesta:   33   -12726.1556   -12726.2340   -12726.3065  0.0012 -3.9493
siesta:   34   -12726.1556   -12726.2425   -12726.3151  0.0013 -3.9494
siesta:   35   -12726.1556   -12726.2159   -12726.2885  0.0006 -3.9494
siesta:   36   -12726.1556   -12726.2007   -12726.2733  0.0005 -3.9495
siesta:   37   -12726.1556   -12726.1762   -12726.2488  0.0004 -3.9494
siesta:   38   -12726.1556   -12726.1595   -12726.2320  0.0002 -3.9494
siesta:   39   -12726.1556   -12726.1603   -12726.2328  0.0002 -3.9494
siesta:   40   -12726.1556   -12726.1547   -12726.2272  0.0004 -3.9493
siesta:   41   -12726.1556   -12726.1555   -12726.2280  0.0002 -3.9493
siesta:   42   -12726.1556   -12726.1571   -12726.2296  0.0001 -3.9494

siesta: E_KS(eV) =           -12726.1556

siesta: E_KS - E_eggbox =    -12726.1556

siesta: Atomic forces (eV/Ang):
----------------------------------------
   Tot   -0.219182   -0.338030    0.000000
----------------------------------------
   Max  682.752505
   Res  173.486722    sqrt( Sum f_i^2 / 3N )
----------------------------------------
   Max  682.752505    constrained

Stress-tensor-Voigt (kbar):     -606.67    -3123.89       -0.05        0.64        0.00        0.00
(Free)E + p*V (eV/cell)   -11256.8107
Target enthalpy (eV/cell)   -12726.2281

siesta: Stress tensor (static) (eV/Ang**3):
        -0.378647    0.000400    0.000000
         0.000400   -1.949755    0.000000
         0.000000    0.000000   -0.000031

siesta: Pressure (static):       1243.53385271  kBar

siesta: Stress tensor (total) (eV/Ang**3):
        -0.378647    0.000400    0.000000
         0.000400   -1.949755    0.000000
         0.000000    0.000000   -0.000031

siesta: Pressure (total):       1243.53385271  kBar

siesta: Temp_ion =       0.000 K

* Maximum dynamic memory allocated =   198 MB
Computing bands...

siesta: Program's energy decomposition (eV):
siesta: Ebs     =     -5054.161972
siesta: Eions   =     21617.947954
siesta: Ena     =      4921.437926
siesta: Ekin    =     11135.801375
siesta: Enl     =     -1650.673410
siesta: DEna    =      -779.789140
siesta: DUscf   =       108.529447
siesta: DUext   =         0.000000
siesta: Exc     =     -4843.513830
siesta: eta*DQ  =         0.000000
siesta: Emadel  =         0.000000
siesta: Emeta   =         0.000000
siesta: Emolmec =         0.000000
siesta: Ekinion =         0.000000
siesta: Eharris =    -12726.155626
siesta: Etot    =    -12726.155586
siesta: FreeEng =    -12726.228120

siesta: Final energy (eV):
siesta:  Band Struct. =   -5054.161972
siesta:       Kinetic =   11135.801375
siesta:       Hartree =   35765.269398
siesta:    Ext. field =       0.000000
siesta:   Exch.-corr. =   -4843.513830
siesta:  Ion-electron =  -82211.412194
siesta:       Ion-ion =   27427.699665
siesta:       Ekinion =       0.000000
siesta:         Total =  -12726.155586

siesta: Atomic forces (eV/Ang):
siesta:      1   -0.593079 -122.425309    0.000000
siesta:      2   21.938329  656.922437    0.000000
siesta:      3    2.301648 -106.490952    0.000000
siesta:      4  -23.430290  657.319851    0.000000
siesta:      5   -2.371769 -106.561140    0.000000
siesta:      6   -0.079607  668.007795    0.000000
siesta:      7   -0.028977   -0.980703    0.000000
siesta:      8    0.497840   -0.308907    0.000000
siesta:      9    0.407258    0.255038    0.000000
siesta:     10   -1.091075   -0.076143    0.000000
siesta:     11   -1.009283    0.085663    0.000000
siesta:     12    0.731418    1.510156    0.000000
siesta:     13   -0.973884   -1.454091    0.000000
siesta:     14    1.342284    0.540151    0.000000
siesta:     15    1.350801   -0.621897    0.000000
siesta:     16    2.014372    1.238197    0.000000
siesta:     17    1.993777   -1.215088    0.000000
siesta:     18   -0.958542    1.419050    0.000000
siesta:     19    0.750847   -1.477700    0.000000
siesta:     20   -0.043700    0.848387    0.000000
siesta:     21   -0.725172  540.933285    0.000000
siesta:     22   -1.425829  122.303235    0.000000
siesta:     23   -6.279206 -548.551226    0.000000
siesta:     24    1.103802  122.095047    0.000000
siesta:     25    5.738617 -548.207722    0.000000
siesta:     26   26.443518    3.615287    0.000000
siesta:     27   17.086291 -552.073975    0.000000
siesta:     28    2.429491   -0.226009    0.000000
siesta:     29   -3.268665    1.281972    0.000000
siesta:     30    1.944350    2.388007    0.000000
siesta:     31   -1.702109    0.098775    0.000000
siesta:     32  -26.412708    4.018942    0.000000
siesta:     33  -16.771979 -552.555157    0.000000
siesta:     34   32.057771  558.010571    0.000000
siesta:     35   27.792456   -3.157909    0.000000
siesta:     36   -2.608733   -1.290576    0.000000
siesta:     37    2.570632    0.051543    0.000000
siesta:     38   -1.753220   -0.132707    0.000000
siesta:     39    1.875781   -2.319748    0.000000
siesta:     40   -0.172268    7.480909    0.000000
siesta:     41   -0.238919   -7.503925    0.000000
siesta:     42   -0.031401 -119.395740    0.000000
siesta:     43   27.815568  557.818730    0.000000
siesta:     44   21.712812   -5.253993    0.000000
siesta:     45   -2.207140    3.286202    0.000000
siesta:     46   -0.551668   -0.791500    0.000000
siesta:     47   -0.295229    0.897265    0.000000
siesta:     48   -0.409654   -1.055737    0.000000
siesta:     49  -32.165807  558.629044    0.000000
siesta:     50  -28.118458   -4.105777    0.000000
siesta:     51  -26.217836  558.890817    0.000000
siesta:     52  -21.708263   -5.507050    0.000000
siesta:     53    0.371932  566.808462    0.000000
siesta:     54    1.436163   -0.073562    0.000000
siesta:     55   -2.115893    0.953766    0.000000
siesta:     56    1.471140    4.049843    0.000000
siesta:     57   -0.091404   -0.442065    0.000000
siesta:     58   -0.280582    0.701102    0.000000
siesta:     59   -2.291517   -3.699495    0.000000
siesta:     60    0.677159 -570.384840    0.000000
siesta:     61   -0.234509    0.325991    0.000000
siesta:     62    1.931198   -4.234353    0.000000
siesta:     63   23.864190    3.123395    0.000000
siesta:     64    4.112347 -682.125755    0.000000
siesta:     65  -23.869741    3.234097    0.000000
siesta:     66   -2.624054 -682.752505    0.000000
siesta:     67   -2.208083   -1.275676    0.000000
siesta:     68    2.138582    0.178312    0.000000
siesta:     69    0.211555  115.319409    0.000000
siesta:     70    0.003145 -666.927750    0.000000
siesta:     71   -0.225962  124.661127    0.000000
siesta:     72   -0.750042 -543.983211    0.000000
siesta: ----------------------------------------
siesta:    Tot   -0.219182   -0.338030    0.000000

siesta: Stress tensor (static) (eV/Ang**3):
siesta:    -0.378647    0.000400    0.000000
siesta:     0.000400   -1.949755    0.000000
siesta:     0.000000    0.000000   -0.000031

siesta: Cell volume =       1893.226884 Ang**3

siesta: Pressure (static):
siesta:                Solid            Molecule  Units
siesta:           0.00845320          0.13757170  Ry/Bohr**3
siesta:           0.77614439         12.63136524  eV/Ang**3
siesta:        1243.53385271      20237.89699285  kBar
(Free)E+ p_basis*V_orbitals  =      -12698.349774
(Free)Eharris+ p_basis*V_orbitals  =      -12698.348302

siesta: Electric dipole (a.u.)  =    0.000000    0.000000    0.000000
siesta: Electric dipole (Debye) =    0.000000    0.000000    0.000000

* Maximum dynamic memory allocated : Node    0 =   198 MB
* Maximum dynamic memory allocated : Node    1 =    71 MB
* Maximum dynamic memory allocated : Node    2 =    74 MB
* Maximum dynamic memory allocated : Node    3 =   190 MB
* Maximum dynamic memory allocated : Node    4 =   188 MB
* Maximum dynamic memory allocated : Node    5 =    71 MB
* Maximum dynamic memory allocated : Node    6 =    72 MB
* Maximum dynamic memory allocated : Node    7 =   173 MB

* Maximum memory occured during matrixMtoO                    

timer: CPU execution times:
timer:  Routine       Calls   Time/call    Tot.time        %
timer:  siesta            1  139352.330  139352.330   100.00
timer:  Setup             1       2.717       2.717     0.00
timer:  bands             3     243.452     730.355     0.52
timer:  writewave         1       0.021       0.021     0.00
timer:  KSV_init          1       0.000       0.000     0.00
timer:  IterMD            1  138614.004  138614.004    99.47
timer:  hsparse           1       0.279       0.279     0.00
timer:  overlap           1       7.118       7.118     0.01
timer:  IterSCF          42    3296.821  138466.501    99.36
timer:  kinefsm           2       3.668       7.336     0.01
timer:  nlefsm            2      17.294      34.588     0.02
timer:  DHSCF            43      75.586    3250.207     2.33
timer:  DHSCF1            1       0.744       0.744     0.00
timer:  DHSCF2            1      30.405      30.405     0.02
timer:  REORD           346       0.005       1.679     0.00
timer:  POISON           44       0.873      38.396     0.03
timer:  DHSCF3           43      74.187    3190.061     2.29
timer:  rhoofd           43      15.668     673.730     0.48
timer:  cellXC           43       3.288     141.379     0.10
timer:  vmat             43      33.352    1434.141     1.03
timer:  MolMec            2       0.000       0.000     0.00
timer:  diagon           42    3220.464  135259.483    97.06
timer:  c-eigval       9823       6.023   59167.647    42.46
timer:  c-buildHS      9823       0.047     458.951     0.33
timer:  cdiag         19525       6.150  120079.588    86.17
timer:  cdiag1        19525       0.387    7552.935     5.42
timer:  cdiag2        19525       1.766   34487.764    24.75
timer:  cdiag3        19525       3.732   72873.683    52.29
timer:  cdiag4        19525       0.151    2956.800     2.12
timer:  c-eigvec       9702       6.362   61723.815    44.29
timer:  c-buildD       9702       1.551   15049.220    10.80
timer:  DHSCF4            1      28.139      28.139     0.02
timer:  dfscf             1      26.277      26.277     0.02
timer:  overfsm           1       0.379       0.379     0.00
timer:  optical           1       4.578       4.578     0.00
  

elaps: ELAPSED times:
elaps:  Routine       Calls   Time/call    Tot.time        %
elaps:  siesta            1   17452.002   17452.002   100.00
elaps:  Setup             1       0.340       0.340     0.00
elaps:  bands             3      30.507      91.520     0.52
elaps:  writewave         1       0.002       0.002     0.00
elaps:  KSV_init          1       0.000       0.000     0.00
elaps:  IterMD            1   17359.536   17359.536    99.47
elaps:  hsparse           1       0.035       0.035     0.00
elaps:  overlap           1       0.890       0.890     0.01
elaps:  IterSCF          42     412.883   17341.068    99.36
elaps:  kinefsm           2       0.457       0.914     0.01
elaps:  nlefsm            2       2.191       4.383     0.03
elaps:  DHSCF            43       9.552     410.739     2.35
elaps:  DHSCF1            1       0.095       0.095     0.00
elaps:  DHSCF2            1       3.806       3.806     0.02
elaps:  REORD           346       0.001       0.233     0.00
elaps:  POISON           44       0.110       4.818     0.03
elaps:  DHSCF3           43       9.292     399.543     2.29
elaps:  rhoofd           43       4.570     196.514     1.13
elaps:  cellXC           43       0.412      17.702     0.10
elaps:  vmat             43       4.177     179.621     1.03
elaps:  MolMec            2       0.000       0.000     0.00
elaps:  diagon           42     403.315   16939.218    97.06
elaps:  c-eigval       9823       0.754    7409.910    42.46
elaps:  c-buildHS      9823       0.006      59.089     0.34
elaps:  cdiag         19525       0.773   15085.599    86.44
elaps:  cdiag1        19525       0.049     948.892     5.44
elaps:  cdiag2        19525       0.221    4320.114    24.75
elaps:  cdiag3        19525       0.468    9138.649    52.36
elaps:  cdiag4        19525       0.019     370.356     2.12
elaps:  c-eigvec       9702       0.802    7783.292    44.60
elaps:  c-buildD       9702       0.189    1830.808    10.49
elaps:  DHSCF4            1       7.194       7.194     0.04
elaps:  dfscf             1       6.796       6.796     0.04
elaps:  overfsm           1       0.045       0.045     0.00
elaps:  optical           1       0.000       0.000     0.00
  
>> End of run:  29-APR-2016   1:13:02
