Siesta Version:                                        siesta-3.2-pl-3
Architecture  : x86_64-unknown-linux-gnu--unknown
Compiler flags: mpiifort -g -O2 -fPIC -xSSE4.1 -fp-model source -shared-intel 
PARALLEL version

* Running on    8 nodes in parallel
>> Start of run:   9-MAY-2016   5:06:18

                           ***********************       
                           *  WELCOME TO SIESTA  *       
                           ***********************       

reinit: Reading from standard input
************************** Dump of input data file ****************************
#(1) General system descriptors
SystemName            GRP_doping    # Descriptive name of the system
SystemLabel           GRP_doping    # Short name for naming files
%include STRUCT.fdf
%include KPT.fdf
%include BASIS.fdf
#%include TS.fdf # for transiesta calculation
#(4) DFT, Grid, SCF
XC.functional         GGA           # LDA or GGA (default = LDA)
XC.authors            PBE           # CA (Ceperley-Aldr) = PZ
                                    #    (Perdew-Zunger) - LDA - Default
                                    # PW92 (Perdew-Wang-92) - LDA
                                    # PBE (Perdew-Burke-Ernzerhof) - GGA
MeshCutoff            200.000000    Ry      # Default: 50.0 Ry ~ 0.444 Bohr
                                    #         100.0 Ry ~ 0.314 Bohr
MaxSCFIterations      500           # Default: 50
DM.MixingWeight       0.05          # Default: 0.25
DM.NumberPulay        10            # Default: 0
DM.PulayOnFile        F             # SystemLabel.P1, SystemLabel.P2
DM.Tolerance          1.d-4         # Default: 1.d-4
DM.UseSaveDM          .true.        # because of the bug
SCFMustConverge       .true.
NeglNonOverlapInt     F             # Default: F
#(5) Eigenvalue problem: order-N or diagonalization
SolutionMethod        Diagon        # or Transiesta
ElectronicTemperature 300.0 K       # Default: 300.0 K
#(6) Molecular dynamics and relaxations
#MD.TypeOfRun          CG            # Type of dynamics:
#MD.VariableCell       F
#MD.NumCGsteps         0           # 0 for single-point / 100 for gopt
#MD.MaxCGDispl         0.2 Bohr      # Default: 0.2 Bohr
#MD.MaxForceTol        0.02 eV/Ang   # Default: 0.04 eV/Ang
#MD.MaxStressTol       1.0 GPa       # Default: 1.0 GPa
# Geometry Constraints
#%block GeometryConstraints
#	position from 1 to 44
#%endblock GeometryConstraints
BandLinesScale   pi/a
%block BandLines
 1   0.00000000  0.00000000  0.00000000
50   0.00000000  0.07809418  0.00000000
50   0.04509075  0.07809242  0.00000000
20   0.00000000  0.00000000  0.00000000
%endblock BandLines
************************** End of input data file *****************************

reinit: -----------------------------------------------------------------------
reinit: System Name: GRP_doping
reinit: -----------------------------------------------------------------------
reinit: System Label: GRP_doping                                                  
reinit: -----------------------------------------------------------------------

initatom: Reading input for the pseudopotentials and atomic orbitals ----------
 Species number:            1  Label: B Atomic number:           5
 Species number:            2  Label: C Atomic number:           6
Ground state valence configuration:   2s02  2p01
Reading pseudopotential information in formatted form from B.psf

Valence configuration for pseudopotential generation:
2s( 2.00) rc: 1.74
2p( 1.00) rc: 1.74
3d( 0.00) rc: 1.74
4f( 0.00) rc: 1.74
Ground state valence configuration:   2s02  2p02
Reading pseudopotential information in formatted form from C.psf

Valence configuration for pseudopotential generation:
2s( 2.00) rc: 1.54
2p( 2.00) rc: 1.54
3d( 0.00) rc: 1.54
4f( 0.00) rc: 1.54
For B, standard SIESTA heuristics set lmxkb to 3
 (one more than the basis l, including polarization orbitals).
Use PS.lmax or PS.KBprojectors blocks to override.
For C, standard SIESTA heuristics set lmxkb to 3
 (one more than the basis l, including polarization orbitals).
Use PS.lmax or PS.KBprojectors blocks to override.

<basis_specs>
===============================================================================
B                    Z=   5    Mass=  10.810        Charge= 0.17977+309
Lmxo=1 Lmxkb= 3    BasisType=split      Semic=F
L=0  Nsemic=0  Cnfigmx=2
          n=1  nzeta=2  polorb=0
            splnorm:   0.15000    
               vcte:    0.0000    
               rinn:    0.0000    
                rcs:    0.0000      0.0000    
            lambdas:    1.0000      1.0000    
L=1  Nsemic=0  Cnfigmx=2
          n=1  nzeta=2  polorb=1
            splnorm:   0.15000    
               vcte:    0.0000    
               rinn:    0.0000    
                rcs:    0.0000      0.0000    
            lambdas:    1.0000      1.0000    
-------------------------------------------------------------------------------
L=0  Nkbl=1  erefs: 0.17977+309
L=1  Nkbl=1  erefs: 0.17977+309
L=2  Nkbl=1  erefs: 0.17977+309
L=3  Nkbl=1  erefs: 0.17977+309
===============================================================================
</basis_specs>

atom: Called for B                     (Z =   5)

read_vps: Pseudopotential generation method:
read_vps: ATM3      Troullier-Martins                       
Total valence charge:    3.00000

read_vps: Pseudopotential includes a core correction:
read_vps: Pseudo-core for xc-correction

xc_check: Exchange-correlation functional:
xc_check: GGA Perdew, Burke & Ernzerhof 1996
V l=0 = -2*Zval/r beyond r=  1.7165
V l=1 = -2*Zval/r beyond r=  1.7165
V l=2 = -2*Zval/r beyond r=  1.7165
V l=3 = -2*Zval/r beyond r=  1.6951
All V_l potentials equal beyond r=  1.7165
This should be close to max(r_c) in ps generation
All pots = -2*Zval/r beyond r=  1.7165

VLOCAL1: 99.0% of the norm of Vloc inside     14.733 Ry
VLOCAL1: 99.9% of the norm of Vloc inside     33.577 Ry
atom: Maximum radius for 4*pi*r*r*local-pseudopot. charge    2.04484
atom: Maximum radius for r*vlocal+2*Zval:    1.75994
GHOST: No ghost state for L =  0
GHOST: No ghost state for L =  1
GHOST: No ghost state for L =  2
GHOST: No ghost state for L =  3

KBgen: Kleinman-Bylander projectors: 
   l= 0   rc=  1.897051   el= -0.693730   Ekb=  4.595746   kbcos=  0.286105
   l= 1   rc=  1.920920   el= -0.265236   Ekb= -2.350715   kbcos= -0.315747
   l= 2   rc=  2.044840   el=  0.002055   Ekb= -0.690767   kbcos= -0.013822
   l= 3   rc=  2.149707   el=  0.003188   Ekb= -0.315358   kbcos= -0.002055

KBgen: Total number of  Kleinman-Bylander projectors:   16
atom: -------------------------------------------------------------------------

atom: SANKEY-TYPE ORBITALS:
atom: Selected multiple-zeta basis: split     

SPLIT: Orbitals with angular momentum L= 0

SPLIT: Basis orbitals for state 2s

SPLIT: PAO cut-off radius determined from an
SPLIT: energy shift=  0.007350 Ry

   izeta = 1
                 lambda =    1.000000
                     rc =    5.422032
                 energy =   -0.686029
                kinetic =    0.576707
    potential(screened) =   -1.262736
       potential(ionic) =   -3.271094

   izeta = 2
                 rmatch =    4.222573
              splitnorm =    0.150000
                 energy =   -0.602132
                kinetic =    0.858975
    potential(screened) =   -1.461107
       potential(ionic) =   -3.582536

SPLIT: Orbitals with angular momentum L= 1

SPLIT: Basis orbitals for state 2p

SPLIT: PAO cut-off radius determined from an
SPLIT: energy shift=  0.007350 Ry

   izeta = 1
                 lambda =    1.000000
                     rc =    6.790259
                 energy =   -0.258578
                kinetic =    1.481412
    potential(screened) =   -1.739989
       potential(ionic) =   -3.657461

   izeta = 2
                 rmatch =    4.608740
              splitnorm =    0.150000
                 energy =   -0.173757
                kinetic =    2.186690
    potential(screened) =   -2.360447
       potential(ionic) =   -4.464260

POLgen: Perturbative polarization orbital with L=  2

POLgen: Polarization orbital for state 2p

   izeta = 1
                     rc =    6.790259
                 energy =    0.684082
                kinetic =    1.471481
    potential(screened) =   -0.787399
       potential(ionic) =   -2.406985
atom: Total number of Sankey-type orbitals: 13

atm_pop: Valence configuration (for local Pseudopot. screening):
 2s( 2.00)                                                            
 2p( 1.00)                                                            
Vna: chval, zval:    3.00000   3.00000

Vna:  Cut-off radius for the neutral-atom potential:   6.790259
comcore: Pseudo-core radius Rcore=  2.122997

atom: _________________________________________________________________________

<basis_specs>
===============================================================================
C                    Z=   6    Mass=  12.010        Charge= 0.17977+309
Lmxo=1 Lmxkb= 3    BasisType=split      Semic=F
L=0  Nsemic=0  Cnfigmx=2
          n=1  nzeta=2  polorb=0
            splnorm:   0.15000    
               vcte:    0.0000    
               rinn:    0.0000    
                rcs:    0.0000      0.0000    
            lambdas:    1.0000      1.0000    
L=1  Nsemic=0  Cnfigmx=2
          n=1  nzeta=2  polorb=1
            splnorm:   0.15000    
               vcte:    0.0000    
               rinn:    0.0000    
                rcs:    0.0000      0.0000    
            lambdas:    1.0000      1.0000    
-------------------------------------------------------------------------------
L=0  Nkbl=1  erefs: 0.17977+309
L=1  Nkbl=1  erefs: 0.17977+309
L=2  Nkbl=1  erefs: 0.17977+309
L=3  Nkbl=1  erefs: 0.17977+309
===============================================================================
</basis_specs>

atom: Called for C                     (Z =   6)

read_vps: Pseudopotential generation method:
read_vps: ATM3      Troullier-Martins                       
Total valence charge:    4.00000

read_vps: Pseudopotential includes a core correction:
read_vps: Pseudo-core for xc-correction

xc_check: Exchange-correlation functional:
xc_check: GGA Perdew, Burke & Ernzerhof 1996
V l=0 = -2*Zval/r beyond r=  1.5227
V l=1 = -2*Zval/r beyond r=  1.5227
V l=2 = -2*Zval/r beyond r=  1.5227
V l=3 = -2*Zval/r beyond r=  1.5038
All V_l potentials equal beyond r=  1.5227
This should be close to max(r_c) in ps generation
All pots = -2*Zval/r beyond r=  1.5227

VLOCAL1: 99.0% of the norm of Vloc inside     18.722 Ry
VLOCAL1: 99.9% of the norm of Vloc inside     42.668 Ry
atom: Maximum radius for 4*pi*r*r*local-pseudopot. charge    1.83678
atom: Maximum radius for r*vlocal+2*Zval:    1.58088
GHOST: No ghost state for L =  0
GHOST: No ghost state for L =  1
GHOST: No ghost state for L =  2
GHOST: No ghost state for L =  3

KBgen: Kleinman-Bylander projectors: 
   l= 0   rc=  1.704034   el= -1.009801   Ekb=  5.335044   kbcos=  0.316824
   l= 1   rc=  1.704034   el= -0.388707   Ekb= -3.785862   kbcos= -0.366464
   l= 2   rc=  1.791422   el=  0.001971   Ekb= -0.970471   kbcos= -0.009212
   l= 3   rc=  1.859892   el=  0.003065   Ekb= -0.399525   kbcos= -0.001223

KBgen: Total number of  Kleinman-Bylander projectors:   16
atom: -------------------------------------------------------------------------

atom: SANKEY-TYPE ORBITALS:
atom: Selected multiple-zeta basis: split     

SPLIT: Orbitals with angular momentum L= 0

SPLIT: Basis orbitals for state 2s

SPLIT: PAO cut-off radius determined from an
SPLIT: energy shift=  0.007350 Ry

   izeta = 1
                 lambda =    1.000000
                     rc =    4.632753
                 energy =   -1.002270
                kinetic =    0.855760
    potential(screened) =   -1.858031
       potential(ionic) =   -5.417575

   izeta = 2
                 rmatch =    3.431921
              splitnorm =    0.150000
                 energy =   -0.867111
                kinetic =    1.300804
    potential(screened) =   -2.167915
       potential(ionic) =   -5.962684

SPLIT: Orbitals with angular momentum L= 1

SPLIT: Basis orbitals for state 2p

SPLIT: PAO cut-off radius determined from an
SPLIT: energy shift=  0.007350 Ry

   izeta = 1
                 lambda =    1.000000
                     rc =    5.658549
                 energy =   -0.381140
                kinetic =    2.399701
    potential(screened) =   -2.780841
       potential(ionic) =   -6.206085

   izeta = 2
                 rmatch =    3.653288
              splitnorm =    0.150000
                 energy =   -0.249149
                kinetic =    3.542762
    potential(screened) =   -3.791911
       potential(ionic) =   -7.581078

POLgen: Perturbative polarization orbital with L=  2

POLgen: Polarization orbital for state 2p

   izeta = 1
                     rc =    5.658549
                 energy =    1.109913
                kinetic =    2.304789
    potential(screened) =   -1.194876
       potential(ionic) =   -4.013592
atom: Total number of Sankey-type orbitals: 13

atm_pop: Valence configuration (for local Pseudopot. screening):
 2s( 2.00)                                                            
 2p( 2.00)                                                            
Vna: chval, zval:    4.00000   4.00000

Vna:  Cut-off radius for the neutral-atom potential:   5.658549
comcore: Pseudo-core radius Rcore=  1.791422

atom: _________________________________________________________________________

prinput: Basis input ----------------------------------------------------------

PAO.BasisType split     

%block ChemicalSpeciesLabel
    1    5 B                       # Species index, atomic number, species label
    2    6 C                       # Species index, atomic number, species label
%endblock ChemicalSpeciesLabel

%block PAO.Basis                 # Define Basis set
B                     2                    # Species label, number of l-shells
 n=2   0   2                         # n, l, Nzeta 
   5.422      4.223   
   1.000      1.000   
 n=2   1   2 P   1                   # n, l, Nzeta, Polarization, NzetaPol
   6.790      4.609   
   1.000      1.000   
C                     2                    # Species label, number of l-shells
 n=2   0   2                         # n, l, Nzeta 
   4.633      3.432   
   1.000      1.000   
 n=2   1   2 P   1                   # n, l, Nzeta, Polarization, NzetaPol
   5.659      3.653   
   1.000      1.000   
%endblock PAO.Basis

prinput: ----------------------------------------------------------------------

coor:   Atomic-coordinates input format  =     Fractional

siesta: Atomic coordinates (Bohr) and species
siesta:     -4.68258  34.85847   0.00000  1        1
siesta:      6.95932  17.38257   0.00000  1        2
siesta:      9.28770  18.72698   0.00000  1        3
siesta:      9.28770  21.41544   0.00000  1        4
siesta:      2.30256  17.38257   0.00000  1        5
siesta:      4.63094  18.72698   0.00000  1        6
siesta:      6.95932  22.75985   0.00000  1        7
siesta:      6.95932  25.44831   0.00000  1        8
siesta:     -2.35420  25.44831   0.00000  1        9
siesta:     -4.68258  29.48119   0.00000  1       10
siesta:     -2.35420  30.82560   0.00000  1       11
siesta:     -2.35420  33.51406   0.00000  1       12
siesta:     -7.01096  30.82560   0.00000  1       13
siesta:     -7.01096  33.51406   0.00000  1       14
siesta:     -0.02582   2.59549   0.00000  2       15
siesta:     -0.02582   5.28395   0.00000  2       16
siesta:     -2.35420  38.89134   0.00000  2       17
siesta:     -2.35420  41.57980   0.00000  2       18
siesta:      2.30256  38.89134   0.00000  2       19
siesta:      2.30256  41.57980   0.00000  2       20
siesta:      4.63094  34.85847   0.00000  2       21
siesta:      4.63094  37.54693   0.00000  2       22
siesta:      6.95932  30.82560   0.00000  2       23
siesta:      6.95932  33.51406   0.00000  2       24
siesta:      9.28770  26.79272   0.00000  2       25
siesta:      9.28770  29.48119   0.00000  2       26
siesta:     -4.68258  37.54693   0.00000  2       27
siesta:      2.30256   6.62836   0.00000  2       28
siesta:      2.30256   9.31683   0.00000  2       29
siesta:      4.63094  10.66124   0.00000  2       30
siesta:      4.63094  13.34970   0.00000  2       31
siesta:      6.95932  14.69411   0.00000  2       32
siesta:     11.61608  22.75985   0.00000  2       33
siesta:     11.61608  25.44831   0.00000  2       34
siesta:     -2.35420   6.62836   0.00000  2       35
siesta:     -2.35420   9.31683   0.00000  2       36
siesta:     -0.02582  10.66124   0.00000  2       37
siesta:     -0.02582  13.34970   0.00000  2       38
siesta:      2.30256  14.69411   0.00000  2       39
siesta:      4.63094  21.41544   0.00000  2       40
siesta:     -4.68258  10.66124   0.00000  2       41
siesta:     -4.68258  13.34970   0.00000  2       42
siesta:     -2.35420  14.69411   0.00000  2       43
siesta:     -2.35420  17.38257   0.00000  2       44
siesta:     -0.02582  18.72698   0.00000  2       45
siesta:     -0.02582  21.41544   0.00000  2       46
siesta:      2.30256  22.75985   0.00000  2       47
siesta:      2.30256  25.44831   0.00000  2       48
siesta:     -7.01096  14.69411   0.00000  2       49
siesta:     -7.01096  17.38257   0.00000  2       50
siesta:     -4.68258  18.72698   0.00000  2       51
siesta:     -4.68258  21.41544   0.00000  2       52
siesta:     -2.35420  22.75985   0.00000  2       53
siesta:     -9.33934  18.72698   0.00000  2       54
siesta:     -9.33934  21.41544   0.00000  2       55
siesta:     -7.01096  22.75985   0.00000  2       56
siesta:     -7.01096  25.44831   0.00000  2       57
siesta:    -11.66772  22.75985   0.00000  2       58
siesta:    -11.66772  25.44831   0.00000  2       59
siesta:     -9.33934  26.79272   0.00000  2       60
siesta:     -9.33934  29.48119   0.00000  2       61
siesta:      4.63094  26.79272   0.00000  2       62
siesta:      4.63094  29.48119   0.00000  2       63
siesta:     -0.02582  26.79272   0.00000  2       64
siesta:     -0.02582  29.48119   0.00000  2       65
siesta:     -4.68258  26.79272   0.00000  2       66
siesta:      2.30256  30.82560   0.00000  2       67
siesta:      2.30256  33.51406   0.00000  2       68
siesta:     -0.02582  34.85847   0.00000  2       69
siesta:     -0.02582  37.54693   0.00000  2       70
siesta:     -0.02582  42.92421   0.00000  2       71
siesta:     -0.02582  45.61267   0.00000  2       72

siesta: System type = slab      

initatomlists: Number of atoms, orbitals, and projectors:     72   936  1152

siesta: ******************** Simulation parameters ****************************
siesta:
siesta: The following are some of the parameters of the simulation.
siesta: A complete list of the parameters used, including default values,
siesta: can be found in file out.fdf
siesta:
redata: Non-Collinear-spin run           =     F
redata: SpinPolarized (Up/Down) run      =     F
redata: Number of spin components        =     1
redata: Long output                      =     F
redata: Number of Atomic Species         =        2
redata: Charge density info will appear in .RHO file
redata: Write Mulliken Pop.              =     NO
redata: Mesh Cutoff                      =   200.0000  Ry
redata: Net charge of the system         =     0.0000 |e|
redata: Max. number of SCF Iter          =      500
redata: SCF convergence failure will abort job
redata: Performing Pulay mixing using    =    10 iterations
redata: Mix DM in first SCF step ?       =     F
redata: Write Pulay info on disk?        =     F
redata: Discard 1st Pulay DM after  kick =     F
redata: New DM Mixing Weight             =     0.0500
redata: New DM Occupancy tolerance       = 0.000000000001
redata: No kicks to SCF
redata: DM Mixing Weight for Kicks       =     0.5000
redata: DM Tolerance for SCF             =     0.000100
redata: Require Energy convergence for SCF =     F
redata: DM Energy tolerance for SCF      =     0.000100 eV
redata: Require Harris convergence for SCF =     F
redata: DM Harris energy tolerance for SCF =     0.000100 eV
redata: Using Saved Data (generic)   =     F
redata: Use continuation files for DM    =     T
redata: Neglect nonoverlap interactions  =     F
redata: Method of Calculation            =     Diagonalization
redata: Divide and Conquer               =     T
redata: Electronic Temperature           =     0.0019  Ry
redata: Fix the spin of the system       =     F
redata: Dynamics option                  =     Verlet MD run
redata: Initial MD time step             =        1
redata:   Final MD time step             =        1
redata: Length of MD time step           =     1.0000  fs
redata: Initial Temperature of MD run    =     0.0000  K
redata: Perform a MD quench              =     F
redata: ***********************************************************************
Total number of electrons:   274.000000
Total ionic charge:   274.000000

* ProcessorY, Blocksize:    2  24

k-point displ. along   1 input, could be:     0.00    0.50
k-point displ. along   2 input, could be:     0.00    0.50
 Kpoints in:          364 . Kpoints trimmed:          352

siesta: k-grid: Number of k-points =   352
siesta: k-grid: Cutoff (effective) =     5.000 Ang
siesta: k-grid: Supercell and displacements
siesta: k-grid:   26   0   0      0.000
siesta: k-grid:    0  26   0      0.000
siesta: k-grid:    0   0   1      0.000
Naive supercell factors:     2    2    2

superc: Internal auxiliary supercell:     2 x     2 x     2  =       8
superc: Number of atoms, orbitals, and projectors:    576   7488   9216

* Maximum dynamic memory allocated =     6 MB

siesta:                 ==============================
                            Begin MD step =      1
                        ==============================

superc: Internal auxiliary supercell:     2 x     2 x     2  =       8
superc: Number of atoms, orbitals, and projectors:    576   7488   9216

outcell: Unit cell vectors (Ang):
       12.804619    7.392750    0.000000
        0.000000   14.785500    0.000000
        0.000000    0.000000   10.000000

outcell: Cell vector modules (Ang)   :   14.785500   14.785500   10.000000
outcell: Cell angles (23,13,12) (deg):     90.0000     90.0000     60.0000
outcell: Cell volume (Ang**3)        :   1893.2269
New_DM. Step:     1
Initializing Density Matrix...

InitMesh: MESH =   120 x   120 x    90 =     1296000
InitMesh: Mesh cutoff (required, used) =   200.000   223.865 Ry

* Maximum dynamic memory allocated =   221 MB

stepf: Fermi-Dirac step function

siesta: Program's energy decomposition (eV):
siesta: Ebs     =     -5668.983221
siesta: Eions   =     16610.217114
siesta: Ena     =      4389.726578
siesta: Ekin    =      5639.844840
siesta: Enl     =       750.271116
siesta: DEna    =        -0.000010
siesta: DUscf   =         0.000000
siesta: DUext   =         0.000000
siesta: Exc     =     -4195.134398
siesta: eta*DQ  =         0.000000
siesta: Emadel  =         0.000000
siesta: Emeta   =         0.000000
siesta: Emolmec =         0.000000
siesta: Ekinion =         0.000000
siesta: Eharris =     -9732.822761
siesta: Etot    =    -10025.508989
siesta: FreeEng =    -10025.508989

siesta: iscf   Eharris(eV)      E_KS(eV)   FreeEng(eV)   dDmax  Ef(eV)
siesta:    1    -9732.8228   -10025.5090   -10025.5090  6.7255 -8.1136
timer: Routine,Calls,Time,% = IterSCF        1    5180.533  99.79
elaps: Routine,Calls,Wall,% = IterSCF        1     648.794  99.79
siesta:    2   -13372.1317    -9118.1506    -9118.1690 18.4094 -2.2263
siesta:    3    -9668.6289    -9857.1649    -9857.2068  3.0424 -6.5980
siesta:    4    -9644.5699    -9724.6268    -9724.6663  1.2194 -5.3518
siesta:    5    -9605.2790    -9674.9046    -9674.9340  0.9011 -5.2746
siesta:    6    -9592.8004    -9639.7758    -9639.7908  0.7202 -5.1045
siesta:    7    -9590.4326    -9610.2565    -9610.2756  0.6885 -5.0209
siesta:    8    -9584.7179    -9603.8435    -9603.8634  0.6006 -4.9567
siesta:    9    -9583.3938    -9600.8509    -9600.9032  0.4855 -5.0277
siesta:   10    -9582.7561    -9589.7165    -9589.7842  0.5113 -5.0019
siesta:   11    -9581.6158    -9575.4342    -9575.4923  0.3229 -4.9986
siesta:   12    -9581.0167    -9563.2113    -9563.2822  0.2115 -4.9885
siesta:   13    -9580.9489    -9558.4742    -9558.5621  0.1474 -4.9546
siesta:   14    -9580.3380    -9560.8670    -9560.9447  0.1486 -4.9679
siesta:   15    -9579.8076    -9562.0622    -9562.1494  0.1470 -4.9310
siesta:   16    -9579.6278    -9565.0404    -9565.1223  0.1007 -4.9388
siesta:   17    -9579.5762    -9567.2474    -9567.3390  0.0993 -4.9616
siesta:   18    -9579.5347    -9568.4562    -9568.5539  0.0880 -4.9722
siesta:   19    -9579.5136    -9571.5776    -9571.6766  0.0639 -4.9878
siesta:   20    -9579.4924    -9575.3073    -9575.4036  0.0347 -5.0117
siesta:   21    -9579.4829    -9576.8913    -9576.9868  0.0344 -5.0165
siesta:   22    -9579.4755    -9577.9043    -9577.9995  0.0277 -5.0152
siesta:   23    -9579.4710    -9579.1333    -9579.2292  0.0210 -5.0096
siesta:   24    -9579.4698    -9579.2719    -9579.3691  0.0152 -5.0049
siesta:   25    -9579.4694    -9579.4942    -9579.5909  0.0057 -5.0020
siesta:   26    -9579.4694    -9579.2974    -9579.3939  0.0041 -5.0005
siesta:   27    -9579.4691    -9579.2925    -9579.3887  0.0032 -5.0009
siesta:   28    -9579.4691    -9579.2856    -9579.3820  0.0026 -5.0008
siesta:   29    -9579.4689    -9579.3475    -9579.4438  0.0016 -5.0014
siesta:   30    -9579.4689    -9579.3589    -9579.4553  0.0010 -5.0014
siesta:   31    -9579.4689    -9579.3567    -9579.4532  0.0009 -5.0014
siesta:   32    -9579.4689    -9579.4144    -9579.5108  0.0006 -5.0016
siesta:   33    -9579.4689    -9579.4292    -9579.5256  0.0003 -5.0016
siesta:   34    -9579.4689    -9579.4526    -9579.5491  0.0002 -5.0017
siesta:   35    -9579.4689    -9579.4583    -9579.5547  0.0002 -5.0017
siesta:   36    -9579.4689    -9579.4598    -9579.5563  0.0002 -5.0017
siesta:   37    -9579.4689    -9579.4635    -9579.5599  0.0001 -5.0017
siesta:   38    -9579.4689    -9579.4675    -9579.5639  0.0001 -5.0017

siesta: E_KS(eV) =            -9579.4665

siesta: E_KS - E_eggbox =     -9579.4665

siesta: Atomic forces (eV/Ang):
----------------------------------------
   Tot   -0.098088   -0.079834    0.000000
----------------------------------------
   Max  559.496226
   Res  157.143170    sqrt( Sum f_i^2 / 3N )
----------------------------------------
   Max  559.496226    constrained

Stress-tensor-Voigt (kbar):     -786.86    -2823.20       -0.53       -2.77        0.00        0.00
(Free)E + p*V (eV/cell)    -8157.4156
Target enthalpy (eV/cell)    -9579.5629

siesta: Stress tensor (static) (eV/Ang**3):
        -0.491117   -0.001731    0.000000
        -0.001731   -1.762083    0.000000
         0.000000    0.000000   -0.000329

siesta: Pressure (static):       1203.53021487  kBar

siesta: Stress tensor (total) (eV/Ang**3):
        -0.491117   -0.001731    0.000000
        -0.001731   -1.762083    0.000000
         0.000000    0.000000   -0.000329

siesta: Pressure (total):       1203.53021487  kBar

siesta: Temp_ion =       0.000 K

* Maximum dynamic memory allocated =   238 MB
Computing bands...

siesta: Program's energy decomposition (eV):
siesta: Ebs     =     -4326.207390
siesta: Eions   =     16610.217114
siesta: Ena     =      4389.726578
siesta: Ekin    =      8587.292304
siesta: Enl     =      -880.686434
siesta: DEna    =      -803.531723
siesta: DUscf   =       106.660520
siesta: DUext   =         0.000000
siesta: Exc     =     -4368.710589
siesta: eta*DQ  =         0.000000
siesta: Emadel  =         0.000000
siesta: Emeta   =         0.000000
siesta: Emolmec =         0.000000
siesta: Ekinion =         0.000000
siesta: Eharris =     -9579.468926
siesta: Etot    =     -9579.466459
siesta: FreeEng =     -9579.562886

siesta: Final energy (eV):
siesta:  Band Struct. =   -4326.207390
siesta:       Kinetic =    8587.292304
siesta:       Hartree =   28325.099838
siesta:    Ext. field =       0.000000
siesta:   Exch.-corr. =   -4368.710589
siesta:  Ion-electron =  -64962.448507
siesta:       Ion-ion =   22839.300495
siesta:       Ekinion =       0.000000
siesta:         Total =   -9579.466459

siesta: Atomic forces (eV/Ang):
siesta:      1  -16.814378    3.538874    0.000000
siesta:      2    3.344297   -7.163570    0.000000
siesta:      3    3.323519   -2.525486    0.000000
siesta:      4    8.865869    1.495270    0.000000
siesta:      5   15.282578   -4.825421    0.000000
siesta:      6   -1.185638    3.211110    0.000000
siesta:      7   -4.608617   -3.320110    0.000000
siesta:      8   -0.757350    4.712473    0.000000
siesta:      9    0.089943    0.575559    0.000000
siesta:     10    1.981180   -3.159790    0.000000
siesta:     11  -14.407490    2.504631    0.000000
siesta:     12  -20.574225 -400.693206    0.000000
siesta:     13   -9.701923    0.561305    0.000000
siesta:     14   -2.918155    3.459058    0.000000
siesta:     15    7.237827  547.219121    0.000000
siesta:     16   -4.243606 -132.002788    0.000000
siesta:     17   -1.351625  125.639272    0.000000
siesta:     18  -15.616828 -550.059503    0.000000
siesta:     19   -1.991912  127.186948    0.000000
siesta:     20   18.481702 -551.689079    0.000000
siesta:     21   26.119526    3.502323    0.000000
siesta:     22   32.121825 -549.544688    0.000000
siesta:     23    1.447787    1.115535    0.000000
siesta:     24   -2.411607    1.723261    0.000000
siesta:     25    6.250847    4.118941    0.000000
siesta:     26   -1.098002   -0.801208    0.000000
siesta:     27  -26.392387 -548.725090    0.000000
siesta:     28   12.933694  547.520902    0.000000
siesta:     29   -0.551109 -126.068384    0.000000
siesta:     30   33.172428  549.293466    0.000000
siesta:     31   25.435512   -5.431022    0.000000
siesta:     32   -3.295762   -4.078737    0.000000
siesta:     33    2.647131    7.651028    0.000000
siesta:     34    0.142360   -6.395611    0.000000
siesta:     35  -16.214593  405.195340    0.000000
siesta:     36   -3.998043 -124.941108    0.000000
siesta:     37    6.691181  546.080513    0.000000
siesta:     38    0.581906 -127.659136    0.000000
siesta:     39   22.668038  556.284939    0.000000
siesta:     40   -3.127407    2.570147    0.000000
siesta:     41  -37.128306  555.117377    0.000000
siesta:     42  -27.241850   -6.125595    0.000000
siesta:     43  -22.497293  556.686146    0.000000
siesta:     44  -22.095139   -6.032654    0.000000
siesta:     45    4.002945  559.496226    0.000000
siesta:     46   -1.050913    1.795314    0.000000
siesta:     47   -0.648692   -0.967484    0.000000
siesta:     48   -1.665971    1.634180    0.000000
siesta:     49    2.435344   -1.672568    0.000000
siesta:     50   -1.527868   -0.349972    0.000000
siesta:     51    0.721829    2.329945    0.000000
siesta:     52   -0.085213   -0.549025    0.000000
siesta:     53    0.926176   -4.166016    0.000000
siesta:     54    0.977089   -0.154787    0.000000
siesta:     55   -2.512847   -2.429127    0.000000
siesta:     56    0.063193    0.540866    0.000000
siesta:     57    1.446255   -0.723806    0.000000
siesta:     58    0.253869    7.436904    0.000000
siesta:     59   -0.221166   -7.409913    0.000000
siesta:     60   -3.611433    2.889696    0.000000
siesta:     61    0.493384   -3.399658    0.000000
siesta:     62   -1.776727    1.847168    0.000000
siesta:     63   -1.122341   -2.451774    0.000000
siesta:     64    3.678975    0.055580    0.000000
siesta:     65   -5.149827 -559.212700    0.000000
siesta:     66   -3.381300   -1.880996    0.000000
siesta:     67   21.676165    7.543659    0.000000
siesta:     68   30.705713 -556.166801    0.000000
siesta:     69   -7.208122  118.868611    0.000000
siesta:     70   -1.777517 -544.153228    0.000000
siesta:     71    1.476062  132.854068    0.000000
siesta:     72   -5.811053 -547.405551    0.000000
siesta: ----------------------------------------
siesta:    Tot   -0.098088   -0.079834    0.000000

siesta: Stress tensor (static) (eV/Ang**3):
siesta:    -0.491117   -0.001731    0.000000
siesta:    -0.001731   -1.762083    0.000000
siesta:     0.000000    0.000000   -0.000329

siesta: Cell volume =       1893.226884 Ang**3

siesta: Pressure (static):
siesta:                Solid            Molecule  Units
siesta:           0.00818127          0.12170058  Ry/Bohr**3
siesta:           0.75117636         11.17413364  eV/Ang**3
siesta:        1203.53021487      17903.12934050  kBar
(Free)E+ p_basis*V_orbitals  =       -9544.401921
(Free)Eharris+ p_basis*V_orbitals  =       -9544.403374

siesta: Electric dipole (a.u.)  =    0.000000    0.000000    0.000000
siesta: Electric dipole (Debye) =    0.000000    0.000000    0.000000

* Maximum dynamic memory allocated : Node    0 =   238 MB
* Maximum dynamic memory allocated : Node    1 =    83 MB
* Maximum dynamic memory allocated : Node    2 =    86 MB
* Maximum dynamic memory allocated : Node    3 =   225 MB
* Maximum dynamic memory allocated : Node    4 =   219 MB
* Maximum dynamic memory allocated : Node    5 =    80 MB
* Maximum dynamic memory allocated : Node    6 =    84 MB
* Maximum dynamic memory allocated : Node    7 =   202 MB

* Maximum memory occured during matrixMtoO                    

timer: CPU execution times:
timer:  Routine       Calls   Time/call    Tot.time        %
timer:  siesta            1  193904.199  193904.199   100.00
timer:  Setup             1       2.747       2.747     0.00
timer:  bands             3     243.910     731.729     0.38
timer:  writewave         1       0.020       0.020     0.00
timer:  KSV_init          1       0.002       0.002     0.00
timer:  IterMD            1  193162.058  193162.058    99.62
timer:  hsparse           1       0.515       0.515     0.00
timer:  overlap           1       7.186       7.186     0.00
timer:  IterSCF          38    5078.009  192964.345    99.52
timer:  kinefsm           2       3.739       7.478     0.00
timer:  nlefsm            2      19.357      38.715     0.02
timer:  DHSCF            39     101.980    3977.214     2.05
timer:  DHSCF1            1       0.992       0.992     0.00
timer:  DHSCF2            1      41.744      41.744     0.02
timer:  REORD           314       0.005       1.565     0.00
timer:  POISON           40       0.877      35.082     0.02
timer:  DHSCF3           39      99.889    3895.684     2.01
timer:  rhoofd           39      21.743     847.975     0.44
timer:  cellXC           39       3.214     125.365     0.06
timer:  vmat             39      47.294    1844.453     0.95
timer:  MolMec            2       0.000       0.000     0.00
timer:  diagon           38    4975.379  189064.388    97.50
timer:  c-eigval      13497       6.014   81176.878    41.86
timer:  c-buildHS     13497       0.051     692.679     0.36
timer:  cdiag         26873       6.150  165260.149    85.23
timer:  cdiag1        26873       0.384   10324.610     5.32
timer:  cdiag2        26873       1.768   47511.445    24.50
timer:  cdiag3        26873       3.721   99996.516    51.57
timer:  cdiag4        26873       0.158    4258.346     2.20
timer:  c-eigvec      13376       6.382   85363.106    44.02
timer:  c-buildD      13376       1.733   23187.110    11.96
timer:  DHSCF4            1      38.027      38.027     0.02
timer:  dfscf             1      35.307      35.307     0.02
timer:  overfsm           1       0.443       0.443     0.00
timer:  optical           1       6.691       6.691     0.00
  

elaps: ELAPSED times:
elaps:  Routine       Calls   Time/call    Tot.time        %
elaps:  siesta            1   24282.935   24282.935   100.00
elaps:  Setup             1       0.344       0.344     0.00
elaps:  bands             3      30.562      91.687     0.38
elaps:  writewave         1       0.002       0.002     0.00
elaps:  KSV_init          1       0.000       0.000     0.00
elaps:  IterMD            1   24189.995   24189.995    99.62
elaps:  hsparse           1       0.064       0.064     0.00
elaps:  overlap           1       0.905       0.905     0.00
elaps:  IterSCF          38     635.927   24165.237    99.52
elaps:  kinefsm           2       0.470       0.941     0.00
elaps:  nlefsm            2       2.446       4.891     0.02
elaps:  DHSCF            39      12.898     503.011     2.07
elaps:  DHSCF1            1       0.126       0.126     0.00
elaps:  DHSCF2            1       5.228       5.228     0.02
elaps:  REORD           314       0.001       0.208     0.00
elaps:  POISON           40       0.110       4.417     0.02
elaps:  DHSCF3           39      12.510     487.888     2.01
elaps:  rhoofd           39       6.052     236.018     0.97
elaps:  cellXC           39       0.402      15.687     0.06
elaps:  vmat             39       5.923     230.995     0.95
elaps:  MolMec            2       0.000       0.000     0.00
elaps:  diagon           38     623.082   23677.121    97.51
elaps:  c-eigval      13497       0.753   10165.824    41.86
elaps:  c-buildHS     13497       0.007      94.740     0.39
elaps:  cdiag         26873       0.766   20571.876    84.72
elaps:  cdiag1        26873       0.048    1296.196     5.34
elaps:  cdiag2        26873       0.221    5951.110    24.51
elaps:  cdiag3        26873       0.467   12539.582    51.64
elaps:  cdiag4        26873       0.019     522.907     2.15
elaps:  c-eigvec      13376       0.791   10581.251    43.57
elaps:  c-buildD      13376       0.225    3012.237    12.40
elaps:  DHSCF4            1       9.677       9.677     0.04
elaps:  dfscf             1       9.131       9.131     0.04
elaps:  overfsm           1       0.057       0.057     0.00
elaps:  optical           1       0.000       0.000     0.00
  
>> End of run:   9-MAY-2016  11:51:01
