Siesta Version:                                        siesta-3.2-pl-3
Architecture  : x86_64-unknown-linux-gnu--unknown
Compiler flags: mpiifort -g -O2 -fPIC -xSSE4.1 -fp-model source -shared-intel 
PARALLEL version

* Running on   12 nodes in parallel
>> Start of run:   6-MAY-2016   4:54:21

                           ***********************       
                           *  WELCOME TO SIESTA  *       
                           ***********************       

reinit: Reading from standard input
************************** Dump of input data file ****************************
#(1) General system descriptors
SystemName            GRP_doping    # Descriptive name of the system
SystemLabel           GRP_doping    # Short name for naming files
%include STRUCT.fdf
%include KPT.fdf
%include BASIS.fdf
#%include TS.fdf # for transiesta calculation
#(4) DFT, Grid, SCF
XC.functional         GGA           # LDA or GGA (default = LDA)
XC.authors            PBE           # CA (Ceperley-Aldr) = PZ
                                    #    (Perdew-Zunger) - LDA - Default
                                    # PW92 (Perdew-Wang-92) - LDA
                                    # PBE (Perdew-Burke-Ernzerhof) - GGA
MeshCutoff            200.000000    Ry      # Default: 50.0 Ry ~ 0.444 Bohr
                                    #         100.0 Ry ~ 0.314 Bohr
MaxSCFIterations      500           # Default: 50
DM.MixingWeight       0.05          # Default: 0.25
DM.NumberPulay        10            # Default: 0
DM.PulayOnFile        F             # SystemLabel.P1, SystemLabel.P2
DM.Tolerance          1.d-4         # Default: 1.d-4
DM.UseSaveDM          .true.        # because of the bug
SCFMustConverge       .true.
NeglNonOverlapInt     F             # Default: F
#(5) Eigenvalue problem: order-N or diagonalization
SolutionMethod        Diagon        # or Transiesta
ElectronicTemperature 300.0 K       # Default: 300.0 K
#(6) Molecular dynamics and relaxations
#MD.TypeOfRun          CG            # Type of dynamics:
#MD.VariableCell       F
#MD.NumCGsteps         0           # 0 for single-point / 100 for gopt
#MD.MaxCGDispl         0.2 Bohr      # Default: 0.2 Bohr
#MD.MaxForceTol        0.02 eV/Ang   # Default: 0.04 eV/Ang
#MD.MaxStressTol       1.0 GPa       # Default: 1.0 GPa
# Geometry Constraints
#%block GeometryConstraints
#	position from 1 to 44
#%endblock GeometryConstraints
BandLinesScale   pi/a
%block BandLines
 1   0.00000000  0.00000000  0.00000000
50   0.00000000  0.07809418  0.00000000
50   0.04509075  0.07809242  0.00000000
20   0.00000000  0.00000000  0.00000000
%endblock BandLines
************************** End of input data file *****************************

reinit: -----------------------------------------------------------------------
reinit: System Name: GRP_doping
reinit: -----------------------------------------------------------------------
reinit: System Label: GRP_doping                                                  
reinit: -----------------------------------------------------------------------

initatom: Reading input for the pseudopotentials and atomic orbitals ----------
 Species number:            1  Label: B Atomic number:           5
 Species number:            2  Label: C Atomic number:           6
Ground state valence configuration:   2s02  2p01
Reading pseudopotential information in formatted form from B.psf

Valence configuration for pseudopotential generation:
2s( 2.00) rc: 1.74
2p( 1.00) rc: 1.74
3d( 0.00) rc: 1.74
4f( 0.00) rc: 1.74
Ground state valence configuration:   2s02  2p02
Reading pseudopotential information in formatted form from C.psf

Valence configuration for pseudopotential generation:
2s( 2.00) rc: 1.54
2p( 2.00) rc: 1.54
3d( 0.00) rc: 1.54
4f( 0.00) rc: 1.54
For B, standard SIESTA heuristics set lmxkb to 3
 (one more than the basis l, including polarization orbitals).
Use PS.lmax or PS.KBprojectors blocks to override.
For C, standard SIESTA heuristics set lmxkb to 3
 (one more than the basis l, including polarization orbitals).
Use PS.lmax or PS.KBprojectors blocks to override.

<basis_specs>
===============================================================================
B                    Z=   5    Mass=  10.810        Charge= 0.17977+309
Lmxo=1 Lmxkb= 3    BasisType=split      Semic=F
L=0  Nsemic=0  Cnfigmx=2
          n=1  nzeta=2  polorb=0
            splnorm:   0.15000    
               vcte:    0.0000    
               rinn:    0.0000    
                rcs:    0.0000      0.0000    
            lambdas:    1.0000      1.0000    
L=1  Nsemic=0  Cnfigmx=2
          n=1  nzeta=2  polorb=1
            splnorm:   0.15000    
               vcte:    0.0000    
               rinn:    0.0000    
                rcs:    0.0000      0.0000    
            lambdas:    1.0000      1.0000    
-------------------------------------------------------------------------------
L=0  Nkbl=1  erefs: 0.17977+309
L=1  Nkbl=1  erefs: 0.17977+309
L=2  Nkbl=1  erefs: 0.17977+309
L=3  Nkbl=1  erefs: 0.17977+309
===============================================================================
</basis_specs>

atom: Called for B                     (Z =   5)

read_vps: Pseudopotential generation method:
read_vps: ATM3      Troullier-Martins                       
Total valence charge:    3.00000

read_vps: Pseudopotential includes a core correction:
read_vps: Pseudo-core for xc-correction

xc_check: Exchange-correlation functional:
xc_check: GGA Perdew, Burke & Ernzerhof 1996
V l=0 = -2*Zval/r beyond r=  1.7165
V l=1 = -2*Zval/r beyond r=  1.7165
V l=2 = -2*Zval/r beyond r=  1.7165
V l=3 = -2*Zval/r beyond r=  1.6951
All V_l potentials equal beyond r=  1.7165
This should be close to max(r_c) in ps generation
All pots = -2*Zval/r beyond r=  1.7165

VLOCAL1: 99.0% of the norm of Vloc inside     14.733 Ry
VLOCAL1: 99.9% of the norm of Vloc inside     33.577 Ry
atom: Maximum radius for 4*pi*r*r*local-pseudopot. charge    2.04484
atom: Maximum radius for r*vlocal+2*Zval:    1.75994
GHOST: No ghost state for L =  0
GHOST: No ghost state for L =  1
GHOST: No ghost state for L =  2
GHOST: No ghost state for L =  3

KBgen: Kleinman-Bylander projectors: 
   l= 0   rc=  1.897051   el= -0.693730   Ekb=  4.595746   kbcos=  0.286105
   l= 1   rc=  1.920920   el= -0.265236   Ekb= -2.350715   kbcos= -0.315747
   l= 2   rc=  2.044840   el=  0.002055   Ekb= -0.690767   kbcos= -0.013822
   l= 3   rc=  2.149707   el=  0.003188   Ekb= -0.315358   kbcos= -0.002055

KBgen: Total number of  Kleinman-Bylander projectors:   16
atom: -------------------------------------------------------------------------

atom: SANKEY-TYPE ORBITALS:
atom: Selected multiple-zeta basis: split     

SPLIT: Orbitals with angular momentum L= 0

SPLIT: Basis orbitals for state 2s

SPLIT: PAO cut-off radius determined from an
SPLIT: energy shift=  0.007350 Ry

   izeta = 1
                 lambda =    1.000000
                     rc =    5.422032
                 energy =   -0.686029
                kinetic =    0.576707
    potential(screened) =   -1.262736
       potential(ionic) =   -3.271094

   izeta = 2
                 rmatch =    4.222573
              splitnorm =    0.150000
                 energy =   -0.602132
                kinetic =    0.858975
    potential(screened) =   -1.461107
       potential(ionic) =   -3.582536

SPLIT: Orbitals with angular momentum L= 1

SPLIT: Basis orbitals for state 2p

SPLIT: PAO cut-off radius determined from an
SPLIT: energy shift=  0.007350 Ry

   izeta = 1
                 lambda =    1.000000
                     rc =    6.790259
                 energy =   -0.258578
                kinetic =    1.481412
    potential(screened) =   -1.739989
       potential(ionic) =   -3.657461

   izeta = 2
                 rmatch =    4.608740
              splitnorm =    0.150000
                 energy =   -0.173757
                kinetic =    2.186690
    potential(screened) =   -2.360447
       potential(ionic) =   -4.464260

POLgen: Perturbative polarization orbital with L=  2

POLgen: Polarization orbital for state 2p

   izeta = 1
                     rc =    6.790259
                 energy =    0.684082
                kinetic =    1.471481
    potential(screened) =   -0.787399
       potential(ionic) =   -2.406985
atom: Total number of Sankey-type orbitals: 13

atm_pop: Valence configuration (for local Pseudopot. screening):
 2s( 2.00)                                                            
 2p( 1.00)                                                            
Vna: chval, zval:    3.00000   3.00000

Vna:  Cut-off radius for the neutral-atom potential:   6.790259
comcore: Pseudo-core radius Rcore=  2.122997

atom: _________________________________________________________________________

<basis_specs>
===============================================================================
C                    Z=   6    Mass=  12.010        Charge= 0.17977+309
Lmxo=1 Lmxkb= 3    BasisType=split      Semic=F
L=0  Nsemic=0  Cnfigmx=2
          n=1  nzeta=2  polorb=0
            splnorm:   0.15000    
               vcte:    0.0000    
               rinn:    0.0000    
                rcs:    0.0000      0.0000    
            lambdas:    1.0000      1.0000    
L=1  Nsemic=0  Cnfigmx=2
          n=1  nzeta=2  polorb=1
            splnorm:   0.15000    
               vcte:    0.0000    
               rinn:    0.0000    
                rcs:    0.0000      0.0000    
            lambdas:    1.0000      1.0000    
-------------------------------------------------------------------------------
L=0  Nkbl=1  erefs: 0.17977+309
L=1  Nkbl=1  erefs: 0.17977+309
L=2  Nkbl=1  erefs: 0.17977+309
L=3  Nkbl=1  erefs: 0.17977+309
===============================================================================
</basis_specs>

atom: Called for C                     (Z =   6)

read_vps: Pseudopotential generation method:
read_vps: ATM3      Troullier-Martins                       
Total valence charge:    4.00000

read_vps: Pseudopotential includes a core correction:
read_vps: Pseudo-core for xc-correction

xc_check: Exchange-correlation functional:
xc_check: GGA Perdew, Burke & Ernzerhof 1996
V l=0 = -2*Zval/r beyond r=  1.5227
V l=1 = -2*Zval/r beyond r=  1.5227
V l=2 = -2*Zval/r beyond r=  1.5227
V l=3 = -2*Zval/r beyond r=  1.5038
All V_l potentials equal beyond r=  1.5227
This should be close to max(r_c) in ps generation
All pots = -2*Zval/r beyond r=  1.5227

VLOCAL1: 99.0% of the norm of Vloc inside     18.722 Ry
VLOCAL1: 99.9% of the norm of Vloc inside     42.668 Ry
atom: Maximum radius for 4*pi*r*r*local-pseudopot. charge    1.83678
atom: Maximum radius for r*vlocal+2*Zval:    1.58088
GHOST: No ghost state for L =  0
GHOST: No ghost state for L =  1
GHOST: No ghost state for L =  2
GHOST: No ghost state for L =  3

KBgen: Kleinman-Bylander projectors: 
   l= 0   rc=  1.704034   el= -1.009801   Ekb=  5.335044   kbcos=  0.316824
   l= 1   rc=  1.704034   el= -0.388707   Ekb= -3.785862   kbcos= -0.366464
   l= 2   rc=  1.791422   el=  0.001971   Ekb= -0.970471   kbcos= -0.009212
   l= 3   rc=  1.859892   el=  0.003065   Ekb= -0.399525   kbcos= -0.001223

KBgen: Total number of  Kleinman-Bylander projectors:   16
atom: -------------------------------------------------------------------------

atom: SANKEY-TYPE ORBITALS:
atom: Selected multiple-zeta basis: split     

SPLIT: Orbitals with angular momentum L= 0

SPLIT: Basis orbitals for state 2s

SPLIT: PAO cut-off radius determined from an
SPLIT: energy shift=  0.007350 Ry

   izeta = 1
                 lambda =    1.000000
                     rc =    4.632753
                 energy =   -1.002270
                kinetic =    0.855760
    potential(screened) =   -1.858031
       potential(ionic) =   -5.417575

   izeta = 2
                 rmatch =    3.431921
              splitnorm =    0.150000
                 energy =   -0.867111
                kinetic =    1.300804
    potential(screened) =   -2.167915
       potential(ionic) =   -5.962684

SPLIT: Orbitals with angular momentum L= 1

SPLIT: Basis orbitals for state 2p

SPLIT: PAO cut-off radius determined from an
SPLIT: energy shift=  0.007350 Ry

   izeta = 1
                 lambda =    1.000000
                     rc =    5.658549
                 energy =   -0.381140
                kinetic =    2.399701
    potential(screened) =   -2.780841
       potential(ionic) =   -6.206085

   izeta = 2
                 rmatch =    3.653288
              splitnorm =    0.150000
                 energy =   -0.249149
                kinetic =    3.542762
    potential(screened) =   -3.791911
       potential(ionic) =   -7.581078

POLgen: Perturbative polarization orbital with L=  2

POLgen: Polarization orbital for state 2p

   izeta = 1
                     rc =    5.658549
                 energy =    1.109913
                kinetic =    2.304789
    potential(screened) =   -1.194876
       potential(ionic) =   -4.013592
atom: Total number of Sankey-type orbitals: 13

atm_pop: Valence configuration (for local Pseudopot. screening):
 2s( 2.00)                                                            
 2p( 2.00)                                                            
Vna: chval, zval:    4.00000   4.00000

Vna:  Cut-off radius for the neutral-atom potential:   5.658549
comcore: Pseudo-core radius Rcore=  1.791422

atom: _________________________________________________________________________

prinput: Basis input ----------------------------------------------------------

PAO.BasisType split     

%block ChemicalSpeciesLabel
    1    5 B                       # Species index, atomic number, species label
    2    6 C                       # Species index, atomic number, species label
%endblock ChemicalSpeciesLabel

%block PAO.Basis                 # Define Basis set
B                     2                    # Species label, number of l-shells
 n=2   0   2                         # n, l, Nzeta 
   5.422      4.223   
   1.000      1.000   
 n=2   1   2 P   1                   # n, l, Nzeta, Polarization, NzetaPol
   6.790      4.609   
   1.000      1.000   
C                     2                    # Species label, number of l-shells
 n=2   0   2                         # n, l, Nzeta 
   4.633      3.432   
   1.000      1.000   
 n=2   1   2 P   1                   # n, l, Nzeta, Polarization, NzetaPol
   5.659      3.653   
   1.000      1.000   
%endblock PAO.Basis

prinput: ----------------------------------------------------------------------

coor:   Atomic-coordinates input format  =     Fractional

siesta: Atomic coordinates (Bohr) and species
siesta:      2.30256  14.69411   0.00000  1        1
siesta:      4.63094  18.72698   0.00000  1        2
siesta:     -4.68258  13.34970   0.00000  1        3
siesta:     -2.35420  17.38257   0.00000  1        4
siesta:     -0.02582  21.41544   0.00000  1        5
siesta:      2.30256  25.44831   0.00000  1        6
siesta:     -7.01096  17.38257   0.00000  1        7
siesta:     -2.35420  25.44831   0.00000  1        8
siesta:     -9.33934  21.41544   0.00000  1        9
siesta:     -7.01096  25.44831   0.00000  1       10
siesta:      4.63094  29.48119   0.00000  1       11
siesta:     -4.68258  29.48119   0.00000  1       12
siesta:      2.30256  33.51406   0.00000  1       13
siesta:     -2.35420  33.51406   0.00000  1       14
siesta:     -0.02582  37.54693   0.00000  1       15
siesta:     -0.02582   2.59549   0.00000  2       16
siesta:     -0.02582   5.28395   0.00000  2       17
siesta:     -2.35420  38.89134   0.00000  2       18
siesta:     -2.35420  41.57980   0.00000  2       19
siesta:      2.30256  38.89134   0.00000  2       20
siesta:      2.30256  41.57980   0.00000  2       21
siesta:      4.63094  34.85847   0.00000  2       22
siesta:      4.63094  37.54693   0.00000  2       23
siesta:      6.95932  30.82560   0.00000  2       24
siesta:      6.95932  33.51406   0.00000  2       25
siesta:      9.28770  26.79272   0.00000  2       26
siesta:      9.28770  29.48119   0.00000  2       27
siesta:     -4.68258  34.85847   0.00000  2       28
siesta:     -4.68258  37.54693   0.00000  2       29
siesta:      2.30256   6.62836   0.00000  2       30
siesta:      2.30256   9.31683   0.00000  2       31
siesta:      4.63094  10.66124   0.00000  2       32
siesta:      4.63094  13.34970   0.00000  2       33
siesta:      6.95932  14.69411   0.00000  2       34
siesta:      6.95932  17.38257   0.00000  2       35
siesta:      9.28770  18.72698   0.00000  2       36
siesta:      9.28770  21.41544   0.00000  2       37
siesta:     11.61608  22.75985   0.00000  2       38
siesta:     11.61608  25.44831   0.00000  2       39
siesta:     -2.35420   6.62836   0.00000  2       40
siesta:     -2.35420   9.31683   0.00000  2       41
siesta:     -0.02582  10.66124   0.00000  2       42
siesta:     -0.02582  13.34970   0.00000  2       43
siesta:      2.30256  17.38257   0.00000  2       44
siesta:      4.63094  21.41544   0.00000  2       45
siesta:      6.95932  22.75985   0.00000  2       46
siesta:      6.95932  25.44831   0.00000  2       47
siesta:     -4.68258  10.66124   0.00000  2       48
siesta:     -2.35420  14.69411   0.00000  2       49
siesta:     -0.02582  18.72698   0.00000  2       50
siesta:      2.30256  22.75985   0.00000  2       51
siesta:     -7.01096  14.69411   0.00000  2       52
siesta:     -4.68258  18.72698   0.00000  2       53
siesta:     -4.68258  21.41544   0.00000  2       54
siesta:     -2.35420  22.75985   0.00000  2       55
siesta:     -9.33934  18.72698   0.00000  2       56
siesta:     -7.01096  22.75985   0.00000  2       57
siesta:    -11.66772  22.75985   0.00000  2       58
siesta:    -11.66772  25.44831   0.00000  2       59
siesta:     -9.33934  26.79272   0.00000  2       60
siesta:     -9.33934  29.48119   0.00000  2       61
siesta:      4.63094  26.79272   0.00000  2       62
siesta:     -0.02582  26.79272   0.00000  2       63
siesta:     -0.02582  29.48119   0.00000  2       64
siesta:     -4.68258  26.79272   0.00000  2       65
siesta:      2.30256  30.82560   0.00000  2       66
siesta:     -2.35420  30.82560   0.00000  2       67
siesta:     -7.01096  30.82560   0.00000  2       68
siesta:     -7.01096  33.51406   0.00000  2       69
siesta:     -0.02582  34.85847   0.00000  2       70
siesta:     -0.02582  42.92421   0.00000  2       71
siesta:     -0.02582  45.61267   0.00000  2       72

siesta: System type = slab      

initatomlists: Number of atoms, orbitals, and projectors:     72   936  1152

siesta: ******************** Simulation parameters ****************************
siesta:
siesta: The following are some of the parameters of the simulation.
siesta: A complete list of the parameters used, including default values,
siesta: can be found in file out.fdf
siesta:
redata: Non-Collinear-spin run           =     F
redata: SpinPolarized (Up/Down) run      =     F
redata: Number of spin components        =     1
redata: Long output                      =     F
redata: Number of Atomic Species         =        2
redata: Charge density info will appear in .RHO file
redata: Write Mulliken Pop.              =     NO
redata: Mesh Cutoff                      =   200.0000  Ry
redata: Net charge of the system         =     0.0000 |e|
redata: Max. number of SCF Iter          =      500
redata: SCF convergence failure will abort job
redata: Performing Pulay mixing using    =    10 iterations
redata: Mix DM in first SCF step ?       =     F
redata: Write Pulay info on disk?        =     F
redata: Discard 1st Pulay DM after  kick =     F
redata: New DM Mixing Weight             =     0.0500
redata: New DM Occupancy tolerance       = 0.000000000001
redata: No kicks to SCF
redata: DM Mixing Weight for Kicks       =     0.5000
redata: DM Tolerance for SCF             =     0.000100
redata: Require Energy convergence for SCF =     F
redata: DM Energy tolerance for SCF      =     0.000100 eV
redata: Require Harris convergence for SCF =     F
redata: DM Harris energy tolerance for SCF =     0.000100 eV
redata: Using Saved Data (generic)   =     F
redata: Use continuation files for DM    =     T
redata: Neglect nonoverlap interactions  =     F
redata: Method of Calculation            =     Diagonalization
redata: Divide and Conquer               =     T
redata: Electronic Temperature           =     0.0019  Ry
redata: Fix the spin of the system       =     F
redata: Dynamics option                  =     Verlet MD run
redata: Initial MD time step             =        1
redata:   Final MD time step             =        1
redata: Length of MD time step           =     1.0000  fs
redata: Initial Temperature of MD run    =     0.0000  K
redata: Perform a MD quench              =     F
redata: ***********************************************************************
Total number of electrons:   273.000000
Total ionic charge:   273.000000

* ProcessorY, Blocksize:    3  24

k-point displ. along   1 input, could be:     0.50    0.00
k-point displ. along   2 input, could be:     0.50    0.00
 Kpoints in:          231 . Kpoints trimmed:          231

siesta: k-grid: Number of k-points =   231
siesta: k-grid: Cutoff (effective) =     5.000 Ang
siesta: k-grid: Supercell and displacements
siesta: k-grid:   21   0   0      0.500
siesta: k-grid:    0  21   0      0.500
siesta: k-grid:    0   0   1      0.000
Naive supercell factors:     2    2    2

superc: Internal auxiliary supercell:     2 x     2 x     2  =       8
superc: Number of atoms, orbitals, and projectors:    576   7488   9216

* Maximum dynamic memory allocated =     4 MB

siesta:                 ==============================
                            Begin MD step =      1
                        ==============================

superc: Internal auxiliary supercell:     2 x     2 x     2  =       8
superc: Number of atoms, orbitals, and projectors:    576   7488   9216

outcell: Unit cell vectors (Ang):
       12.804619    7.392750    0.000000
        0.000000   14.785500    0.000000
        0.000000    0.000000   10.000000

outcell: Cell vector modules (Ang)   :   14.785500   14.785500   10.000000
outcell: Cell angles (23,13,12) (deg):     90.0000     90.0000     60.0000
outcell: Cell volume (Ang**3)        :   1893.2269
New_DM. Step:     1
Initializing Density Matrix...

InitMesh: MESH =   120 x   120 x    90 =     1296000
InitMesh: Mesh cutoff (required, used) =   200.000   223.865 Ry

* Maximum dynamic memory allocated =   155 MB

stepf: Fermi-Dirac step function

siesta: Program's energy decomposition (eV):
siesta: Ebs     =     -5623.559431
siesta: Eions   =     16482.160403
siesta: Ena     =      4343.495720
siesta: Ekin    =      5587.107004
siesta: Enl     =       756.523399
siesta: DEna    =        -0.000010
siesta: DUscf   =         0.000000
siesta: DUext   =         0.000000
siesta: Exc     =     -4189.448170
siesta: eta*DQ  =         0.000000
siesta: Emadel  =         0.000000
siesta: Emeta   =         0.000000
siesta: Emolmec =         0.000000
siesta: Ekinion =         0.000000
siesta: Eharris =     -9721.725292
siesta: Etot    =     -9984.482459
siesta: FreeEng =     -9984.482459

siesta: iscf   Eharris(eV)      E_KS(eV)   FreeEng(eV)   dDmax  Ef(eV)
siesta:    1    -9721.7253    -9984.4825    -9984.4825  7.0143 -8.4045
timer: Routine,Calls,Time,% = IterSCF        1    3039.513  99.59
elaps: Routine,Calls,Wall,% = IterSCF        1     253.894  99.59
siesta:    2   -14022.6016    -9054.5211    -9054.5837 18.9006 -2.4708
siesta:    3    -9668.6037    -9850.0750    -9850.1426  3.7620 -7.3726
siesta:    4    -9638.3350    -9736.0683    -9736.1562  1.6046 -6.0644
siesta:    5    -9601.7388    -9665.7357    -9665.7793  0.9719 -5.7461
siesta:    6    -9590.4309    -9607.7013    -9607.7192  0.8366 -5.3561
siesta:    7    -9587.3648    -9595.0111    -9595.0390  0.8879 -5.3648
siesta:    8    -9584.3011    -9573.5003    -9573.5603  0.6614 -5.0389
siesta:    9    -9584.1478    -9567.7097    -9567.7730  0.5047 -4.9855
siesta:   10    -9583.1981    -9559.5051    -9559.5767  0.3184 -4.9867
siesta:   11    -9581.4790    -9555.9548    -9556.0047  0.1557 -5.0773
siesta:   12    -9581.4486    -9556.4802    -9556.5128  0.1516 -5.1221
siesta:   13    -9580.4978    -9560.2427    -9560.2804  0.0933 -5.1564
siesta:   14    -9580.2806    -9568.2871    -9568.3172  0.0720 -5.2145
siesta:   15    -9580.1593    -9569.8551    -9569.8854  0.0676 -5.1934
siesta:   16    -9579.9959    -9571.8736    -9571.9034  0.0450 -5.1788
siesta:   17    -9579.9715    -9575.3997    -9575.4314  0.0386 -5.1839
siesta:   18    -9579.9703    -9578.1132    -9578.1451  0.0266 -5.2007
siesta:   19    -9579.9527    -9579.8586    -9579.8907  0.0295 -5.1972
siesta:   20    -9579.9510    -9580.4646    -9580.4962  0.0249 -5.1863
siesta:   21    -9579.9477    -9580.3590    -9580.3906  0.0078 -5.1778
siesta:   22    -9579.9469    -9580.4659    -9580.4979  0.0061 -5.1782
siesta:   23    -9579.9460    -9580.4186    -9580.4506  0.0045 -5.1769
siesta:   24    -9579.9459    -9580.3875    -9580.4192  0.0037 -5.1763
siesta:   25    -9579.9457    -9580.3195    -9580.3511  0.0023 -5.1762
siesta:   26    -9579.9456    -9580.3026    -9580.3343  0.0021 -5.1769
siesta:   27    -9579.9456    -9580.1284    -9580.1601  0.0012 -5.1769
siesta:   28    -9579.9457    -9580.0096    -9580.0413  0.0007 -5.1766
siesta:   29    -9579.9456    -9579.9753    -9580.0070  0.0005 -5.1767
siesta:   30    -9579.9456    -9579.9697    -9580.0013  0.0002 -5.1770
siesta:   31    -9579.9456    -9579.9747    -9580.0064  0.0001 -5.1771
siesta:   32    -9579.9456    -9579.9734    -9580.0051  0.0001 -5.1770
siesta:   33    -9579.9456    -9579.9622    -9579.9939  0.0001 -5.1770

siesta: E_KS(eV) =            -9579.9552

siesta: E_KS - E_eggbox =     -9579.9552

siesta: Atomic forces (eV/Ang):
----------------------------------------
   Tot   -0.104274   -0.019403    0.000000
----------------------------------------
   Max  564.075443
   Res  143.955909    sqrt( Sum f_i^2 / 3N )
----------------------------------------
   Max  564.075443    constrained

Stress-tensor-Voigt (kbar):     -787.18    -2597.19       -0.53       -0.42        0.00        0.00
(Free)E + p*V (eV/cell)    -8246.7348
Target enthalpy (eV/cell)    -9579.9869

siesta: Stress tensor (static) (eV/Ang**3):
        -0.491312   -0.000259    0.000000
        -0.000259   -1.621021    0.000000
         0.000000    0.000000   -0.000333

siesta: Pressure (static):       1128.30031584  kBar

siesta: Stress tensor (total) (eV/Ang**3):
        -0.491312   -0.000259    0.000000
        -0.000259   -1.621021    0.000000
         0.000000    0.000000   -0.000333

siesta: Pressure (total):       1128.30031584  kBar

siesta: Temp_ion =       0.000 K

* Maximum dynamic memory allocated =   167 MB
Computing bands...

siesta: Program's energy decomposition (eV):
siesta: Ebs     =     -4253.811041
siesta: Eions   =     16482.160403
siesta: Ena     =      4343.495720
siesta: Ekin    =      8472.567523
siesta: Enl     =      -874.694287
siesta: DEna    =      -781.898037
siesta: DUscf   =       104.494982
siesta: DUext   =         0.000000
siesta: Exc     =     -4361.760696
siesta: eta*DQ  =         0.000000
siesta: Emadel  =         0.000000
siesta: Emeta   =         0.000000
siesta: Emolmec =         0.000000
siesta: Ekinion =         0.000000
siesta: Eharris =     -9579.945629
siesta: Etot    =     -9579.955198
siesta: FreeEng =     -9579.986891

siesta: Final energy (eV):
siesta:  Band Struct. =   -4253.811041
siesta:       Kinetic =    8472.567523
siesta:       Hartree =   27382.775627
siesta:    Ext. field =       0.000000
siesta:   Exch.-corr. =   -4361.760696
siesta:  Ion-electron =  -62925.200202
siesta:       Ion-ion =   21851.662551
siesta:       Ekinion =       0.000000
siesta:         Total =   -9579.955198

siesta: Atomic forces (eV/Ang):
siesta:      1   28.191419  405.180516    0.000000
siesta:      2   -1.275427    0.438598    0.000000
siesta:      3  -21.585190   -0.813816    0.000000
siesta:      4  -19.525619   -2.585070    0.000000
siesta:      5   -0.478456    0.974176    0.000000
siesta:      6    0.704538    0.753598    0.000000
siesta:      7   -4.214560   -2.588410    0.000000
siesta:      8   -0.407517    0.852384    0.000000
siesta:      9   -3.534776   -2.843766    0.000000
siesta:     10    1.244427   -0.669545    0.000000
siesta:     11   -1.034802   -1.097442    0.000000
siesta:     12    1.378707   -1.248903    0.000000
siesta:     13   25.781432 -401.813200    0.000000
siesta:     14  -24.945267 -400.721044    0.000000
siesta:     15   -3.312152 -392.811747    0.000000
siesta:     16    0.203361  552.599921    0.000000
siesta:     17    0.749750 -126.521373    0.000000
siesta:     18    5.191255  118.052266    0.000000
siesta:     19  -10.855330 -549.098833    0.000000
siesta:     20   -6.309529  114.249931    0.000000
siesta:     21   12.043339 -402.665145    0.000000
siesta:     22   25.355225   -0.288506    0.000000
siesta:     23   32.557541 -551.244579    0.000000
siesta:     24    6.572713    2.261633    0.000000
siesta:     25   -2.894288    2.110189    0.000000
siesta:     26    2.571422    1.642376    0.000000
siesta:     27   -1.547382    0.599048    0.000000
siesta:     28  -24.482178    0.420230    0.000000
siesta:     29  -32.782502 -555.369112    0.000000
siesta:     30   17.826904  401.828203    0.000000
siesta:     31    1.868573 -119.335430    0.000000
siesta:     32   33.207660  551.245582    0.000000
siesta:     33   25.618452    0.602220    0.000000
siesta:     34   -2.922045   -2.292902    0.000000
siesta:     35    6.434807   -2.069332    0.000000
siesta:     36   -1.584879   -0.962790    0.000000
siesta:     37    2.341820   -1.076398    0.000000
siesta:     38   -0.341560    6.137439    0.000000
siesta:     39   -0.139223   -6.175599    0.000000
siesta:     40  -19.293522  401.526340    0.000000
siesta:     41   -4.576268 -120.929914    0.000000
siesta:     42    2.252166  401.870606    0.000000
siesta:     43    6.017581 -117.448803    0.000000
siesta:     44   19.315409   -4.770576    0.000000
siesta:     45   -0.820153    4.051081    0.000000
siesta:     46    0.105612    0.975359    0.000000
siesta:     47   -0.685664   -0.649812    0.000000
siesta:     48  -31.803551  549.829903    0.000000
siesta:     49  -35.808915  552.507492    0.000000
siesta:     50   -0.193761  557.339637    0.000000
siesta:     51    3.574136   -2.584623    0.000000
siesta:     52    1.123383   -4.079715    0.000000
siesta:     53    3.195574    2.926811    0.000000
siesta:     54    0.178465    1.105993    0.000000
siesta:     55   -2.146137   -3.022366    0.000000
siesta:     56   -0.480790    0.045998    0.000000
siesta:     57    3.425755   -1.521455    0.000000
siesta:     58   -3.799869    9.453981    0.000000
siesta:     59    0.199842   -7.133654    0.000000
siesta:     60   -6.487868    4.267281    0.000000
siesta:     61    1.677836   -0.241881    0.000000
siesta:     62    3.026329   -1.918400    0.000000
siesta:     63   -0.101889    3.510074    0.000000
siesta:     64   -0.209813 -564.075443    0.000000
siesta:     65   -0.030899   -0.019619    0.000000
siesta:     66   19.244696    6.215095    0.000000
siesta:     67  -19.174132    6.331434    0.000000
siesta:     68   -6.471121    3.344406    0.000000
siesta:     69    2.214891    1.464972    0.000000
siesta:     70   -0.292195  110.245759    0.000000
siesta:     71   -0.112593  126.069691    0.000000
siesta:     72    1.162526 -550.360426    0.000000
siesta: ----------------------------------------
siesta:    Tot   -0.104274   -0.019403    0.000000

siesta: Stress tensor (static) (eV/Ang**3):
siesta:    -0.491312   -0.000259    0.000000
siesta:    -0.000259   -1.621021    0.000000
siesta:     0.000000    0.000000   -0.000333

siesta: Cell volume =       1893.226884 Ang**3

siesta: Pressure (static):
siesta:                Solid            Molecule  Units
siesta:           0.00766988          0.11023105  Ry/Bohr**3
siesta:           0.70422205         10.12104029  eV/Ang**3
siesta:        1128.30031584      16215.86954568  kBar
(Free)E+ p_basis*V_orbitals  =       -9544.509972
(Free)Eharris+ p_basis*V_orbitals  =       -9544.493364

siesta: Electric dipole (a.u.)  =    0.000000    0.000000    0.000000
siesta: Electric dipole (Debye) =    0.000000    0.000000    0.000000

* Maximum dynamic memory allocated : Node    0 =   167 MB
* Maximum dynamic memory allocated : Node    1 =    66 MB
* Maximum dynamic memory allocated : Node    2 =    68 MB
* Maximum dynamic memory allocated : Node    3 =   155 MB
* Maximum dynamic memory allocated : Node    4 =   164 MB
* Maximum dynamic memory allocated : Node    5 =    60 MB
* Maximum dynamic memory allocated : Node    6 =    62 MB
* Maximum dynamic memory allocated : Node    7 =   154 MB
* Maximum dynamic memory allocated : Node    8 =   150 MB
* Maximum dynamic memory allocated : Node    9 =    60 MB
* Maximum dynamic memory allocated : Node   10 =    62 MB
* Maximum dynamic memory allocated : Node   11 =   144 MB

* Maximum memory occured during matrixMtoO                    

timer: CPU execution times:
timer:  Routine       Calls   Time/call    Tot.time        %
timer:  siesta            1   98272.847   98272.847   100.00
timer:  Setup             1       3.349       3.349     0.00
timer:  bands             3     226.458     679.373     0.69
timer:  writewave         1       0.023       0.023     0.00
timer:  KSV_init          1       0.004       0.004     0.00
timer:  IterMD            1   97583.256   97583.256    99.30
timer:  hsparse           1       0.285       0.285     0.00
timer:  overlap           1       7.210       7.210     0.01
timer:  IterSCF          33    2952.408   97429.449    99.14
timer:  kinefsm           2       3.671       7.341     0.01
timer:  nlefsm            2      20.397      40.794     0.04
timer:  DHSCF            34      79.147    2690.993     2.74
timer:  DHSCF1            1       1.195       1.195     0.00
timer:  DHSCF2            1      32.746      32.746     0.03
timer:  REORD           274       0.002       0.611     0.00
timer:  POISON           35       0.448      15.692     0.02
timer:  DHSCF3           34      77.319    2628.840     2.68
timer:  rhoofd           34      17.025     578.852     0.59
timer:  cellXC           34       2.552      86.760     0.09
timer:  vmat             34      36.706    1248.000     1.27
timer:  MolMec            2       0.000       0.000     0.00
timer:  diagon           33    2872.091   94778.993    96.44
timer:  c-eigval       7744       5.585   43249.252    44.01
timer:  c-buildHS      7744       0.036     278.543     0.28
timer:  cdiag         15367       5.685   87357.708    88.89
timer:  cdiag1        15367       0.260    3992.541     4.06
timer:  cdiag2        15367       1.826   28055.503    28.55
timer:  cdiag3        15367       3.389   52074.071    52.99
timer:  cdiag4        15367       0.087    1331.419     1.35
timer:  c-eigvec       7623       5.853   44620.055    45.40
timer:  c-buildD       7623       0.990    7547.770     7.68
timer:  DHSCF4            1      27.987      27.987     0.03
timer:  dfscf             1      25.890      25.890     0.03
timer:  overfsm           1       0.329       0.329     0.00
timer:  optical           1       6.267       6.267     0.01
  

elaps: ELAPSED times:
elaps:  Routine       Calls   Time/call    Tot.time        %
elaps:  siesta            1    8208.705    8208.705   100.00
elaps:  Setup             1       0.279       0.279     0.00
elaps:  bands             3      18.931      56.794     0.69
elaps:  writewave         1       0.002       0.002     0.00
elaps:  KSV_init          1       0.000       0.000     0.00
elaps:  IterMD            1    8151.104    8151.104    99.30
elaps:  hsparse           1       0.028       0.028     0.00
elaps:  overlap           1       0.715       0.715     0.01
elaps:  IterSCF          33     246.614    8138.256    99.14
elaps:  kinefsm           2       0.367       0.734     0.01
elaps:  nlefsm            2       1.693       3.386     0.04
elaps:  DHSCF            34       6.679     227.086     2.77
elaps:  DHSCF1            1       0.101       0.101     0.00
elaps:  DHSCF2            1       2.734       2.734     0.03
elaps:  REORD           274       0.000       0.082     0.00
elaps:  POISON           35       0.038       1.322     0.02
elaps:  DHSCF3           34       6.459     219.617     2.68
elaps:  rhoofd           34       2.975     101.154     1.23
elaps:  cellXC           34       0.213       7.230     0.09
elaps:  vmat             34       3.067     104.268     1.27
elaps:  MolMec            2       0.000       0.000     0.00
elaps:  diagon           33     239.911    7917.074    96.45
elaps:  c-eigval       7744       0.466    3612.563    44.01
elaps:  c-buildHS      7744       0.004      28.926     0.35
elaps:  cdiag         15367       0.470    7226.277    88.03
elaps:  cdiag1        15367       0.021     328.449     4.00
elaps:  cdiag2        15367       0.153    2345.622    28.57
elaps:  cdiag3        15367       0.283    4356.085    53.07
elaps:  cdiag4        15367       0.007     106.822     1.30
elaps:  c-eigvec       7623       0.481    3666.769    44.67
elaps:  c-buildD       7623       0.091     690.672     8.41
elaps:  DHSCF4            1       4.600       4.600     0.06
elaps:  dfscf             1       4.342       4.342     0.05
elaps:  overfsm           1       0.034       0.034     0.00
elaps:  optical           1       0.000       0.000     0.00
  
>> End of run:   6-MAY-2016   7:11:10
