Siesta Version:                                        siesta-3.2-pl-3
Architecture  : x86_64-unknown-linux-gnu--unknown
Compiler flags: mpiifort -g -O2 -fPIC -xSSE4.1 -fp-model source -shared-intel 
PARALLEL version

* Running on    8 nodes in parallel
>> Start of run:   1-MAY-2016  16:39:03

                           ***********************       
                           *  WELCOME TO SIESTA  *       
                           ***********************       

reinit: Reading from standard input
************************** Dump of input data file ****************************
#(1) General system descriptors
SystemName            GRP_doping    # Descriptive name of the system
SystemLabel           GRP_doping    # Short name for naming files
%include STRUCT.fdf
%include KPT.fdf
%include BASIS.fdf
#%include TS.fdf # for transiesta calculation
#(4) DFT, Grid, SCF
XC.functional         GGA           # LDA or GGA (default = LDA)
XC.authors            PBE           # CA (Ceperley-Aldr) = PZ
                                    #    (Perdew-Zunger) - LDA - Default
                                    # PW92 (Perdew-Wang-92) - LDA
                                    # PBE (Perdew-Burke-Ernzerhof) - GGA
MeshCutoff            200.000000    Ry      # Default: 50.0 Ry ~ 0.444 Bohr
                                    #         100.0 Ry ~ 0.314 Bohr
MaxSCFIterations      500           # Default: 50
DM.MixingWeight       0.05          # Default: 0.25
DM.NumberPulay        10            # Default: 0
DM.PulayOnFile        F             # SystemLabel.P1, SystemLabel.P2
DM.Tolerance          1.d-4         # Default: 1.d-4
DM.UseSaveDM          .true.        # because of the bug
SCFMustConverge       .true.
NeglNonOverlapInt     F             # Default: F
#(5) Eigenvalue problem: order-N or diagonalization
SolutionMethod        Diagon        # or Transiesta
ElectronicTemperature 300.0 K       # Default: 300.0 K
#(6) Molecular dynamics and relaxations
#MD.TypeOfRun          CG            # Type of dynamics:
#MD.VariableCell       F
#MD.NumCGsteps         0           # 0 for single-point / 100 for gopt
#MD.MaxCGDispl         0.2 Bohr      # Default: 0.2 Bohr
#MD.MaxForceTol        0.02 eV/Ang   # Default: 0.04 eV/Ang
#MD.MaxStressTol       1.0 GPa       # Default: 1.0 GPa
# Geometry Constraints
#%block GeometryConstraints
#	position from 1 to 44
#%endblock GeometryConstraints
BandLinesScale   pi/a
%block BandLines
 1   0.00000000  0.00000000  0.00000000
50   0.00000000  0.07809418  0.00000000
50   0.04509075  0.07809242  0.00000000
20   0.00000000  0.00000000  0.00000000
%endblock BandLines
************************** End of input data file *****************************

reinit: -----------------------------------------------------------------------
reinit: System Name: GRP_doping
reinit: -----------------------------------------------------------------------
reinit: System Label: GRP_doping                                                  
reinit: -----------------------------------------------------------------------

initatom: Reading input for the pseudopotentials and atomic orbitals ----------
 Species number:            1  Label: N Atomic number:           7
 Species number:            2  Label: C Atomic number:           6
Ground state valence configuration:   2s02  2p03
Reading pseudopotential information in formatted form from N.psf

Valence configuration for pseudopotential generation:
2s( 2.00) rc: 1.48
2p( 3.00) rc: 1.48
3d( 0.00) rc: 1.48
4f( 0.00) rc: 1.48
Ground state valence configuration:   2s02  2p02
Reading pseudopotential information in formatted form from C.psf

Valence configuration for pseudopotential generation:
2s( 2.00) rc: 1.54
2p( 2.00) rc: 1.54
3d( 0.00) rc: 1.54
4f( 0.00) rc: 1.54
For N, standard SIESTA heuristics set lmxkb to 3
 (one more than the basis l, including polarization orbitals).
Use PS.lmax or PS.KBprojectors blocks to override.
For C, standard SIESTA heuristics set lmxkb to 3
 (one more than the basis l, including polarization orbitals).
Use PS.lmax or PS.KBprojectors blocks to override.

<basis_specs>
===============================================================================
N                    Z=   7    Mass=  14.010        Charge= 0.17977+309
Lmxo=1 Lmxkb= 3    BasisType=split      Semic=F
L=0  Nsemic=0  Cnfigmx=2
          n=1  nzeta=2  polorb=0
            splnorm:   0.15000    
               vcte:    0.0000    
               rinn:    0.0000    
                rcs:    0.0000      0.0000    
            lambdas:    1.0000      1.0000    
L=1  Nsemic=0  Cnfigmx=2
          n=1  nzeta=2  polorb=1
            splnorm:   0.15000    
               vcte:    0.0000    
               rinn:    0.0000    
                rcs:    0.0000      0.0000    
            lambdas:    1.0000      1.0000    
-------------------------------------------------------------------------------
L=0  Nkbl=1  erefs: 0.17977+309
L=1  Nkbl=1  erefs: 0.17977+309
L=2  Nkbl=1  erefs: 0.17977+309
L=3  Nkbl=1  erefs: 0.17977+309
===============================================================================
</basis_specs>

atom: Called for N                     (Z =   7)

read_vps: Pseudopotential generation method:
read_vps: ATM3      Troullier-Martins                       
Total valence charge:    5.00000

read_vps: Pseudopotential includes a core correction:
read_vps: Pseudo-core for xc-correction

xc_check: Exchange-correlation functional:
xc_check: GGA Perdew, Burke & Ernzerhof 1996
V l=0 = -2*Zval/r beyond r=  1.4606
V l=1 = -2*Zval/r beyond r=  1.4606
V l=2 = -2*Zval/r beyond r=  1.4606
V l=3 = -2*Zval/r beyond r=  1.4606
All V_l potentials equal beyond r=  1.4606
This should be close to max(r_c) in ps generation
All pots = -2*Zval/r beyond r=  1.4606

VLOCAL1: 99.0% of the norm of Vloc inside     20.347 Ry
VLOCAL1: 99.9% of the norm of Vloc inside     46.372 Ry
atom: Maximum radius for 4*pi*r*r*local-pseudopot. charge    1.76189
atom: Maximum radius for r*vlocal+2*Zval:    1.53550
GHOST: No ghost state for L =  0
GHOST: No ghost state for L =  1
GHOST: No ghost state for L =  2
GHOST: No ghost state for L =  3

KBgen: Kleinman-Bylander projectors: 
   l= 0   rc=  1.634559   el= -1.363963   Ekb=  5.296955   kbcos=  0.335621
   l= 1   rc=  1.614250   el= -0.521451   Ekb= -5.259161   kbcos= -0.433408
   l= 2   rc=  1.718383   el=  0.001991   Ekb= -1.271464   kbcos= -0.007566
   l= 3   rc=  1.761893   el=  0.003093   Ekb= -0.494769   kbcos= -0.001015

KBgen: Total number of  Kleinman-Bylander projectors:   16
atom: -------------------------------------------------------------------------

atom: SANKEY-TYPE ORBITALS:
atom: Selected multiple-zeta basis: split     

SPLIT: Orbitals with angular momentum L= 0

SPLIT: Basis orbitals for state 2s

SPLIT: PAO cut-off radius determined from an
SPLIT: energy shift=  0.007350 Ry

   izeta = 1
                 lambda =    1.000000
                     rc =    4.071465
                 energy =   -1.356470
                kinetic =    1.176977
    potential(screened) =   -2.533447
       potential(ionic) =   -8.057990

   izeta = 2
                 rmatch =    2.905100
              splitnorm =    0.150000
                 energy =   -1.158343
                kinetic =    1.813009
    potential(screened) =   -2.971352
       potential(ionic) =   -8.901931

SPLIT: Orbitals with angular momentum L= 1

SPLIT: Basis orbitals for state 2p

SPLIT: PAO cut-off radius determined from an
SPLIT: energy shift=  0.007350 Ry

   izeta = 1
                 lambda =    1.000000
                     rc =    4.972977
                 energy =   -0.513884
                kinetic =    3.441732
    potential(screened) =   -3.955616
       potential(ionic) =   -9.287901

   izeta = 2
                 rmatch =    3.054066
              splitnorm =    0.150000
                 energy =   -0.318226
                kinetic =    5.125348
    potential(screened) =   -5.443573
       potential(ionic) =  -11.380999

POLgen: Perturbative polarization orbital with L=  2

POLgen: Polarization orbital for state 2p

   izeta = 1
                     rc =    4.972977
                 energy =    1.607437
                kinetic =    3.268125
    potential(screened) =   -1.660688
       potential(ionic) =   -5.973652
atom: Total number of Sankey-type orbitals: 13

atm_pop: Valence configuration (for local Pseudopot. screening):
 2s( 2.00)                                                            
 2p( 3.00)                                                            
Vna: chval, zval:    5.00000   5.00000

Vna:  Cut-off radius for the neutral-atom potential:   4.972977
comcore: Pseudo-core radius Rcore=  1.554824

atom: _________________________________________________________________________

<basis_specs>
===============================================================================
C                    Z=   6    Mass=  12.010        Charge= 0.17977+309
Lmxo=1 Lmxkb= 3    BasisType=split      Semic=F
L=0  Nsemic=0  Cnfigmx=2
          n=1  nzeta=2  polorb=0
            splnorm:   0.15000    
               vcte:    0.0000    
               rinn:    0.0000    
                rcs:    0.0000      0.0000    
            lambdas:    1.0000      1.0000    
L=1  Nsemic=0  Cnfigmx=2
          n=1  nzeta=2  polorb=1
            splnorm:   0.15000    
               vcte:    0.0000    
               rinn:    0.0000    
                rcs:    0.0000      0.0000    
            lambdas:    1.0000      1.0000    
-------------------------------------------------------------------------------
L=0  Nkbl=1  erefs: 0.17977+309
L=1  Nkbl=1  erefs: 0.17977+309
L=2  Nkbl=1  erefs: 0.17977+309
L=3  Nkbl=1  erefs: 0.17977+309
===============================================================================
</basis_specs>

atom: Called for C                     (Z =   6)

read_vps: Pseudopotential generation method:
read_vps: ATM3      Troullier-Martins                       
Total valence charge:    4.00000

read_vps: Pseudopotential includes a core correction:
read_vps: Pseudo-core for xc-correction

xc_check: Exchange-correlation functional:
xc_check: GGA Perdew, Burke & Ernzerhof 1996
V l=0 = -2*Zval/r beyond r=  1.5227
V l=1 = -2*Zval/r beyond r=  1.5227
V l=2 = -2*Zval/r beyond r=  1.5227
V l=3 = -2*Zval/r beyond r=  1.5038
All V_l potentials equal beyond r=  1.5227
This should be close to max(r_c) in ps generation
All pots = -2*Zval/r beyond r=  1.5227

VLOCAL1: 99.0% of the norm of Vloc inside     18.722 Ry
VLOCAL1: 99.9% of the norm of Vloc inside     42.668 Ry
atom: Maximum radius for 4*pi*r*r*local-pseudopot. charge    1.83678
atom: Maximum radius for r*vlocal+2*Zval:    1.58088
GHOST: No ghost state for L =  0
GHOST: No ghost state for L =  1
GHOST: No ghost state for L =  2
GHOST: No ghost state for L =  3

KBgen: Kleinman-Bylander projectors: 
   l= 0   rc=  1.704034   el= -1.009801   Ekb=  5.335044   kbcos=  0.316824
   l= 1   rc=  1.704034   el= -0.388707   Ekb= -3.785862   kbcos= -0.366464
   l= 2   rc=  1.791422   el=  0.001971   Ekb= -0.970471   kbcos= -0.009212
   l= 3   rc=  1.859892   el=  0.003065   Ekb= -0.399525   kbcos= -0.001223

KBgen: Total number of  Kleinman-Bylander projectors:   16
atom: -------------------------------------------------------------------------

atom: SANKEY-TYPE ORBITALS:
atom: Selected multiple-zeta basis: split     

SPLIT: Orbitals with angular momentum L= 0

SPLIT: Basis orbitals for state 2s

SPLIT: PAO cut-off radius determined from an
SPLIT: energy shift=  0.007350 Ry

   izeta = 1
                 lambda =    1.000000
                     rc =    4.632753
                 energy =   -1.002270
                kinetic =    0.855760
    potential(screened) =   -1.858031
       potential(ionic) =   -5.417575

   izeta = 2
                 rmatch =    3.431921
              splitnorm =    0.150000
                 energy =   -0.867111
                kinetic =    1.300804
    potential(screened) =   -2.167915
       potential(ionic) =   -5.962684

SPLIT: Orbitals with angular momentum L= 1

SPLIT: Basis orbitals for state 2p

SPLIT: PAO cut-off radius determined from an
SPLIT: energy shift=  0.007350 Ry

   izeta = 1
                 lambda =    1.000000
                     rc =    5.658549
                 energy =   -0.381140
                kinetic =    2.399701
    potential(screened) =   -2.780841
       potential(ionic) =   -6.206085

   izeta = 2
                 rmatch =    3.653288
              splitnorm =    0.150000
                 energy =   -0.249149
                kinetic =    3.542762
    potential(screened) =   -3.791911
       potential(ionic) =   -7.581078

POLgen: Perturbative polarization orbital with L=  2

POLgen: Polarization orbital for state 2p

   izeta = 1
                     rc =    5.658549
                 energy =    1.109913
                kinetic =    2.304789
    potential(screened) =   -1.194876
       potential(ionic) =   -4.013592
atom: Total number of Sankey-type orbitals: 13

atm_pop: Valence configuration (for local Pseudopot. screening):
 2s( 2.00)                                                            
 2p( 2.00)                                                            
Vna: chval, zval:    4.00000   4.00000

Vna:  Cut-off radius for the neutral-atom potential:   5.658549
comcore: Pseudo-core radius Rcore=  1.791422

atom: _________________________________________________________________________

prinput: Basis input ----------------------------------------------------------

PAO.BasisType split     

%block ChemicalSpeciesLabel
    1    7 N                       # Species index, atomic number, species label
    2    6 C                       # Species index, atomic number, species label
%endblock ChemicalSpeciesLabel

%block PAO.Basis                 # Define Basis set
N                     2                    # Species label, number of l-shells
 n=2   0   2                         # n, l, Nzeta 
   4.071      2.905   
   1.000      1.000   
 n=2   1   2 P   1                   # n, l, Nzeta, Polarization, NzetaPol
   4.973      3.054   
   1.000      1.000   
C                     2                    # Species label, number of l-shells
 n=2   0   2                         # n, l, Nzeta 
   4.633      3.432   
   1.000      1.000   
 n=2   1   2 P   1                   # n, l, Nzeta, Polarization, NzetaPol
   5.659      3.653   
   1.000      1.000   
%endblock PAO.Basis

prinput: ----------------------------------------------------------------------

coor:   Atomic-coordinates input format  =     Fractional

siesta: Atomic coordinates (Bohr) and species
siesta:     -2.35420  38.89134   0.00000  1        1
siesta:      4.63094  34.85847   0.00000  1        2
siesta:      6.95932  33.51406   0.00000  1        3
siesta:     -4.68258  37.54693   0.00000  1        4
siesta:      4.63094  21.41544   0.00000  1        5
siesta:      6.95932  22.75985   0.00000  1        6
siesta:     -0.02582  21.41544   0.00000  1        7
siesta:      2.30256  22.75985   0.00000  1        8
siesta:     -2.35420  22.75985   0.00000  1        9
siesta:     -9.33934  18.72698   0.00000  1       10
siesta:     -9.33934  21.41544   0.00000  1       11
siesta:     -7.01096  22.75985   0.00000  1       12
siesta:     -7.01096  25.44831   0.00000  1       13
siesta:     -4.68258  26.79272   0.00000  1       14
siesta:      2.30256  33.51406   0.00000  1       15
siesta:     -0.02582  34.85847   0.00000  1       16
siesta:     -0.02582  37.54693   0.00000  1       17
siesta:     -0.02582   2.59549   0.00000  2       18
siesta:     -0.02582   5.28395   0.00000  2       19
siesta:     -2.35420  41.57980   0.00000  2       20
siesta:      2.30256  38.89134   0.00000  2       21
siesta:      2.30256  41.57980   0.00000  2       22
siesta:      4.63094  37.54693   0.00000  2       23
siesta:      6.95932  30.82560   0.00000  2       24
siesta:      9.28770  26.79272   0.00000  2       25
siesta:      9.28770  29.48119   0.00000  2       26
siesta:     -4.68258  34.85847   0.00000  2       27
siesta:      2.30256   6.62836   0.00000  2       28
siesta:      2.30256   9.31683   0.00000  2       29
siesta:      4.63094  10.66124   0.00000  2       30
siesta:      4.63094  13.34970   0.00000  2       31
siesta:      6.95932  14.69411   0.00000  2       32
siesta:      6.95932  17.38257   0.00000  2       33
siesta:      9.28770  18.72698   0.00000  2       34
siesta:      9.28770  21.41544   0.00000  2       35
siesta:     11.61608  22.75985   0.00000  2       36
siesta:     11.61608  25.44831   0.00000  2       37
siesta:     -2.35420   6.62836   0.00000  2       38
siesta:     -2.35420   9.31683   0.00000  2       39
siesta:     -0.02582  10.66124   0.00000  2       40
siesta:     -0.02582  13.34970   0.00000  2       41
siesta:      2.30256  14.69411   0.00000  2       42
siesta:      2.30256  17.38257   0.00000  2       43
siesta:      4.63094  18.72698   0.00000  2       44
siesta:      6.95932  25.44831   0.00000  2       45
siesta:     -4.68258  10.66124   0.00000  2       46
siesta:     -4.68258  13.34970   0.00000  2       47
siesta:     -2.35420  14.69411   0.00000  2       48
siesta:     -2.35420  17.38257   0.00000  2       49
siesta:     -0.02582  18.72698   0.00000  2       50
siesta:      2.30256  25.44831   0.00000  2       51
siesta:     -7.01096  14.69411   0.00000  2       52
siesta:     -7.01096  17.38257   0.00000  2       53
siesta:     -4.68258  18.72698   0.00000  2       54
siesta:     -4.68258  21.41544   0.00000  2       55
siesta:     -2.35420  25.44831   0.00000  2       56
siesta:    -11.66772  22.75985   0.00000  2       57
siesta:    -11.66772  25.44831   0.00000  2       58
siesta:     -9.33934  26.79272   0.00000  2       59
siesta:     -9.33934  29.48119   0.00000  2       60
siesta:      4.63094  26.79272   0.00000  2       61
siesta:      4.63094  29.48119   0.00000  2       62
siesta:     -0.02582  26.79272   0.00000  2       63
siesta:     -0.02582  29.48119   0.00000  2       64
siesta:     -4.68258  29.48119   0.00000  2       65
siesta:      2.30256  30.82560   0.00000  2       66
siesta:     -2.35420  30.82560   0.00000  2       67
siesta:     -2.35420  33.51406   0.00000  2       68
siesta:     -7.01096  30.82560   0.00000  2       69
siesta:     -7.01096  33.51406   0.00000  2       70
siesta:     -0.02582  42.92421   0.00000  2       71
siesta:     -0.02582  45.61267   0.00000  2       72

siesta: System type = slab      

initatomlists: Number of atoms, orbitals, and projectors:     72   936  1152

siesta: ******************** Simulation parameters ****************************
siesta:
siesta: The following are some of the parameters of the simulation.
siesta: A complete list of the parameters used, including default values,
siesta: can be found in file out.fdf
siesta:
redata: Non-Collinear-spin run           =     F
redata: SpinPolarized (Up/Down) run      =     F
redata: Number of spin components        =     1
redata: Long output                      =     F
redata: Number of Atomic Species         =        2
redata: Charge density info will appear in .RHO file
redata: Write Mulliken Pop.              =     NO
redata: Mesh Cutoff                      =   200.0000  Ry
redata: Net charge of the system         =     0.0000 |e|
redata: Max. number of SCF Iter          =      500
redata: SCF convergence failure will abort job
redata: Performing Pulay mixing using    =    10 iterations
redata: Mix DM in first SCF step ?       =     F
redata: Write Pulay info on disk?        =     F
redata: Discard 1st Pulay DM after  kick =     F
redata: New DM Mixing Weight             =     0.0500
redata: New DM Occupancy tolerance       = 0.000000000001
redata: No kicks to SCF
redata: DM Mixing Weight for Kicks       =     0.5000
redata: DM Tolerance for SCF             =     0.000100
redata: Require Energy convergence for SCF =     F
redata: DM Energy tolerance for SCF      =     0.000100 eV
redata: Require Harris convergence for SCF =     F
redata: DM Harris energy tolerance for SCF =     0.000100 eV
redata: Using Saved Data (generic)   =     F
redata: Use continuation files for DM    =     T
redata: Neglect nonoverlap interactions  =     F
redata: Method of Calculation            =     Diagonalization
redata: Divide and Conquer               =     T
redata: Electronic Temperature           =     0.0019  Ry
redata: Fix the spin of the system       =     F
redata: Dynamics option                  =     Verlet MD run
redata: Initial MD time step             =        1
redata:   Final MD time step             =        1
redata: Length of MD time step           =     1.0000  fs
redata: Initial Temperature of MD run    =     0.0000  K
redata: Perform a MD quench              =     F
redata: ***********************************************************************
Total number of electrons:   305.000000
Total ionic charge:   305.000000

* ProcessorY, Blocksize:    2  24

k-point displ. along   1 input, could be:     0.50    0.00
k-point displ. along   2 input, could be:     0.50    0.00
 Kpoints in:          231 . Kpoints trimmed:          231

siesta: k-grid: Number of k-points =   231
siesta: k-grid: Cutoff (effective) =     5.000 Ang
siesta: k-grid: Supercell and displacements
siesta: k-grid:   21   0   0      0.500
siesta: k-grid:    0  21   0      0.500
siesta: k-grid:    0   0   1      0.000
Naive supercell factors:     2    2    2

superc: Internal auxiliary supercell:     2 x     2 x     2  =       8
superc: Number of atoms, orbitals, and projectors:    576   7488   9216

* Maximum dynamic memory allocated =     4 MB

siesta:                 ==============================
                            Begin MD step =      1
                        ==============================

superc: Internal auxiliary supercell:     2 x     2 x     2  =       8
superc: Number of atoms, orbitals, and projectors:    576   7488   9216

outcell: Unit cell vectors (Ang):
       12.804619    7.392750    0.000000
        0.000000   14.785500    0.000000
        0.000000    0.000000   10.000000

outcell: Cell vector modules (Ang)   :   14.785500   14.785500   10.000000
outcell: Cell angles (23,13,12) (deg):     90.0000     90.0000     60.0000
outcell: Cell volume (Ang**3)        :   1893.2269
New_DM. Step:     1
Initializing Density Matrix...

InitMesh: MESH =   120 x   120 x    90 =     1296000
InitMesh: Mesh cutoff (required, used) =   200.000   223.865 Ry

* Maximum dynamic memory allocated =   187 MB

stepf: Fermi-Dirac step function

siesta: Program's energy decomposition (eV):
siesta: Ebs     =     -6206.421925
siesta: Eions   =     21135.707422
siesta: Ena     =      4895.215811
siesta: Ekin    =      7804.862351
siesta: Enl     =       136.155571
siesta: DEna    =        -0.000015
siesta: DUscf   =         0.000000
siesta: DUext   =         0.000000
siesta: Exc     =     -4595.822708
siesta: eta*DQ  =         0.000000
siesta: Emadel  =         0.000000
siesta: Emeta   =         0.000000
siesta: Emolmec =         0.000000
siesta: Ekinion =         0.000000
siesta: Eharris =    -12533.580764
siesta: Etot    =    -12895.296411
siesta: FreeEng =    -12895.296411

siesta: iscf   Eharris(eV)      E_KS(eV)   FreeEng(eV)   dDmax  Ef(eV)
siesta:    1   -12533.5808   -12895.2964   -12895.2964  5.9686 -6.8583
timer: Routine,Calls,Time,% = IterSCF        1    4253.212  99.73
elaps: Routine,Calls,Wall,% = IterSCF        1     532.293  99.73
siesta:    2   -16823.5436   -11908.4804   -11908.5390 18.8907 -3.9495
siesta:    3   -12450.5685   -12689.6436   -12689.6823  2.1316 -5.0324
siesta:    4   -12429.5103   -12541.7858   -12541.8321  1.0993 -4.0171
siesta:    5   -12389.8264   -12491.6254   -12491.6732  0.8596 -3.7861
siesta:    6   -12381.0611   -12449.2313   -12449.2658  0.7507 -3.7740
siesta:    7   -12378.2005   -12438.3992   -12438.4192  0.7098 -3.8048
siesta:    8   -12376.1836   -12429.7043   -12429.7786  0.6506 -3.8224
siesta:    9   -12374.6289   -12411.7959   -12411.8413  0.5228 -3.9618
siesta:   10   -12373.5763   -12396.4732   -12396.5031  0.4130 -3.8557
siesta:   11   -12374.0808   -12368.3651   -12368.4001  0.3181 -3.7405
siesta:   12   -12373.8622   -12363.3012   -12363.3685  0.3570 -3.7583
siesta:   13   -12373.4285   -12360.1055   -12360.1715  0.3495 -3.7543
siesta:   14   -12373.0365   -12361.0600   -12361.1395  0.1839 -3.7497
siesta:   15   -12372.6584   -12359.6296   -12359.6843  0.1209 -3.7958
siesta:   16   -12372.5226   -12360.7781   -12360.8484  0.0899 -3.7981
siesta:   17   -12372.3831   -12362.2034   -12362.2733  0.0620 -3.7857
siesta:   18   -12372.3463   -12364.1701   -12364.2411  0.0592 -3.7882
siesta:   19   -12372.3421   -12366.3424   -12366.4153  0.0538 -3.7960
siesta:   20   -12372.3273   -12368.8903   -12368.9644  0.0426 -3.8017
siesta:   21   -12372.3199   -12370.8184   -12370.8891  0.0219 -3.8004
siesta:   22   -12372.3168   -12371.7591   -12371.8303  0.0151 -3.8007
siesta:   23   -12372.3127   -12372.6035   -12372.6742  0.0128 -3.7961
siesta:   24   -12372.3116   -12372.9664   -12373.0380  0.0179 -3.7957
siesta:   25   -12372.3098   -12372.9317   -12373.0028  0.0089 -3.7932
siesta:   26   -12372.3097   -12372.8239   -12372.8953  0.0077 -3.7919
siesta:   27   -12372.3094   -12372.5937   -12372.6649  0.0055 -3.7912
siesta:   28   -12372.3093   -12372.5098   -12372.5810  0.0045 -3.7908
siesta:   29   -12372.3093   -12372.5116   -12372.5827  0.0034 -3.7909
siesta:   30   -12372.3092   -12372.3569   -12372.4281  0.0012 -3.7914
siesta:   31   -12372.3092   -12372.3506   -12372.4217  0.0007 -3.7914
siesta:   32   -12372.3092   -12372.3207   -12372.3919  0.0005 -3.7914
siesta:   33   -12372.3092   -12372.3189   -12372.3901  0.0005 -3.7915
siesta:   34   -12372.3090   -12372.3201   -12372.3913  0.0003 -3.7918
siesta:   35   -12372.3092   -12372.3179   -12372.3891  0.0002 -3.7917
siesta:   36   -12372.3092   -12372.3156   -12372.3867  0.0002 -3.7918
siesta:   37   -12372.3092   -12372.3100   -12372.3812  0.0002 -3.7918
siesta:   38   -12372.3092   -12372.3038   -12372.3750  0.0002 -3.7917
siesta:   39   -12372.3092   -12372.3021   -12372.3733  0.0002 -3.7917
siesta:   40   -12372.3092   -12372.3017   -12372.3729  0.0002 -3.7917
siesta:   41   -12372.3092   -12372.3027   -12372.3738  0.0001 -3.7917
siesta:   42   -12372.3092   -12372.3052   -12372.3764  0.0001 -3.7917

siesta: E_KS(eV) =           -12372.3065

siesta: E_KS - E_eggbox =    -12372.3065

siesta: Atomic forces (eV/Ang):
----------------------------------------
   Tot   -0.260184   -0.166189    0.000000
----------------------------------------
   Max  688.878715
   Res  172.993533    sqrt( Sum f_i^2 / 3N )
----------------------------------------
   Max  688.878715    constrained

Stress-tensor-Voigt (kbar):     -638.24    -3070.42       -0.06      -19.13        0.00        0.00
(Free)E + p*V (eV/cell)   -10911.5789
Target enthalpy (eV/cell)   -12372.3777

siesta: Stress tensor (static) (eV/Ang**3):
        -0.398352   -0.011937    0.000000
        -0.011937   -1.916387    0.000000
         0.000000    0.000000   -0.000037

siesta: Pressure (static):       1236.24010852  kBar

siesta: Stress tensor (total) (eV/Ang**3):
        -0.398352   -0.011937    0.000000
        -0.011937   -1.916387    0.000000
         0.000000    0.000000   -0.000037

siesta: Pressure (total):       1236.24010852  kBar

siesta: Temp_ion =       0.000 K

* Maximum dynamic memory allocated =   204 MB
Computing bands...

siesta: Program's energy decomposition (eV):
siesta: Ebs     =     -4980.997205
siesta: Eions   =     21135.707422
siesta: Ena     =      4895.215811
siesta: Ekin    =     10871.744871
siesta: Enl     =     -1564.965851
siesta: DEna    =      -778.693265
siesta: DUscf   =       106.533297
siesta: DUext   =         0.000000
siesta: Exc     =     -4766.433913
siesta: eta*DQ  =         0.000000
siesta: Emadel  =         0.000000
siesta: Emeta   =         0.000000
siesta: Emolmec =         0.000000
siesta: Ekinion =         0.000000
siesta: Eharris =    -12372.309177
siesta: Etot    =    -12372.306473
siesta: FreeEng =    -12372.377659

siesta: Final energy (eV):
siesta:  Band Struct. =   -4980.997205
siesta:       Kinetic =   10871.744871
siesta:       Hartree =   35105.295583
siesta:    Ext. field =       0.000000
siesta:   Exch.-corr. =   -4766.433913
siesta:  Ion-electron =  -80644.463486
siesta:       Ion-ion =   27061.550473
siesta:       Ekinion =       0.000000
siesta:         Total =  -12372.306473

siesta: Atomic forces (eV/Ang):
siesta:      1    5.321727  124.532454    0.000000
siesta:      2   31.769761   13.035551    0.000000
siesta:      3   -0.551014   -1.977388    0.000000
siesta:      4  -36.571736 -659.359685    0.000000
siesta:      5    0.054015   -1.753027    0.000000
siesta:      6    0.258794    2.247072    0.000000
siesta:      7    0.406710   -2.005357    0.000000
siesta:      8    0.709862    1.588101    0.000000
siesta:      9   -2.344460    0.810914    0.000000
siesta:     10    1.400925    1.582153    0.000000
siesta:     11   -2.585725   -2.260799    0.000000
siesta:     12    3.301321    0.417564    0.000000
siesta:     13   -0.622199    0.363503    0.000000
siesta:     14    0.780114   -1.758125    0.000000
siesta:     15    3.581876 -688.878715    0.000000
siesta:     16   -0.522134  111.864700    0.000000
siesta:     17    4.032711 -661.595762    0.000000
siesta:     18    2.370833  548.005407    0.000000
siesta:     19   -2.284685 -124.680922    0.000000
siesta:     20   -4.028875 -541.735240    0.000000
siesta:     21    4.183616  129.076745    0.000000
siesta:     22   18.789085 -547.857603    0.000000
siesta:     23   23.319843 -550.297279    0.000000
siesta:     24    0.317377    2.379724    0.000000
siesta:     25    1.629805    2.468245    0.000000
siesta:     26   -0.766370    0.408648    0.000000
siesta:     27  -25.877385    3.441506    0.000000
siesta:     28   17.927098  654.450903    0.000000
siesta:     29   -3.393747 -114.776836    0.000000
siesta:     30   34.581386  552.877846    0.000000
siesta:     31   26.465457   -5.460789    0.000000
siesta:     32   -2.736835   -1.541183    0.000000
siesta:     33    2.054323    0.378605    0.000000
siesta:     34   -0.866905   -0.048461    0.000000
siesta:     35    1.375810   -1.597693    0.000000
siesta:     36   -0.819121    5.355312    0.000000
siesta:     37    0.013867   -6.148256    0.000000
siesta:     38    0.695995  547.603998    0.000000
siesta:     39    2.500336 -123.190274    0.000000
siesta:     40  -17.871933  665.624091    0.000000
siesta:     41   -2.571807 -121.744470    0.000000
siesta:     42   20.481362  558.456579    0.000000
siesta:     43   23.707491   -6.024864    0.000000
siesta:     44   -1.978484    3.077202    0.000000
siesta:     45   -1.088768   -1.415685    0.000000
siesta:     46  -20.919003  655.435240    0.000000
siesta:     47  -28.108528   -2.902751    0.000000
siesta:     48  -25.650394  561.134463    0.000000
siesta:     49  -23.893468   -6.058705    0.000000
siesta:     50   -0.169850  565.520392    0.000000
siesta:     51   -0.955034   -0.078463    0.000000
siesta:     52    1.475712    0.120937    0.000000
siesta:     53   -2.221085    0.374789    0.000000
siesta:     54    2.015314    4.048120    0.000000
siesta:     55    0.078105   -0.298650    0.000000
siesta:     56   -0.795992    0.681908    0.000000
siesta:     57    1.749616    2.051483    0.000000
siesta:     58    0.638480   -4.403180    0.000000
siesta:     59   -1.269376    2.094212    0.000000
siesta:     60    0.812757   -0.573129    0.000000
siesta:     61    0.878249   -0.577770    0.000000
siesta:     62   -1.435880   -2.317414    0.000000
siesta:     63    0.040819   -1.802212    0.000000
siesta:     64   -2.164885 -565.742007    0.000000
siesta:     65    1.022909   -2.632545    0.000000
siesta:     66   22.718467    7.079062    0.000000
siesta:     67  -23.905160    4.172218    0.000000
siesta:     68  -22.927595 -564.553649    0.000000
siesta:     69   -1.209137    0.065585    0.000000
siesta:     70    2.636965    1.852388    0.000000
siesta:     71   -2.369773  127.776484    0.000000
siesta:     72   -0.881736 -544.571399    0.000000
siesta: ----------------------------------------
siesta:    Tot   -0.260184   -0.166189    0.000000

siesta: Stress tensor (static) (eV/Ang**3):
siesta:    -0.398352   -0.011937    0.000000
siesta:    -0.011937   -1.916387    0.000000
siesta:     0.000000    0.000000   -0.000037

siesta: Cell volume =       1893.226884 Ang**3

siesta: Pressure (static):
siesta:                Solid            Molecule  Units
siesta:           0.00840362          0.13621285  Ry/Bohr**3
siesta:           0.77159205         12.50660101  eV/Ang**3
siesta:        1236.24010852      20038.00049735  kBar
(Free)E+ p_basis*V_orbitals  =      -12344.070422
(Free)Eharris+ p_basis*V_orbitals  =      -12344.074418

siesta: Electric dipole (a.u.)  =    0.000000    0.000000    0.000000
siesta: Electric dipole (Debye) =    0.000000    0.000000    0.000000

* Maximum dynamic memory allocated : Node    0 =   204 MB
* Maximum dynamic memory allocated : Node    1 =    73 MB
* Maximum dynamic memory allocated : Node    2 =    74 MB
* Maximum dynamic memory allocated : Node    3 =   193 MB
* Maximum dynamic memory allocated : Node    4 =   188 MB
* Maximum dynamic memory allocated : Node    5 =    70 MB
* Maximum dynamic memory allocated : Node    6 =    72 MB
* Maximum dynamic memory allocated : Node    7 =   172 MB

* Maximum memory occured during matrixMtoO                    

timer: CPU execution times:
timer:  Routine       Calls   Time/call    Tot.time        %
timer:  siesta            1  175792.818  175792.818   100.00
timer:  Setup             1       3.080       3.080     0.00
timer:  bands             3     272.085     816.254     0.46
timer:  writewave         1       0.017       0.017     0.00
timer:  KSV_init          1       0.006       0.006     0.00
timer:  IterMD            1  174967.656  174967.656    99.53
timer:  hsparse           1       0.234       0.234     0.00
timer:  overlap           1       7.728       7.728     0.00
timer:  IterSCF          42    4161.609  174787.560    99.43
timer:  kinefsm           2       3.956       7.911     0.00
timer:  nlefsm            2      18.780      37.560     0.02
timer:  DHSCF            43      88.734    3815.572     2.17
timer:  DHSCF1            1       0.767       0.767     0.00
timer:  DHSCF2            1      33.716      33.716     0.02
timer:  REORD           346       0.011       3.752     0.00
timer:  POISON           44       2.504     110.166     0.06
timer:  DHSCF3           43      87.163    3748.011     2.13
timer:  rhoofd           43      17.152     737.539     0.42
timer:  cellXC           43       3.498     150.406     0.09
timer:  vmat             43      41.783    1796.652     1.02
timer:  MolMec            2       0.000       0.000     0.00
timer:  diagon           42    4071.852  171017.793    97.28
timer:  c-eigval       9823       6.750   66303.522    37.72
timer:  c-buildHS      9823       0.135    1327.147     0.75
timer:  cdiag         19525       6.927  135252.358    76.94
timer:  cdiag1        19525       0.433    8457.992     4.81
timer:  cdiag2        19525       1.911   37308.548    21.22
timer:  cdiag3        19525       3.976   77622.930    44.16
timer:  cdiag4        19525       0.210    4104.495     2.33
timer:  c-eigvec       9702       7.312   70945.207    40.36
timer:  c-buildD       9702       3.559   34530.794    19.64
timer:  DHSCF4            1      30.475      30.475     0.02
timer:  dfscf             1      28.680      28.680     0.02
timer:  overfsm           1       0.402       0.402     0.00
timer:  optical           1       5.096       5.096     0.00
  

elaps: ELAPSED times:
elaps:  Routine       Calls   Time/call    Tot.time        %
elaps:  siesta            1   21998.720   21998.720   100.00
elaps:  Setup             1       0.384       0.384     0.00
elaps:  bands             3      34.062     102.186     0.46
elaps:  writewave         1       0.002       0.002     0.00
elaps:  KSV_init          1       0.000       0.000     0.00
elaps:  IterMD            1   21895.479   21895.479    99.53
elaps:  hsparse           1       0.029       0.029     0.00
elaps:  overlap           1       0.976       0.976     0.00
elaps:  IterSCF          42     520.785   21872.951    99.43
elaps:  kinefsm           2       0.498       0.996     0.00
elaps:  nlefsm            2       2.353       4.706     0.02
elaps:  DHSCF            43      11.198     481.507     2.19
elaps:  DHSCF1            1       0.099       0.099     0.00
elaps:  DHSCF2            1       4.218       4.218     0.02
elaps:  REORD           346       0.001       0.487     0.00
elaps:  POISON           44       0.314      13.829     0.06
elaps:  DHSCF3           43      10.904     468.887     2.13
elaps:  rhoofd           43       4.856     208.789     0.95
elaps:  cellXC           43       0.437      18.793     0.09
elaps:  vmat             43       5.227     224.743     1.02
elaps:  MolMec            2       0.000       0.000     0.00
elaps:  diagon           42     509.579   21402.313    97.29
elaps:  c-eigval       9823       0.845    8295.918    37.71
elaps:  c-buildHS      9823       0.018     178.607     0.81
elaps:  cdiag         19525       0.853   16660.797    75.74
elaps:  cdiag1        19525       0.054    1045.617     4.75
elaps:  cdiag2        19525       0.239    4668.236    21.22
elaps:  cdiag3        19525       0.498    9725.774    44.21
elaps:  cdiag4        19525       0.027     526.029     2.39
elaps:  c-eigvec       9702       0.891    8649.268    39.32
elaps:  c-buildD       9702       0.469    4550.648    20.69
elaps:  DHSCF4            1       7.941       7.941     0.04
elaps:  dfscf             1       7.557       7.557     0.03
elaps:  overfsm           1       0.053       0.053     0.00
elaps:  optical           1       0.000       0.000     0.00
  
>> End of run:   1-MAY-2016  22:45:42
