Siesta Version:                                        siesta-3.2-pl-3
Architecture  : x86_64-unknown-linux-gnu--unknown
Compiler flags: mpiifort -g -O2 -fPIC -xSSE4.1 -fp-model source -shared-intel 
PARALLEL version

* Running on    8 nodes in parallel
>> Start of run:  26-APR-2016  10:22:35

                           ***********************       
                           *  WELCOME TO SIESTA  *       
                           ***********************       

reinit: Reading from standard input
************************** Dump of input data file ****************************
#(1) General system descriptors
SystemName            GRP_doping    # Descriptive name of the system
SystemLabel           GRP_doping    # Short name for naming files
%include STRUCT.fdf
%include KPT.fdf
%include BASIS.fdf
#%include TS.fdf # for transiesta calculation
#(4) DFT, Grid, SCF
XC.functional         GGA           # LDA or GGA (default = LDA)
XC.authors            PBE           # CA (Ceperley-Aldr) = PZ
                                    #    (Perdew-Zunger) - LDA - Default
                                    # PW92 (Perdew-Wang-92) - LDA
                                    # PBE (Perdew-Burke-Ernzerhof) - GGA
MeshCutoff            200.000000    Ry      # Default: 50.0 Ry ~ 0.444 Bohr
                                    #         100.0 Ry ~ 0.314 Bohr
MaxSCFIterations      500           # Default: 50
DM.MixingWeight       0.05          # Default: 0.25
DM.NumberPulay        10            # Default: 0
DM.PulayOnFile        F             # SystemLabel.P1, SystemLabel.P2
DM.Tolerance          1.d-4         # Default: 1.d-4
DM.UseSaveDM          .true.        # because of the bug
SCFMustConverge       .true.
NeglNonOverlapInt     F             # Default: F
#(5) Eigenvalue problem: order-N or diagonalization
SolutionMethod        Diagon        # or Transiesta
ElectronicTemperature 300.0 K       # Default: 300.0 K
#(6) Molecular dynamics and relaxations
#MD.TypeOfRun          CG            # Type of dynamics:
#MD.VariableCell       F
#MD.NumCGsteps         0           # 0 for single-point / 100 for gopt
#MD.MaxCGDispl         0.2 Bohr      # Default: 0.2 Bohr
#MD.MaxForceTol        0.02 eV/Ang   # Default: 0.04 eV/Ang
#MD.MaxStressTol       1.0 GPa       # Default: 1.0 GPa
# Geometry Constraints
#%block GeometryConstraints
#	position from 1 to 44
#%endblock GeometryConstraints
BandLinesScale   pi/a
%block BandLines
 1   0.00000000  0.00000000  0.00000000
50   0.00000000  0.07809418  0.00000000
50   0.04509075  0.07809242  0.00000000
20   0.00000000  0.00000000  0.00000000
%endblock BandLines
************************** End of input data file *****************************

reinit: -----------------------------------------------------------------------
reinit: System Name: GRP_doping
reinit: -----------------------------------------------------------------------
reinit: System Label: GRP_doping                                                  
reinit: -----------------------------------------------------------------------

initatom: Reading input for the pseudopotentials and atomic orbitals ----------
 Species number:            1  Label: N Atomic number:           7
 Species number:            2  Label: C Atomic number:           6
Ground state valence configuration:   2s02  2p03
Reading pseudopotential information in formatted form from N.psf

Valence configuration for pseudopotential generation:
2s( 2.00) rc: 1.48
2p( 3.00) rc: 1.48
3d( 0.00) rc: 1.48
4f( 0.00) rc: 1.48
Ground state valence configuration:   2s02  2p02
Reading pseudopotential information in formatted form from C.psf

Valence configuration for pseudopotential generation:
2s( 2.00) rc: 1.54
2p( 2.00) rc: 1.54
3d( 0.00) rc: 1.54
4f( 0.00) rc: 1.54
For N, standard SIESTA heuristics set lmxkb to 3
 (one more than the basis l, including polarization orbitals).
Use PS.lmax or PS.KBprojectors blocks to override.
For C, standard SIESTA heuristics set lmxkb to 3
 (one more than the basis l, including polarization orbitals).
Use PS.lmax or PS.KBprojectors blocks to override.

<basis_specs>
===============================================================================
N                    Z=   7    Mass=  14.010        Charge= 0.17977+309
Lmxo=1 Lmxkb= 3    BasisType=split      Semic=F
L=0  Nsemic=0  Cnfigmx=2
          n=1  nzeta=2  polorb=0
            splnorm:   0.15000    
               vcte:    0.0000    
               rinn:    0.0000    
                rcs:    0.0000      0.0000    
            lambdas:    1.0000      1.0000    
L=1  Nsemic=0  Cnfigmx=2
          n=1  nzeta=2  polorb=1
            splnorm:   0.15000    
               vcte:    0.0000    
               rinn:    0.0000    
                rcs:    0.0000      0.0000    
            lambdas:    1.0000      1.0000    
-------------------------------------------------------------------------------
L=0  Nkbl=1  erefs: 0.17977+309
L=1  Nkbl=1  erefs: 0.17977+309
L=2  Nkbl=1  erefs: 0.17977+309
L=3  Nkbl=1  erefs: 0.17977+309
===============================================================================
</basis_specs>

atom: Called for N                     (Z =   7)

read_vps: Pseudopotential generation method:
read_vps: ATM3      Troullier-Martins                       
Total valence charge:    5.00000

read_vps: Pseudopotential includes a core correction:
read_vps: Pseudo-core for xc-correction

xc_check: Exchange-correlation functional:
xc_check: GGA Perdew, Burke & Ernzerhof 1996
V l=0 = -2*Zval/r beyond r=  1.4606
V l=1 = -2*Zval/r beyond r=  1.4606
V l=2 = -2*Zval/r beyond r=  1.4606
V l=3 = -2*Zval/r beyond r=  1.4606
All V_l potentials equal beyond r=  1.4606
This should be close to max(r_c) in ps generation
All pots = -2*Zval/r beyond r=  1.4606

VLOCAL1: 99.0% of the norm of Vloc inside     20.347 Ry
VLOCAL1: 99.9% of the norm of Vloc inside     46.372 Ry
atom: Maximum radius for 4*pi*r*r*local-pseudopot. charge    1.76189
atom: Maximum radius for r*vlocal+2*Zval:    1.53550
GHOST: No ghost state for L =  0
GHOST: No ghost state for L =  1
GHOST: No ghost state for L =  2
GHOST: No ghost state for L =  3

KBgen: Kleinman-Bylander projectors: 
   l= 0   rc=  1.634559   el= -1.363963   Ekb=  5.296955   kbcos=  0.335621
   l= 1   rc=  1.614250   el= -0.521451   Ekb= -5.259161   kbcos= -0.433408
   l= 2   rc=  1.718383   el=  0.001991   Ekb= -1.271464   kbcos= -0.007566
   l= 3   rc=  1.761893   el=  0.003093   Ekb= -0.494769   kbcos= -0.001015

KBgen: Total number of  Kleinman-Bylander projectors:   16
atom: -------------------------------------------------------------------------

atom: SANKEY-TYPE ORBITALS:
atom: Selected multiple-zeta basis: split     

SPLIT: Orbitals with angular momentum L= 0

SPLIT: Basis orbitals for state 2s

SPLIT: PAO cut-off radius determined from an
SPLIT: energy shift=  0.007350 Ry

   izeta = 1
                 lambda =    1.000000
                     rc =    4.071465
                 energy =   -1.356470
                kinetic =    1.176977
    potential(screened) =   -2.533447
       potential(ionic) =   -8.057990

   izeta = 2
                 rmatch =    2.905100
              splitnorm =    0.150000
                 energy =   -1.158343
                kinetic =    1.813009
    potential(screened) =   -2.971352
       potential(ionic) =   -8.901931

SPLIT: Orbitals with angular momentum L= 1

SPLIT: Basis orbitals for state 2p

SPLIT: PAO cut-off radius determined from an
SPLIT: energy shift=  0.007350 Ry

   izeta = 1
                 lambda =    1.000000
                     rc =    4.972977
                 energy =   -0.513884
                kinetic =    3.441732
    potential(screened) =   -3.955616
       potential(ionic) =   -9.287901

   izeta = 2
                 rmatch =    3.054066
              splitnorm =    0.150000
                 energy =   -0.318226
                kinetic =    5.125348
    potential(screened) =   -5.443573
       potential(ionic) =  -11.380999

POLgen: Perturbative polarization orbital with L=  2

POLgen: Polarization orbital for state 2p

   izeta = 1
                     rc =    4.972977
                 energy =    1.607437
                kinetic =    3.268125
    potential(screened) =   -1.660688
       potential(ionic) =   -5.973652
atom: Total number of Sankey-type orbitals: 13

atm_pop: Valence configuration (for local Pseudopot. screening):
 2s( 2.00)                                                            
 2p( 3.00)                                                            
Vna: chval, zval:    5.00000   5.00000

Vna:  Cut-off radius for the neutral-atom potential:   4.972977
comcore: Pseudo-core radius Rcore=  1.554824

atom: _________________________________________________________________________

<basis_specs>
===============================================================================
C                    Z=   6    Mass=  12.010        Charge= 0.17977+309
Lmxo=1 Lmxkb= 3    BasisType=split      Semic=F
L=0  Nsemic=0  Cnfigmx=2
          n=1  nzeta=2  polorb=0
            splnorm:   0.15000    
               vcte:    0.0000    
               rinn:    0.0000    
                rcs:    0.0000      0.0000    
            lambdas:    1.0000      1.0000    
L=1  Nsemic=0  Cnfigmx=2
          n=1  nzeta=2  polorb=1
            splnorm:   0.15000    
               vcte:    0.0000    
               rinn:    0.0000    
                rcs:    0.0000      0.0000    
            lambdas:    1.0000      1.0000    
-------------------------------------------------------------------------------
L=0  Nkbl=1  erefs: 0.17977+309
L=1  Nkbl=1  erefs: 0.17977+309
L=2  Nkbl=1  erefs: 0.17977+309
L=3  Nkbl=1  erefs: 0.17977+309
===============================================================================
</basis_specs>

atom: Called for C                     (Z =   6)

read_vps: Pseudopotential generation method:
read_vps: ATM3      Troullier-Martins                       
Total valence charge:    4.00000

read_vps: Pseudopotential includes a core correction:
read_vps: Pseudo-core for xc-correction

xc_check: Exchange-correlation functional:
xc_check: GGA Perdew, Burke & Ernzerhof 1996
V l=0 = -2*Zval/r beyond r=  1.5227
V l=1 = -2*Zval/r beyond r=  1.5227
V l=2 = -2*Zval/r beyond r=  1.5227
V l=3 = -2*Zval/r beyond r=  1.5038
All V_l potentials equal beyond r=  1.5227
This should be close to max(r_c) in ps generation
All pots = -2*Zval/r beyond r=  1.5227

VLOCAL1: 99.0% of the norm of Vloc inside     18.722 Ry
VLOCAL1: 99.9% of the norm of Vloc inside     42.668 Ry
atom: Maximum radius for 4*pi*r*r*local-pseudopot. charge    1.83678
atom: Maximum radius for r*vlocal+2*Zval:    1.58088
GHOST: No ghost state for L =  0
GHOST: No ghost state for L =  1
GHOST: No ghost state for L =  2
GHOST: No ghost state for L =  3

KBgen: Kleinman-Bylander projectors: 
   l= 0   rc=  1.704034   el= -1.009801   Ekb=  5.335044   kbcos=  0.316824
   l= 1   rc=  1.704034   el= -0.388707   Ekb= -3.785862   kbcos= -0.366464
   l= 2   rc=  1.791422   el=  0.001971   Ekb= -0.970471   kbcos= -0.009212
   l= 3   rc=  1.859892   el=  0.003065   Ekb= -0.399525   kbcos= -0.001223

KBgen: Total number of  Kleinman-Bylander projectors:   16
atom: -------------------------------------------------------------------------

atom: SANKEY-TYPE ORBITALS:
atom: Selected multiple-zeta basis: split     

SPLIT: Orbitals with angular momentum L= 0

SPLIT: Basis orbitals for state 2s

SPLIT: PAO cut-off radius determined from an
SPLIT: energy shift=  0.007350 Ry

   izeta = 1
                 lambda =    1.000000
                     rc =    4.632753
                 energy =   -1.002270
                kinetic =    0.855760
    potential(screened) =   -1.858031
       potential(ionic) =   -5.417575

   izeta = 2
                 rmatch =    3.431921
              splitnorm =    0.150000
                 energy =   -0.867111
                kinetic =    1.300804
    potential(screened) =   -2.167915
       potential(ionic) =   -5.962684

SPLIT: Orbitals with angular momentum L= 1

SPLIT: Basis orbitals for state 2p

SPLIT: PAO cut-off radius determined from an
SPLIT: energy shift=  0.007350 Ry

   izeta = 1
                 lambda =    1.000000
                     rc =    5.658549
                 energy =   -0.381140
                kinetic =    2.399701
    potential(screened) =   -2.780841
       potential(ionic) =   -6.206085

   izeta = 2
                 rmatch =    3.653288
              splitnorm =    0.150000
                 energy =   -0.249149
                kinetic =    3.542762
    potential(screened) =   -3.791911
       potential(ionic) =   -7.581078

POLgen: Perturbative polarization orbital with L=  2

POLgen: Polarization orbital for state 2p

   izeta = 1
                     rc =    5.658549
                 energy =    1.109913
                kinetic =    2.304789
    potential(screened) =   -1.194876
       potential(ionic) =   -4.013592
atom: Total number of Sankey-type orbitals: 13

atm_pop: Valence configuration (for local Pseudopot. screening):
 2s( 2.00)                                                            
 2p( 2.00)                                                            
Vna: chval, zval:    4.00000   4.00000

Vna:  Cut-off radius for the neutral-atom potential:   5.658549
comcore: Pseudo-core radius Rcore=  1.791422

atom: _________________________________________________________________________

prinput: Basis input ----------------------------------------------------------

PAO.BasisType split     

%block ChemicalSpeciesLabel
    1    7 N                       # Species index, atomic number, species label
    2    6 C                       # Species index, atomic number, species label
%endblock ChemicalSpeciesLabel

%block PAO.Basis                 # Define Basis set
N                     2                    # Species label, number of l-shells
 n=2   0   2                         # n, l, Nzeta 
   4.071      2.905   
   1.000      1.000   
 n=2   1   2 P   1                   # n, l, Nzeta, Polarization, NzetaPol
   4.973      3.054   
   1.000      1.000   
C                     2                    # Species label, number of l-shells
 n=2   0   2                         # n, l, Nzeta 
   4.633      3.432   
   1.000      1.000   
 n=2   1   2 P   1                   # n, l, Nzeta, Polarization, NzetaPol
   5.659      3.653   
   1.000      1.000   
%endblock PAO.Basis

prinput: ----------------------------------------------------------------------

coor:   Atomic-coordinates input format  =     Fractional

siesta: Atomic coordinates (Bohr) and species
siesta:     -4.68258  34.85847   0.00000  1        1
siesta:      4.63094  13.34970   0.00000  1        2
siesta:      6.95932  14.69411   0.00000  1        3
siesta:      6.95932  17.38257   0.00000  1        4
siesta:      2.30256  14.69411   0.00000  1        5
siesta:      2.30256  17.38257   0.00000  1        6
siesta:      4.63094  18.72698   0.00000  1        7
siesta:      4.63094  21.41544   0.00000  1        8
siesta:     -0.02582  18.72698   0.00000  1        9
siesta:     -0.02582  21.41544   0.00000  1       10
siesta:      2.30256  22.75985   0.00000  1       11
siesta:     -4.68258  21.41544   0.00000  1       12
siesta:     -2.35420  22.75985   0.00000  1       13
siesta:     -7.01096  22.75985   0.00000  1       14
siesta:     -7.01096  25.44831   0.00000  1       15
siesta:     -9.33934  26.79272   0.00000  1       16
siesta:     -9.33934  29.48119   0.00000  1       17
siesta:     -4.68258  26.79272   0.00000  1       18
siesta:     -4.68258  29.48119   0.00000  1       19
siesta:     -2.35420  30.82560   0.00000  1       20
siesta:     -2.35420  33.51406   0.00000  1       21
siesta:     -7.01096  30.82560   0.00000  1       22
siesta:     -7.01096  33.51406   0.00000  1       23
siesta:     -0.02582   2.59549   0.00000  2       24
siesta:     -0.02582   5.28395   0.00000  2       25
siesta:     -2.35420  38.89134   0.00000  2       26
siesta:     -2.35420  41.57980   0.00000  2       27
siesta:      2.30256  38.89134   0.00000  2       28
siesta:      2.30256  41.57980   0.00000  2       29
siesta:      4.63094  34.85847   0.00000  2       30
siesta:      4.63094  37.54693   0.00000  2       31
siesta:      6.95932  30.82560   0.00000  2       32
siesta:      6.95932  33.51406   0.00000  2       33
siesta:      9.28770  26.79272   0.00000  2       34
siesta:      9.28770  29.48119   0.00000  2       35
siesta:     -4.68258  37.54693   0.00000  2       36
siesta:      2.30256   6.62836   0.00000  2       37
siesta:      2.30256   9.31683   0.00000  2       38
siesta:      4.63094  10.66124   0.00000  2       39
siesta:      9.28770  18.72698   0.00000  2       40
siesta:      9.28770  21.41544   0.00000  2       41
siesta:     11.61608  22.75985   0.00000  2       42
siesta:     11.61608  25.44831   0.00000  2       43
siesta:     -2.35420   6.62836   0.00000  2       44
siesta:     -2.35420   9.31683   0.00000  2       45
siesta:     -0.02582  10.66124   0.00000  2       46
siesta:     -0.02582  13.34970   0.00000  2       47
siesta:      6.95932  22.75985   0.00000  2       48
siesta:      6.95932  25.44831   0.00000  2       49
siesta:     -4.68258  10.66124   0.00000  2       50
siesta:     -4.68258  13.34970   0.00000  2       51
siesta:     -2.35420  14.69411   0.00000  2       52
siesta:     -2.35420  17.38257   0.00000  2       53
siesta:      2.30256  25.44831   0.00000  2       54
siesta:     -7.01096  14.69411   0.00000  2       55
siesta:     -7.01096  17.38257   0.00000  2       56
siesta:     -4.68258  18.72698   0.00000  2       57
siesta:     -2.35420  25.44831   0.00000  2       58
siesta:     -9.33934  18.72698   0.00000  2       59
siesta:     -9.33934  21.41544   0.00000  2       60
siesta:    -11.66772  22.75985   0.00000  2       61
siesta:    -11.66772  25.44831   0.00000  2       62
siesta:      4.63094  26.79272   0.00000  2       63
siesta:      4.63094  29.48119   0.00000  2       64
siesta:     -0.02582  26.79272   0.00000  2       65
siesta:     -0.02582  29.48119   0.00000  2       66
siesta:      2.30256  30.82560   0.00000  2       67
siesta:      2.30256  33.51406   0.00000  2       68
siesta:     -0.02582  34.85847   0.00000  2       69
siesta:     -0.02582  37.54693   0.00000  2       70
siesta:     -0.02582  42.92421   0.00000  2       71
siesta:     -0.02582  45.61267   0.00000  2       72

siesta: System type = slab      

initatomlists: Number of atoms, orbitals, and projectors:     72   936  1152

siesta: ******************** Simulation parameters ****************************
siesta:
siesta: The following are some of the parameters of the simulation.
siesta: A complete list of the parameters used, including default values,
siesta: can be found in file out.fdf
siesta:
redata: Non-Collinear-spin run           =     F
redata: SpinPolarized (Up/Down) run      =     F
redata: Number of spin components        =     1
redata: Long output                      =     F
redata: Number of Atomic Species         =        2
redata: Charge density info will appear in .RHO file
redata: Write Mulliken Pop.              =     NO
redata: Mesh Cutoff                      =   200.0000  Ry
redata: Net charge of the system         =     0.0000 |e|
redata: Max. number of SCF Iter          =      500
redata: SCF convergence failure will abort job
redata: Performing Pulay mixing using    =    10 iterations
redata: Mix DM in first SCF step ?       =     F
redata: Write Pulay info on disk?        =     F
redata: Discard 1st Pulay DM after  kick =     F
redata: New DM Mixing Weight             =     0.0500
redata: New DM Occupancy tolerance       = 0.000000000001
redata: No kicks to SCF
redata: DM Mixing Weight for Kicks       =     0.5000
redata: DM Tolerance for SCF             =     0.000100
redata: Require Energy convergence for SCF =     F
redata: DM Energy tolerance for SCF      =     0.000100 eV
redata: Require Harris convergence for SCF =     F
redata: DM Harris energy tolerance for SCF =     0.000100 eV
redata: Using Saved Data (generic)   =     F
redata: Use continuation files for DM    =     T
redata: Neglect nonoverlap interactions  =     F
redata: Method of Calculation            =     Diagonalization
redata: Divide and Conquer               =     T
redata: Electronic Temperature           =     0.0019  Ry
redata: Fix the spin of the system       =     F
redata: Dynamics option                  =     Verlet MD run
redata: Initial MD time step             =        1
redata:   Final MD time step             =        1
redata: Length of MD time step           =     1.0000  fs
redata: Initial Temperature of MD run    =     0.0000  K
redata: Perform a MD quench              =     F
redata: ***********************************************************************
Total number of electrons:   311.000000
Total ionic charge:   311.000000

* ProcessorY, Blocksize:    2  24

k-point displ. along   1 input, could be:     0.50    0.00
k-point displ. along   2 input, could be:     0.50    0.00
 Kpoints in:          231 . Kpoints trimmed:          231

siesta: k-grid: Number of k-points =   231
siesta: k-grid: Cutoff (effective) =     5.000 Ang
siesta: k-grid: Supercell and displacements
siesta: k-grid:   21   0   0      0.500
siesta: k-grid:    0  21   0      0.500
siesta: k-grid:    0   0   1      0.000
Naive supercell factors:     2    2    2

superc: Internal auxiliary supercell:     2 x     2 x     2  =       8
superc: Number of atoms, orbitals, and projectors:    576   7488   9216

* Maximum dynamic memory allocated =     4 MB

siesta:                 ==============================
                            Begin MD step =      1
                        ==============================

superc: Internal auxiliary supercell:     2 x     2 x     2  =       8
superc: Number of atoms, orbitals, and projectors:    576   7488   9216

outcell: Unit cell vectors (Ang):
       12.804619    7.392750    0.000000
        0.000000   14.785500    0.000000
        0.000000    0.000000   10.000000

outcell: Cell vector modules (Ang)   :   14.785500   14.785500   10.000000
outcell: Cell angles (23,13,12) (deg):     90.0000     90.0000     60.0000
outcell: Cell volume (Ang**3)        :   1893.2269
New_DM. Step:     1
Initializing Density Matrix...

InitMesh: MESH =   120 x   120 x    90 =     1296000
InitMesh: Mesh cutoff (required, used) =   200.000   223.865 Ry

* Maximum dynamic memory allocated =   179 MB

stepf: Fermi-Dirac step function

siesta: Program's energy decomposition (eV):
siesta: Ebs     =     -6275.732205
siesta: Eions   =     22100.188487
siesta: Ena     =      4958.928451
siesta: Ekin    =      8308.399223
siesta: Enl     =       -16.998381
siesta: DEna    =        -0.000015
siesta: DUscf   =         0.000000
siesta: DUext   =         0.000000
siesta: Exc     =     -4740.870470
siesta: eta*DQ  =         0.000000
siesta: Emadel  =         0.000000
siesta: Emeta   =         0.000000
siesta: Emolmec =         0.000000
siesta: Ekinion =         0.000000
siesta: Eharris =    -13240.488025
siesta: Etot    =    -13590.729679
siesta: FreeEng =    -13590.729679

siesta: iscf   Eharris(eV)      E_KS(eV)   FreeEng(eV)   dDmax  Ef(eV)
siesta:    1   -13240.4880   -13590.7297   -13590.7297  6.3900 -6.8279
timer: Routine,Calls,Time,% = IterSCF        1    3334.295  99.69
elaps: Routine,Calls,Wall,% = IterSCF        1     417.599  99.69
siesta:    2   -20090.3597   -12297.9013   -12297.9544 17.4140 -7.6991
siesta:    3   -13238.2229   -13361.7084   -13361.7671  2.0503 -4.8524
siesta:    4   -13149.2875   -13256.3729   -13256.4085  1.2435 -4.2780
siesta:    5   -13082.5549   -13156.1585   -13156.2128  0.8926 -3.8474
siesta:    6   -13077.8393   -13123.2344   -13123.2795  0.8354 -3.7278
siesta:    7   -13063.5385   -13105.0193   -13105.0732  0.7387 -3.6615
siesta:    8   -13057.2553   -13088.6793   -13088.7235  0.5933 -3.6264
siesta:    9   -13056.5607   -13076.4982   -13076.5667  0.5249 -3.6086
siesta:   10   -13055.8070   -13072.2392   -13072.2851  0.4590 -3.5755
siesta:   11   -13055.4259   -13056.8422   -13056.8969  0.2234 -3.6729
siesta:   12   -13055.5745   -13050.0664   -13050.1420  0.2221 -3.6581
siesta:   13   -13055.3867   -13048.6375   -13048.6965  0.2393 -3.6542
siesta:   14   -13054.6131   -13050.2520   -13050.3239  0.1765 -3.6238
siesta:   15   -13054.5479   -13051.2770   -13051.3604  0.1251 -3.6136
siesta:   16   -13054.4267   -13051.2918   -13051.3766  0.1096 -3.6087
siesta:   17   -13054.3207   -13052.1981   -13052.2706  0.0662 -3.6263
siesta:   18   -13054.2889   -13052.7723   -13052.8459  0.0485 -3.6195
siesta:   19   -13054.2568   -13053.8124   -13053.8847  0.0623 -3.6188
siesta:   20   -13054.2461   -13054.3997   -13054.4727  0.0459 -3.6099
siesta:   21   -13054.2428   -13053.8140   -13053.8866  0.0241 -3.6046
siesta:   22   -13054.2364   -13053.6739   -13053.7423  0.0239 -3.6050
siesta:   23   -13054.2361   -13053.2661   -13053.3377  0.0175 -3.6013
siesta:   24   -13054.2328   -13053.3825   -13053.4523  0.0119 -3.6006
siesta:   25   -13054.2322   -13053.4956   -13053.5671  0.0090 -3.6015
siesta:   26   -13054.2320   -13053.6883   -13053.7598  0.0060 -3.6041
siesta:   27   -13054.2319   -13053.8132   -13053.8845  0.0039 -3.6061
siesta:   28   -13054.2318   -13053.8338   -13053.9049  0.0032 -3.6068
siesta:   29   -13054.2317   -13053.9189   -13053.9900  0.0024 -3.6071
siesta:   30   -13054.2319   -13054.0655   -13054.1367  0.0012 -3.6073
siesta:   31   -13054.2318   -13054.1014   -13054.1724  0.0008 -3.6075
siesta:   32   -13054.2318   -13054.1430   -13054.2140  0.0004 -3.6075
siesta:   33   -13054.2317   -13054.1921   -13054.2632  0.0004 -3.6075
siesta:   34   -13054.2317   -13054.2131   -13054.2842  0.0003 -3.6073
siesta:   35   -13054.2317   -13054.2160   -13054.2871  0.0002 -3.6072
siesta:   36   -13054.2317   -13054.2249   -13054.2959  0.0002 -3.6071
siesta:   37   -13054.2317   -13054.2269   -13054.2980  0.0001 -3.6070
siesta:   38   -13054.2317   -13054.2251   -13054.2961  0.0001 -3.6070
siesta:   39   -13054.2317   -13054.2285   -13054.2995  0.0001 -3.6070

siesta: E_KS(eV) =           -13054.2292

siesta: E_KS - E_eggbox =    -13054.2292

siesta: Atomic forces (eV/Ang):
----------------------------------------
   Tot    0.127288    0.061474    0.000000
----------------------------------------
   Max  684.931466
   Res  172.928495    sqrt( Sum f_i^2 / 3N )
----------------------------------------
   Max  684.931466    constrained

Stress-tensor-Voigt (kbar):     -725.52    -3056.09       -0.01       37.71        0.00        0.00
(Free)E + p*V (eV/cell)   -11564.7866
Target enthalpy (eV/cell)   -13054.3002

siesta: Stress tensor (static) (eV/Ang**3):
        -0.452830    0.023538    0.000000
         0.023538   -1.907443    0.000000
         0.000000    0.000000   -0.000004

siesta: Pressure (static):       1260.54080619  kBar

siesta: Stress tensor (total) (eV/Ang**3):
        -0.452830    0.023538    0.000000
         0.023538   -1.907443    0.000000
         0.000000    0.000000   -0.000004

siesta: Pressure (total):       1260.54080619  kBar

siesta: Temp_ion =       0.000 K

* Maximum dynamic memory allocated =   196 MB
Computing bands...

siesta: Program's energy decomposition (eV):
siesta: Ebs     =     -5063.043673
siesta: Eions   =     22100.188487
siesta: Ena     =      4958.928451
siesta: Ekin    =     11332.914007
siesta: Enl     =     -1662.008914
siesta: DEna    =      -784.312507
siesta: DUscf   =       112.318831
siesta: DUext   =         0.000000
siesta: Exc     =     -4911.880611
siesta: eta*DQ  =         0.000000
siesta: Emadel  =         0.000000
siesta: Emeta   =         0.000000
siesta: Emolmec =         0.000000
siesta: Ekinion =         0.000000
siesta: Eharris =    -13054.231745
siesta: Etot    =    -13054.229231
siesta: FreeEng =    -13054.300246

siesta: Final energy (eV):
siesta:  Band Struct. =   -5063.043673
siesta:       Kinetic =   11332.914007
siesta:       Hartree =   36203.398140
siesta:    Ext. field =       0.000000
siesta:   Exch.-corr. =   -4911.880611
siesta:  Ion-electron =  -83215.821855
siesta:       Ion-ion =   27537.161088
siesta:       Ekinion =       0.000000
siesta:         Total =  -13054.229231

siesta: Atomic forces (eV/Ang):
siesta:      1  -30.354880   13.340813    0.000000
siesta:      2   29.983630  -12.823783    0.000000
siesta:      3    0.237814    3.643547    0.000000
siesta:      4    3.898408   -0.493232    0.000000
siesta:      5   -2.734347  680.517486    0.000000
siesta:      6   33.413406  -14.118889    0.000000
siesta:      7   -0.033224    2.568432    0.000000
siesta:      8    1.647869    0.559647    0.000000
siesta:      9  -14.246029  684.931466    0.000000
siesta:     10   -0.404369   -5.635258    0.000000
siesta:     11    1.771645    0.888939    0.000000
siesta:     12    0.973805   -0.918638    0.000000
siesta:     13   -3.200512    2.776057    0.000000
siesta:     14   -1.178517    0.451111    0.000000
siesta:     15    2.528068   -0.127926    0.000000
siesta:     16   -2.974880    0.305589    0.000000
siesta:     17    0.933036    0.315280    0.000000
siesta:     18   -0.167868   -2.185448    0.000000
siesta:     19   -2.175127   -3.635096    0.000000
siesta:     20  -26.106919    5.721900    0.000000
siesta:     21   10.627764 -672.110265    0.000000
siesta:     22   -0.755943   -0.047179    0.000000
siesta:     23   -0.999445   -3.775009    0.000000
siesta:     24  -16.340740  550.173977    0.000000
siesta:     25   -6.704978 -123.550625    0.000000
siesta:     26    0.089890  126.890757    0.000000
siesta:     27  -13.101876 -547.948780    0.000000
siesta:     28    1.461730  116.733583    0.000000
siesta:     29   30.566783 -653.631513    0.000000
siesta:     30   26.613721    5.014580    0.000000
siesta:     31   34.568991 -552.608504    0.000000
siesta:     32    2.217098    0.260736    0.000000
siesta:     33   -2.794717    1.154971    0.000000
siesta:     34    2.234053    2.336687    0.000000
siesta:     35   -1.222142   -0.108018    0.000000
siesta:     36  -23.155703 -550.872196    0.000000
siesta:     37   13.197123  548.277190    0.000000
siesta:     38   -0.277233 -125.906840    0.000000
siesta:     39   23.468276  550.585428    0.000000
siesta:     40   -1.678848   -2.516975    0.000000
siesta:     41    0.646905   -1.882607    0.000000
siesta:     42   -0.241295    6.126027    0.000000
siesta:     43   -0.284322   -7.025270    0.000000
siesta:     44  -36.303432  653.254576    0.000000
siesta:     45   -1.656295 -118.775340    0.000000
siesta:     46    4.853032  545.004869    0.000000
siesta:     47   -0.602387 -128.042951    0.000000
siesta:     48   -1.109140    0.893806    0.000000
siesta:     49   -0.698339   -1.098348    0.000000
siesta:     50  -34.605866  553.667407    0.000000
siesta:     51  -27.323129   -5.159336    0.000000
siesta:     52  -25.905063  557.076745    0.000000
siesta:     53  -25.789333  -10.781085    0.000000
siesta:     54   -0.864614   -0.160669    0.000000
siesta:     55    2.263092   -1.223562    0.000000
siesta:     56   -1.349556    0.333675    0.000000
siesta:     57    1.160495    2.989950    0.000000
siesta:     58   -0.987098    0.446906    0.000000
siesta:     59    0.733967    0.216987    0.000000
siesta:     60   -1.748606   -1.280770    0.000000
siesta:     61    1.212780    2.954090    0.000000
siesta:     62    1.634712   -0.186005    0.000000
siesta:     63    0.329423    0.268702    0.000000
siesta:     64   -1.254654   -2.741830    0.000000
siesta:     65    0.455410   -1.678083    0.000000
siesta:     66   19.266316 -576.641815    0.000000
siesta:     67   23.253166    5.508201    0.000000
siesta:     68   24.666856 -559.253466    0.000000
siesta:     69    2.045900  128.656557    0.000000
siesta:     70   -3.808659 -545.816502    0.000000
siesta:     71    4.244234  120.613709    0.000000
siesta:     72    8.067978 -640.637096    0.000000
siesta: ----------------------------------------
siesta:    Tot    0.127288    0.061474    0.000000

siesta: Stress tensor (static) (eV/Ang**3):
siesta:    -0.452830    0.023538    0.000000
siesta:     0.023538   -1.907443    0.000000
siesta:     0.000000    0.000000   -0.000004

siesta: Cell volume =       1893.226884 Ang**3

siesta: Pressure (static):
siesta:                Solid            Molecule  Units
siesta:           0.00856881          0.13562730  Ry/Bohr**3
siesta:           0.78675918         12.45283749  eV/Ang**3
siesta:        1260.54080619      19951.86091670  kBar
(Free)E+ p_basis*V_orbitals  =      -13026.850791
(Free)Eharris+ p_basis*V_orbitals  =      -13026.854037

siesta: Electric dipole (a.u.)  =    0.000000    0.000000    0.000000
siesta: Electric dipole (Debye) =    0.000000    0.000000    0.000000

* Maximum dynamic memory allocated : Node    0 =   196 MB
* Maximum dynamic memory allocated : Node    1 =    70 MB
* Maximum dynamic memory allocated : Node    2 =    72 MB
* Maximum dynamic memory allocated : Node    3 =   188 MB
* Maximum dynamic memory allocated : Node    4 =   187 MB
* Maximum dynamic memory allocated : Node    5 =    71 MB
* Maximum dynamic memory allocated : Node    6 =    72 MB
* Maximum dynamic memory allocated : Node    7 =   170 MB

* Maximum memory occured during matrixMtoO                    

timer: CPU execution times:
timer:  Routine       Calls   Time/call    Tot.time        %
timer:  siesta            1  128562.795  128562.795   100.00
timer:  Setup             1       2.702       2.702     0.00
timer:  bands             3     243.208     729.623     0.57
timer:  writewave         1       0.016       0.016     0.00
timer:  KSV_init          1       0.000       0.000     0.00
timer:  IterMD            1  127825.242  127825.242    99.43
timer:  hsparse           1       0.281       0.281     0.00
timer:  overlap           1       7.113       7.113     0.01
timer:  IterSCF          39    3273.799  127678.179    99.31
timer:  kinefsm           2       3.669       7.338     0.01
timer:  nlefsm            2      17.046      34.091     0.03
timer:  DHSCF            40      73.647    2945.896     2.29
timer:  DHSCF1            1       0.744       0.744     0.00
timer:  DHSCF2            1      30.115      30.115     0.02
timer:  REORD           322       0.005       1.676     0.00
timer:  POISON           41       0.871      35.695     0.03
timer:  DHSCF3           40      72.167    2886.667     2.25
timer:  rhoofd           40      15.107     604.288     0.47
timer:  cellXC           40       3.273     130.933     0.10
timer:  vmat             40      33.550    1342.020     1.04
timer:  MolMec            2       0.000       0.001     0.00
timer:  diagon           39    3199.427  124777.666    97.06
timer:  c-eigval       9130       6.028   55037.135    42.81
timer:  c-buildHS      9130       0.047     425.242     0.33
timer:  cdiag         18139       6.150  111563.479    86.78
timer:  cdiag1        18139       0.385    6990.908     5.44
timer:  cdiag2        18139       1.767   32051.714    24.93
timer:  cdiag3        18139       3.740   67845.810    52.77
timer:  cdiag4        18139       0.152    2750.675     2.14
timer:  c-eigvec       9009       6.358   57278.369    44.55
timer:  c-buildD       9009       1.459   13145.898    10.23
timer:  DHSCF4            1      27.617      27.617     0.02
timer:  dfscf             1      25.766      25.766     0.02
timer:  overfsm           1       0.372       0.372     0.00
timer:  optical           1       4.567       4.567     0.00
  

elaps: ELAPSED times:
elaps:  Routine       Calls   Time/call    Tot.time        %
elaps:  siesta            1   16100.753   16100.753   100.00
elaps:  Setup             1       0.339       0.339     0.00
elaps:  bands             3      30.476      91.428     0.57
elaps:  writewave         1       0.002       0.002     0.00
elaps:  KSV_init          1       0.000       0.000     0.00
elaps:  IterMD            1   16008.383   16008.383    99.43
elaps:  hsparse           1       0.036       0.036     0.00
elaps:  overlap           1       0.892       0.892     0.01
elaps:  IterSCF          39     409.999   15989.970    99.31
elaps:  kinefsm           2       0.458       0.917     0.01
elaps:  nlefsm            2       2.154       4.309     0.03
elaps:  DHSCF            40       9.316     372.649     2.31
elaps:  DHSCF1            1       0.095       0.095     0.00
elaps:  DHSCF2            1       3.770       3.770     0.02
elaps:  REORD           322       0.001       0.213     0.00
elaps:  POISON           41       0.110       4.499     0.03
elaps:  DHSCF3           40       9.038     361.506     2.25
elaps:  rhoofd           40       4.294     171.761     1.07
elaps:  cellXC           40       0.410      16.390     0.10
elaps:  vmat             40       4.201     168.058     1.04
elaps:  MolMec            2       0.000       0.000     0.00
elaps:  diagon           39     400.681   15626.578    97.05
elaps:  c-eigval       9130       0.755    6892.613    42.81
elaps:  c-buildHS      9130       0.006      55.807     0.35
elaps:  cdiag         18139       0.772   14004.601    86.98
elaps:  cdiag1        18139       0.048     870.798     5.41
elaps:  cdiag2        18139       0.221    4015.006    24.94
elaps:  cdiag3        18139       0.469    8508.079    52.84
elaps:  cdiag4        18139       0.019     348.888     2.17
elaps:  c-eigvec       9009       0.800    7211.640    44.79
elaps:  c-buildD       9009       0.178    1607.219     9.98
elaps:  DHSCF4            1       7.177       7.177     0.04
elaps:  dfscf             1       6.782       6.782     0.04
elaps:  overfsm           1       0.045       0.045     0.00
elaps:  optical           1       0.000       0.000     0.00
  
>> End of run:  26-APR-2016  14:50:56
