Siesta Version:                                        siesta-3.2-pl-3
Architecture  : x86_64-unknown-linux-gnu--unknown
Compiler flags: mpiifort -g -O2 -fPIC -xSSE4.1 -fp-model source -shared-intel 
PARALLEL version

* Running on    8 nodes in parallel
>> Start of run:  22-APR-2016   8:42:45

                           ***********************       
                           *  WELCOME TO SIESTA  *       
                           ***********************       

reinit: Reading from standard input
************************** Dump of input data file ****************************
#(1) General system descriptors
SystemName            GRP_doping    # Descriptive name of the system
SystemLabel           GRP_doping    # Short name for naming files
%include STRUCT.fdf
%include KPT.fdf
%include BASIS.fdf
#%include TS.fdf # for transiesta calculation
#(4) DFT, Grid, SCF
XC.functional         GGA           # LDA or GGA (default = LDA)
XC.authors            PBE           # CA (Ceperley-Aldr) = PZ
                                    #    (Perdew-Zunger) - LDA - Default
                                    # PW92 (Perdew-Wang-92) - LDA
                                    # PBE (Perdew-Burke-Ernzerhof) - GGA
MeshCutoff            200.000000    Ry      # Default: 50.0 Ry ~ 0.444 Bohr
                                    #         100.0 Ry ~ 0.314 Bohr
MaxSCFIterations      500           # Default: 50
DM.MixingWeight       0.05          # Default: 0.25
DM.NumberPulay        10            # Default: 0
DM.PulayOnFile        F             # SystemLabel.P1, SystemLabel.P2
DM.Tolerance          1.d-4         # Default: 1.d-4
DM.UseSaveDM          .true.        # because of the bug
SCFMustConverge       .true.
NeglNonOverlapInt     F             # Default: F
#(5) Eigenvalue problem: order-N or diagonalization
SolutionMethod        Diagon        # or Transiesta
ElectronicTemperature 300.0 K       # Default: 300.0 K
#(6) Molecular dynamics and relaxations
#MD.TypeOfRun          CG            # Type of dynamics:
#MD.VariableCell       F
#MD.NumCGsteps         0           # 0 for single-point / 100 for gopt
#MD.MaxCGDispl         0.2 Bohr      # Default: 0.2 Bohr
#MD.MaxForceTol        0.02 eV/Ang   # Default: 0.04 eV/Ang
#MD.MaxStressTol       1.0 GPa       # Default: 1.0 GPa
# Geometry Constraints
#%block GeometryConstraints
#	position from 1 to 44
#%endblock GeometryConstraints
BandLinesScale   pi/a
%block BandLines
 1   0.00000000  0.00000000  0.00000000
50   0.00000000  0.07809418  0.00000000
50   0.04509075  0.07809242  0.00000000
20   0.00000000  0.00000000  0.00000000
%endblock BandLines
************************** End of input data file *****************************

reinit: -----------------------------------------------------------------------
reinit: System Name: GRP_doping
reinit: -----------------------------------------------------------------------
reinit: System Label: GRP_doping                                                  
reinit: -----------------------------------------------------------------------

initatom: Reading input for the pseudopotentials and atomic orbitals ----------
 Species number:            1  Label: N Atomic number:           7
 Species number:            2  Label: C Atomic number:           6
Ground state valence configuration:   2s02  2p03
Reading pseudopotential information in formatted form from N.psf

Valence configuration for pseudopotential generation:
2s( 2.00) rc: 1.48
2p( 3.00) rc: 1.48
3d( 0.00) rc: 1.48
4f( 0.00) rc: 1.48
Ground state valence configuration:   2s02  2p02
Reading pseudopotential information in formatted form from C.psf

Valence configuration for pseudopotential generation:
2s( 2.00) rc: 1.54
2p( 2.00) rc: 1.54
3d( 0.00) rc: 1.54
4f( 0.00) rc: 1.54
For N, standard SIESTA heuristics set lmxkb to 3
 (one more than the basis l, including polarization orbitals).
Use PS.lmax or PS.KBprojectors blocks to override.
For C, standard SIESTA heuristics set lmxkb to 3
 (one more than the basis l, including polarization orbitals).
Use PS.lmax or PS.KBprojectors blocks to override.

<basis_specs>
===============================================================================
N                    Z=   7    Mass=  14.010        Charge= 0.17977+309
Lmxo=1 Lmxkb= 3    BasisType=split      Semic=F
L=0  Nsemic=0  Cnfigmx=2
          n=1  nzeta=2  polorb=0
            splnorm:   0.15000    
               vcte:    0.0000    
               rinn:    0.0000    
                rcs:    0.0000      0.0000    
            lambdas:    1.0000      1.0000    
L=1  Nsemic=0  Cnfigmx=2
          n=1  nzeta=2  polorb=1
            splnorm:   0.15000    
               vcte:    0.0000    
               rinn:    0.0000    
                rcs:    0.0000      0.0000    
            lambdas:    1.0000      1.0000    
-------------------------------------------------------------------------------
L=0  Nkbl=1  erefs: 0.17977+309
L=1  Nkbl=1  erefs: 0.17977+309
L=2  Nkbl=1  erefs: 0.17977+309
L=3  Nkbl=1  erefs: 0.17977+309
===============================================================================
</basis_specs>

atom: Called for N                     (Z =   7)

read_vps: Pseudopotential generation method:
read_vps: ATM3      Troullier-Martins                       
Total valence charge:    5.00000

read_vps: Pseudopotential includes a core correction:
read_vps: Pseudo-core for xc-correction

xc_check: Exchange-correlation functional:
xc_check: GGA Perdew, Burke & Ernzerhof 1996
V l=0 = -2*Zval/r beyond r=  1.4606
V l=1 = -2*Zval/r beyond r=  1.4606
V l=2 = -2*Zval/r beyond r=  1.4606
V l=3 = -2*Zval/r beyond r=  1.4606
All V_l potentials equal beyond r=  1.4606
This should be close to max(r_c) in ps generation
All pots = -2*Zval/r beyond r=  1.4606

VLOCAL1: 99.0% of the norm of Vloc inside     20.347 Ry
VLOCAL1: 99.9% of the norm of Vloc inside     46.372 Ry
atom: Maximum radius for 4*pi*r*r*local-pseudopot. charge    1.76189
atom: Maximum radius for r*vlocal+2*Zval:    1.53550
GHOST: No ghost state for L =  0
GHOST: No ghost state for L =  1
GHOST: No ghost state for L =  2
GHOST: No ghost state for L =  3

KBgen: Kleinman-Bylander projectors: 
   l= 0   rc=  1.634559   el= -1.363963   Ekb=  5.296955   kbcos=  0.335621
   l= 1   rc=  1.614250   el= -0.521451   Ekb= -5.259161   kbcos= -0.433408
   l= 2   rc=  1.718383   el=  0.001991   Ekb= -1.271464   kbcos= -0.007566
   l= 3   rc=  1.761893   el=  0.003093   Ekb= -0.494769   kbcos= -0.001015

KBgen: Total number of  Kleinman-Bylander projectors:   16
atom: -------------------------------------------------------------------------

atom: SANKEY-TYPE ORBITALS:
atom: Selected multiple-zeta basis: split     

SPLIT: Orbitals with angular momentum L= 0

SPLIT: Basis orbitals for state 2s

SPLIT: PAO cut-off radius determined from an
SPLIT: energy shift=  0.007350 Ry

   izeta = 1
                 lambda =    1.000000
                     rc =    4.071465
                 energy =   -1.356470
                kinetic =    1.176977
    potential(screened) =   -2.533447
       potential(ionic) =   -8.057990

   izeta = 2
                 rmatch =    2.905100
              splitnorm =    0.150000
                 energy =   -1.158343
                kinetic =    1.813009
    potential(screened) =   -2.971352
       potential(ionic) =   -8.901931

SPLIT: Orbitals with angular momentum L= 1

SPLIT: Basis orbitals for state 2p

SPLIT: PAO cut-off radius determined from an
SPLIT: energy shift=  0.007350 Ry

   izeta = 1
                 lambda =    1.000000
                     rc =    4.972977
                 energy =   -0.513884
                kinetic =    3.441732
    potential(screened) =   -3.955616
       potential(ionic) =   -9.287901

   izeta = 2
                 rmatch =    3.054066
              splitnorm =    0.150000
                 energy =   -0.318226
                kinetic =    5.125348
    potential(screened) =   -5.443573
       potential(ionic) =  -11.380999

POLgen: Perturbative polarization orbital with L=  2

POLgen: Polarization orbital for state 2p

   izeta = 1
                     rc =    4.972977
                 energy =    1.607437
                kinetic =    3.268125
    potential(screened) =   -1.660688
       potential(ionic) =   -5.973652
atom: Total number of Sankey-type orbitals: 13

atm_pop: Valence configuration (for local Pseudopot. screening):
 2s( 2.00)                                                            
 2p( 3.00)                                                            
Vna: chval, zval:    5.00000   5.00000

Vna:  Cut-off radius for the neutral-atom potential:   4.972977
comcore: Pseudo-core radius Rcore=  1.554824

atom: _________________________________________________________________________

<basis_specs>
===============================================================================
C                    Z=   6    Mass=  12.010        Charge= 0.17977+309
Lmxo=1 Lmxkb= 3    BasisType=split      Semic=F
L=0  Nsemic=0  Cnfigmx=2
          n=1  nzeta=2  polorb=0
            splnorm:   0.15000    
               vcte:    0.0000    
               rinn:    0.0000    
                rcs:    0.0000      0.0000    
            lambdas:    1.0000      1.0000    
L=1  Nsemic=0  Cnfigmx=2
          n=1  nzeta=2  polorb=1
            splnorm:   0.15000    
               vcte:    0.0000    
               rinn:    0.0000    
                rcs:    0.0000      0.0000    
            lambdas:    1.0000      1.0000    
-------------------------------------------------------------------------------
L=0  Nkbl=1  erefs: 0.17977+309
L=1  Nkbl=1  erefs: 0.17977+309
L=2  Nkbl=1  erefs: 0.17977+309
L=3  Nkbl=1  erefs: 0.17977+309
===============================================================================
</basis_specs>

atom: Called for C                     (Z =   6)

read_vps: Pseudopotential generation method:
read_vps: ATM3      Troullier-Martins                       
Total valence charge:    4.00000

read_vps: Pseudopotential includes a core correction:
read_vps: Pseudo-core for xc-correction

xc_check: Exchange-correlation functional:
xc_check: GGA Perdew, Burke & Ernzerhof 1996
V l=0 = -2*Zval/r beyond r=  1.5227
V l=1 = -2*Zval/r beyond r=  1.5227
V l=2 = -2*Zval/r beyond r=  1.5227
V l=3 = -2*Zval/r beyond r=  1.5038
All V_l potentials equal beyond r=  1.5227
This should be close to max(r_c) in ps generation
All pots = -2*Zval/r beyond r=  1.5227

VLOCAL1: 99.0% of the norm of Vloc inside     18.722 Ry
VLOCAL1: 99.9% of the norm of Vloc inside     42.668 Ry
atom: Maximum radius for 4*pi*r*r*local-pseudopot. charge    1.83678
atom: Maximum radius for r*vlocal+2*Zval:    1.58088
GHOST: No ghost state for L =  0
GHOST: No ghost state for L =  1
GHOST: No ghost state for L =  2
GHOST: No ghost state for L =  3

KBgen: Kleinman-Bylander projectors: 
   l= 0   rc=  1.704034   el= -1.009801   Ekb=  5.335044   kbcos=  0.316824
   l= 1   rc=  1.704034   el= -0.388707   Ekb= -3.785862   kbcos= -0.366464
   l= 2   rc=  1.791422   el=  0.001971   Ekb= -0.970471   kbcos= -0.009212
   l= 3   rc=  1.859892   el=  0.003065   Ekb= -0.399525   kbcos= -0.001223

KBgen: Total number of  Kleinman-Bylander projectors:   16
atom: -------------------------------------------------------------------------

atom: SANKEY-TYPE ORBITALS:
atom: Selected multiple-zeta basis: split     

SPLIT: Orbitals with angular momentum L= 0

SPLIT: Basis orbitals for state 2s

SPLIT: PAO cut-off radius determined from an
SPLIT: energy shift=  0.007350 Ry

   izeta = 1
                 lambda =    1.000000
                     rc =    4.632753
                 energy =   -1.002270
                kinetic =    0.855760
    potential(screened) =   -1.858031
       potential(ionic) =   -5.417575

   izeta = 2
                 rmatch =    3.431921
              splitnorm =    0.150000
                 energy =   -0.867111
                kinetic =    1.300804
    potential(screened) =   -2.167915
       potential(ionic) =   -5.962684

SPLIT: Orbitals with angular momentum L= 1

SPLIT: Basis orbitals for state 2p

SPLIT: PAO cut-off radius determined from an
SPLIT: energy shift=  0.007350 Ry

   izeta = 1
                 lambda =    1.000000
                     rc =    5.658549
                 energy =   -0.381140
                kinetic =    2.399701
    potential(screened) =   -2.780841
       potential(ionic) =   -6.206085

   izeta = 2
                 rmatch =    3.653288
              splitnorm =    0.150000
                 energy =   -0.249149
                kinetic =    3.542762
    potential(screened) =   -3.791911
       potential(ionic) =   -7.581078

POLgen: Perturbative polarization orbital with L=  2

POLgen: Polarization orbital for state 2p

   izeta = 1
                     rc =    5.658549
                 energy =    1.109913
                kinetic =    2.304789
    potential(screened) =   -1.194876
       potential(ionic) =   -4.013592
atom: Total number of Sankey-type orbitals: 13

atm_pop: Valence configuration (for local Pseudopot. screening):
 2s( 2.00)                                                            
 2p( 2.00)                                                            
Vna: chval, zval:    4.00000   4.00000

Vna:  Cut-off radius for the neutral-atom potential:   5.658549
comcore: Pseudo-core radius Rcore=  1.791422

atom: _________________________________________________________________________

prinput: Basis input ----------------------------------------------------------

PAO.BasisType split     

%block ChemicalSpeciesLabel
    1    7 N                       # Species index, atomic number, species label
    2    6 C                       # Species index, atomic number, species label
%endblock ChemicalSpeciesLabel

%block PAO.Basis                 # Define Basis set
N                     2                    # Species label, number of l-shells
 n=2   0   2                         # n, l, Nzeta 
   4.071      2.905   
   1.000      1.000   
 n=2   1   2 P   1                   # n, l, Nzeta, Polarization, NzetaPol
   4.973      3.054   
   1.000      1.000   
C                     2                    # Species label, number of l-shells
 n=2   0   2                         # n, l, Nzeta 
   4.633      3.432   
   1.000      1.000   
 n=2   1   2 P   1                   # n, l, Nzeta, Polarization, NzetaPol
   5.659      3.653   
   1.000      1.000   
%endblock PAO.Basis

prinput: ----------------------------------------------------------------------

coor:   Atomic-coordinates input format  =     Fractional

siesta: Atomic coordinates (Bohr) and species
siesta:     -2.35420  38.89134   0.00000  1        1
siesta:      2.30256  38.89134   0.00000  1        2
siesta:      4.63094  34.85847   0.00000  1        3
siesta:      4.63094  37.54693   0.00000  1        4
siesta:     -4.68258  34.85847   0.00000  1        5
siesta:     -4.68258  37.54693   0.00000  1        6
siesta:      2.30256   9.31683   0.00000  1        7
siesta:      4.63094  10.66124   0.00000  1        8
siesta:      4.63094  13.34970   0.00000  1        9
siesta:     -2.35420   9.31683   0.00000  1       10
siesta:     -0.02582  10.66124   0.00000  1       11
siesta:     -0.02582  13.34970   0.00000  1       12
siesta:      2.30256  14.69411   0.00000  1       13
siesta:     -4.68258  10.66124   0.00000  1       14
siesta:     -4.68258  13.34970   0.00000  1       15
siesta:     -2.35420  14.69411   0.00000  1       16
siesta:      2.30256  25.44831   0.00000  1       17
siesta:     -4.68258  21.41544   0.00000  1       18
siesta:     -2.35420  22.75985   0.00000  1       19
siesta:      4.63094  26.79272   0.00000  1       20
siesta:     -4.68258  29.48119   0.00000  1       21
siesta:      2.30256  33.51406   0.00000  1       22
siesta:     -2.35420  33.51406   0.00000  1       23
siesta:     -0.02582  34.85847   0.00000  1       24
siesta:     -0.02582  37.54693   0.00000  1       25
siesta:     -0.02582   2.59549   0.00000  2       26
siesta:     -0.02582   5.28395   0.00000  2       27
siesta:     -2.35420  41.57980   0.00000  2       28
siesta:      2.30256  41.57980   0.00000  2       29
siesta:      6.95932  30.82560   0.00000  2       30
siesta:      6.95932  33.51406   0.00000  2       31
siesta:      9.28770  26.79272   0.00000  2       32
siesta:      9.28770  29.48119   0.00000  2       33
siesta:      2.30256   6.62836   0.00000  2       34
siesta:      6.95932  14.69411   0.00000  2       35
siesta:      6.95932  17.38257   0.00000  2       36
siesta:      9.28770  18.72698   0.00000  2       37
siesta:      9.28770  21.41544   0.00000  2       38
siesta:     11.61608  22.75985   0.00000  2       39
siesta:     11.61608  25.44831   0.00000  2       40
siesta:     -2.35420   6.62836   0.00000  2       41
siesta:      2.30256  17.38257   0.00000  2       42
siesta:      4.63094  18.72698   0.00000  2       43
siesta:      4.63094  21.41544   0.00000  2       44
siesta:      6.95932  22.75985   0.00000  2       45
siesta:      6.95932  25.44831   0.00000  2       46
siesta:     -2.35420  17.38257   0.00000  2       47
siesta:     -0.02582  18.72698   0.00000  2       48
siesta:     -0.02582  21.41544   0.00000  2       49
siesta:      2.30256  22.75985   0.00000  2       50
siesta:     -7.01096  14.69411   0.00000  2       51
siesta:     -7.01096  17.38257   0.00000  2       52
siesta:     -4.68258  18.72698   0.00000  2       53
siesta:     -2.35420  25.44831   0.00000  2       54
siesta:     -9.33934  18.72698   0.00000  2       55
siesta:     -9.33934  21.41544   0.00000  2       56
siesta:     -7.01096  22.75985   0.00000  2       57
siesta:     -7.01096  25.44831   0.00000  2       58
siesta:    -11.66772  22.75985   0.00000  2       59
siesta:    -11.66772  25.44831   0.00000  2       60
siesta:     -9.33934  26.79272   0.00000  2       61
siesta:     -9.33934  29.48119   0.00000  2       62
siesta:      4.63094  29.48119   0.00000  2       63
siesta:     -0.02582  26.79272   0.00000  2       64
siesta:     -0.02582  29.48119   0.00000  2       65
siesta:     -4.68258  26.79272   0.00000  2       66
siesta:      2.30256  30.82560   0.00000  2       67
siesta:     -2.35420  30.82560   0.00000  2       68
siesta:     -7.01096  30.82560   0.00000  2       69
siesta:     -7.01096  33.51406   0.00000  2       70
siesta:     -0.02582  42.92421   0.00000  2       71
siesta:     -0.02582  45.61267   0.00000  2       72

siesta: System type = slab      

initatomlists: Number of atoms, orbitals, and projectors:     72   936  1152

siesta: ******************** Simulation parameters ****************************
siesta:
siesta: The following are some of the parameters of the simulation.
siesta: A complete list of the parameters used, including default values,
siesta: can be found in file out.fdf
siesta:
redata: Non-Collinear-spin run           =     F
redata: SpinPolarized (Up/Down) run      =     F
redata: Number of spin components        =     1
redata: Long output                      =     F
redata: Number of Atomic Species         =        2
redata: Charge density info will appear in .RHO file
redata: Write Mulliken Pop.              =     NO
redata: Mesh Cutoff                      =   200.0000  Ry
redata: Net charge of the system         =     0.0000 |e|
redata: Max. number of SCF Iter          =      500
redata: SCF convergence failure will abort job
redata: Performing Pulay mixing using    =    10 iterations
redata: Mix DM in first SCF step ?       =     F
redata: Write Pulay info on disk?        =     F
redata: Discard 1st Pulay DM after  kick =     F
redata: New DM Mixing Weight             =     0.0500
redata: New DM Occupancy tolerance       = 0.000000000001
redata: No kicks to SCF
redata: DM Mixing Weight for Kicks       =     0.5000
redata: DM Tolerance for SCF             =     0.000100
redata: Require Energy convergence for SCF =     F
redata: DM Energy tolerance for SCF      =     0.000100 eV
redata: Require Harris convergence for SCF =     F
redata: DM Harris energy tolerance for SCF =     0.000100 eV
redata: Using Saved Data (generic)   =     F
redata: Use continuation files for DM    =     T
redata: Neglect nonoverlap interactions  =     F
redata: Method of Calculation            =     Diagonalization
redata: Divide and Conquer               =     T
redata: Electronic Temperature           =     0.0019  Ry
redata: Fix the spin of the system       =     F
redata: Dynamics option                  =     Verlet MD run
redata: Initial MD time step             =        1
redata:   Final MD time step             =        1
redata: Length of MD time step           =     1.0000  fs
redata: Initial Temperature of MD run    =     0.0000  K
redata: Perform a MD quench              =     F
redata: ***********************************************************************
Total number of electrons:   313.000000
Total ionic charge:   313.000000

* ProcessorY, Blocksize:    2  24

k-point displ. along   1 input, could be:     0.50    0.00
k-point displ. along   2 input, could be:     0.50    0.00
 Kpoints in:          231 . Kpoints trimmed:          231

siesta: k-grid: Number of k-points =   231
siesta: k-grid: Cutoff (effective) =     5.000 Ang
siesta: k-grid: Supercell and displacements
siesta: k-grid:   21   0   0      0.500
siesta: k-grid:    0  21   0      0.500
siesta: k-grid:    0   0   1      0.000
Naive supercell factors:     2    2    2

superc: Internal auxiliary supercell:     2 x     2 x     2  =       8
superc: Number of atoms, orbitals, and projectors:    576   7488   9216

* Maximum dynamic memory allocated =     4 MB

siesta:                 ==============================
                            Begin MD step =      1
                        ==============================

superc: Internal auxiliary supercell:     2 x     2 x     2  =       8
superc: Number of atoms, orbitals, and projectors:    576   7488   9216

outcell: Unit cell vectors (Ang):
       12.804619    7.392750    0.000000
        0.000000   14.785500    0.000000
        0.000000    0.000000   10.000000

outcell: Cell vector modules (Ang)   :   14.785500   14.785500   10.000000
outcell: Cell angles (23,13,12) (deg):     90.0000     90.0000     60.0000
outcell: Cell volume (Ang**3)        :   1893.2269
New_DM. Step:     1
Initializing Density Matrix...

InitMesh: MESH =   120 x   120 x    90 =     1296000
InitMesh: Mesh cutoff (required, used) =   200.000   223.865 Ry

* Maximum dynamic memory allocated =   176 MB

stepf: Fermi-Dirac step function

siesta: Program's energy decomposition (eV):
siesta: Ebs     =     -6461.880687
siesta: Eions   =     22421.682175
siesta: Ena     =      5012.491239
siesta: Ekin    =      8476.244847
siesta: Enl     =      -144.552881
siesta: DEna    =        -0.000015
siesta: DUscf   =         0.000000
siesta: DUext   =         0.000000
siesta: Exc     =     -4821.264670
siesta: eta*DQ  =         0.000000
siesta: Emadel  =         0.000000
siesta: Emeta   =         0.000000
siesta: Emolmec =         0.000000
siesta: Ekinion =         0.000000
siesta: Eharris =    -13425.398654
siesta: Etot    =    -13898.763655
siesta: FreeEng =    -13898.763655

siesta: iscf   Eharris(eV)      E_KS(eV)   FreeEng(eV)   dDmax  Ef(eV)
siesta:    1   -13425.3987   -13898.7637   -13898.7637  4.7862 -6.4309
timer: Routine,Calls,Time,% = IterSCF        1    3381.088  99.70
elaps: Routine,Calls,Wall,% = IterSCF        1     423.458  99.70
siesta:    2   -14144.6939   -13129.6169   -13129.6520  7.0636 -1.5200
siesta:    3   -13314.3695   -13603.4258   -13603.4723  1.4907 -3.7005
siesta:    4   -13309.2108   -13510.3389   -13510.3963  0.8219 -3.0744
siesta:    5   -13298.3514   -13474.8746   -13474.9140  0.8159 -3.2348
siesta:    6   -13294.9863   -13419.2408   -13419.3167  0.6073 -3.4245
siesta:    7   -13295.6563   -13396.8651   -13396.9114  0.4950 -3.4836
siesta:    8   -13294.2995   -13357.3065   -13357.3441  0.3285 -3.4752
siesta:    9   -13293.2429   -13309.7905   -13309.8240  0.1839 -3.2688
siesta:   10   -13292.5030   -13296.3896   -13296.4229  0.1293 -3.2687
siesta:   11   -13292.2745   -13288.4566   -13288.5003  0.1299 -3.2356
siesta:   12   -13291.9083   -13288.3687   -13288.4302  0.0909 -3.2898
siesta:   13   -13291.6560   -13288.2404   -13288.2998  0.0733 -3.3284
siesta:   14   -13291.6012   -13290.9407   -13290.9954  0.0590 -3.3703
siesta:   15   -13291.6035   -13291.2877   -13291.3366  0.0516 -3.3775
siesta:   16   -13291.5695   -13290.8431   -13290.8890  0.0412 -3.3634
siesta:   17   -13291.5535   -13291.6164   -13291.6635  0.0231 -3.3516
siesta:   18   -13291.5499   -13292.2840   -13292.3371  0.0148 -3.3391
siesta:   19   -13291.5422   -13292.1591   -13292.2145  0.0097 -3.3431
siesta:   20   -13291.5375   -13291.5729   -13291.6263  0.0069 -3.3374
siesta:   21   -13291.5362   -13291.6881   -13291.7418  0.0043 -3.3353
siesta:   22   -13291.5360   -13291.7859   -13291.8393  0.0027 -3.3348
siesta:   23   -13291.5363   -13291.7922   -13291.8457  0.0027 -3.3358
siesta:   24   -13291.5361   -13291.6644   -13291.7174  0.0018 -3.3354
siesta:   25   -13291.5359   -13291.5140   -13291.5671  0.0012 -3.3356
siesta:   26   -13291.5358   -13291.4864   -13291.5397  0.0008 -3.3359
siesta:   27   -13291.5358   -13291.5417   -13291.5950  0.0005 -3.3365
siesta:   28   -13291.5358   -13291.5599   -13291.6132  0.0004 -3.3366
siesta:   29   -13291.5357   -13291.5601   -13291.6134  0.0003 -3.3370
siesta:   30   -13291.5357   -13291.5396   -13291.5929  0.0001 -3.3369
siesta:   31   -13291.5357   -13291.5354   -13291.5888  0.0001 -3.3369

siesta: E_KS(eV) =           -13291.5368

siesta: E_KS - E_eggbox =    -13291.5368

siesta: Atomic forces (eV/Ang):
----------------------------------------
   Tot   -0.043213    0.125909    0.000000
----------------------------------------
   Max  767.839530
   Res  197.489810    sqrt( Sum f_i^2 / 3N )
----------------------------------------
   Max  767.839530    constrained

Stress-tensor-Voigt (kbar):     -631.78    -3560.05       -0.16        0.56        0.00        0.00
(Free)E + p*V (eV/cell)   -11640.4376
Target enthalpy (eV/cell)   -13291.5902

siesta: Stress tensor (static) (eV/Ang**3):
        -0.394325    0.000351    0.000000
         0.000351   -2.221983    0.000000
         0.000000    0.000000   -0.000102

siesta: Pressure (static):       1397.33213222  kBar

siesta: Stress tensor (total) (eV/Ang**3):
        -0.394325    0.000351    0.000000
         0.000351   -2.221983    0.000000
         0.000000    0.000000   -0.000102

siesta: Pressure (total):       1397.33213222  kBar

siesta: Temp_ion =       0.000 K

* Maximum dynamic memory allocated =   192 MB
Computing bands...

siesta: Program's energy decomposition (eV):
siesta: Ebs     =     -5269.501693
siesta: Eions   =     22421.682175
siesta: Ena     =      5012.491239
siesta: Ekin    =     11838.447395
siesta: Enl     =     -1980.854351
siesta: DEna    =      -843.234908
siesta: DUscf   =       111.979453
siesta: DUext   =         0.000000
siesta: Exc     =     -5008.683488
siesta: eta*DQ  =         0.000000
siesta: Emadel  =         0.000000
siesta: Emeta   =         0.000000
siesta: Emolmec =         0.000000
siesta: Ekinion =         0.000000
siesta: Eharris =    -13291.535709
siesta: Etot    =    -13291.536834
siesta: FreeEng =    -13291.590197

siesta: Final energy (eV):
siesta:  Band Struct. =   -5269.501693
siesta:       Kinetic =   11838.447395
siesta:       Hartree =   39600.164311
siesta:    Ext. field =       0.000000
siesta:   Exch.-corr. =   -5008.683488
siesta:  Ion-electron =  -90599.389663
siesta:       Ion-ion =   30877.924610
siesta:       Ekinion =       0.000000
siesta:         Total =  -13291.536834

siesta: Atomic forces (eV/Ang):
siesta:      1    5.046806  110.881438    0.000000
siesta:      2   -5.108641  110.560585    0.000000
siesta:      3   33.293406   -1.362028    0.000000
siesta:      4   28.307491 -753.699893    0.000000
siesta:      5  -33.050608   -1.260240    0.000000
siesta:      6  -28.327932 -753.810232    0.000000
siesta:      7   -5.072843 -110.888734    0.000000
siesta:      8   28.554471  753.450875    0.000000
siesta:      9   33.236850    1.754343    0.000000
siesta:     10    5.064854 -110.596260    0.000000
siesta:     11    0.122959  767.789603    0.000000
siesta:     12   -0.181072 -115.052178    0.000000
siesta:     13    8.858460  689.212282    0.000000
siesta:     14  -28.607864  753.762650    0.000000
siesta:     15  -33.439896    1.401512    0.000000
siesta:     16   -7.911930  689.033511    0.000000
siesta:     17    0.695254    0.148265    0.000000
siesta:     18   -0.113730   -0.794133    0.000000
siesta:     19   -0.748076   -0.453921    0.000000
siesta:     20    0.020024    0.532557    0.000000
siesta:     21    1.505943   -2.855147    0.000000
siesta:     22    7.639009 -689.040052    0.000000
siesta:     23   -7.922932 -689.618484    0.000000
siesta:     24    0.219496  114.520617    0.000000
siesta:     25   -0.010319 -767.839530    0.000000
siesta:     26    0.621310  549.313215    0.000000
siesta:     27    0.006884 -120.266948    0.000000
siesta:     28  -13.321019 -653.304491    0.000000
siesta:     29   12.668120 -652.862401    0.000000
siesta:     30    1.230736    0.565902    0.000000
siesta:     31   -3.210495    1.480750    0.000000
siesta:     32    1.133070    2.806804    0.000000
siesta:     33   -0.325178    0.284962    0.000000
siesta:     34   13.685107  653.547935    0.000000
siesta:     35   -3.129316   -1.600925    0.000000
siesta:     36    1.026855   -0.913801    0.000000
siesta:     37   -0.355581   -0.097623    0.000000
siesta:     38    1.732620   -2.709530    0.000000
siesta:     39   -0.011884    7.262437    0.000000
siesta:     40    0.018714   -7.169597    0.000000
siesta:     41  -13.960364  653.301230    0.000000
siesta:     42   22.553113   -5.580377    0.000000
siesta:     43   -1.648269    2.306255    0.000000
siesta:     44   -0.140902   -0.217939    0.000000
siesta:     45   -0.567932    1.269386    0.000000
siesta:     46   -0.698695   -1.085875    0.000000
siesta:     47  -22.007000   -4.608277    0.000000
siesta:     48    0.094783  567.851480    0.000000
siesta:     49   -0.402212    1.463113    0.000000
siesta:     50   -0.081216    0.421568    0.000000
siesta:     51    3.275397   -1.585222    0.000000
siesta:     52   -1.210467   -0.410621    0.000000
siesta:     53    2.085200    3.412637    0.000000
siesta:     54   -0.817999    0.372663    0.000000
siesta:     55    0.358756   -0.405883    0.000000
siesta:     56   -1.076622   -2.626505    0.000000
siesta:     57    0.758742    1.164785    0.000000
siesta:     58    0.263888   -1.102348    0.000000
siesta:     59   -0.046120    6.895880    0.000000
siesta:     60    0.082400   -6.803898    0.000000
siesta:     61   -1.599521    2.272532    0.000000
siesta:     62    0.742471    0.587286    0.000000
siesta:     63   -2.146014   -3.235458    0.000000
siesta:     64    0.731263   -0.925245    0.000000
siesta:     65    0.520020 -569.714450    0.000000
siesta:     66    0.964732    0.474911    0.000000
siesta:     67   21.967058    4.456411    0.000000
siesta:     68  -23.022242    5.912161    0.000000
siesta:     69   -1.182191    1.012486    0.000000
siesta:     70    3.115181    0.679307    0.000000
siesta:     71    0.223491  121.573795    0.000000
siesta:     72   -1.011068 -549.113974    0.000000
siesta: ----------------------------------------
siesta:    Tot   -0.043213    0.125909    0.000000

siesta: Stress tensor (static) (eV/Ang**3):
siesta:    -0.394325    0.000351    0.000000
siesta:     0.000351   -2.221983    0.000000
siesta:     0.000000    0.000000   -0.000102

siesta: Cell volume =       1893.226884 Ang**3

siesta: Pressure (static):
siesta:                Solid            Molecule  Units
siesta:           0.00949868          0.15910839  Ry/Bohr**3
siesta:           0.87213669         14.60879138  eV/Ang**3
siesta:        1397.33213222      23406.11720200  kBar
(Free)E+ p_basis*V_orbitals  =      -13264.426669
(Free)Eharris+ p_basis*V_orbitals  =      -13264.426939

siesta: Electric dipole (a.u.)  =    0.000000    0.000000    0.000000
siesta: Electric dipole (Debye) =    0.000000    0.000000    0.000000

* Maximum dynamic memory allocated : Node    0 =   192 MB
* Maximum dynamic memory allocated : Node    1 =    70 MB
* Maximum dynamic memory allocated : Node    2 =    73 MB
* Maximum dynamic memory allocated : Node    3 =   183 MB
* Maximum dynamic memory allocated : Node    4 =   187 MB
* Maximum dynamic memory allocated : Node    5 =    70 MB
* Maximum dynamic memory allocated : Node    6 =    73 MB
* Maximum dynamic memory allocated : Node    7 =   172 MB

* Maximum memory occured during matrixMtoO                    

timer: CPU execution times:
timer:  Routine       Calls   Time/call    Tot.time        %
timer:  siesta            1  103408.791  103408.791   100.00
timer:  Setup             1       2.717       2.717     0.00
timer:  bands             3     243.437     730.312     0.71
timer:  writewave         1       0.016       0.016     0.00
timer:  KSV_init          1       0.000       0.000     0.00
timer:  IterMD            1  102670.508  102670.508    99.29
timer:  hsparse           1       0.283       0.283     0.00
timer:  overlap           1       7.114       7.114     0.01
timer:  IterSCF          31    3307.400  102529.396    99.15
timer:  kinefsm           2       3.665       7.329     0.01
timer:  nlefsm            2      17.047      34.094     0.03
timer:  DHSCF            32      69.964    2238.862     2.17
timer:  DHSCF1            1       0.741       0.741     0.00
timer:  DHSCF2            1      29.518      29.518     0.03
timer:  REORD           258       0.005       1.317     0.00
timer:  POISON           33       0.874      28.858     0.03
timer:  DHSCF3           32      68.145    2180.644     2.11
timer:  rhoofd           32      14.754     472.117     0.46
timer:  cellXC           32       3.269     104.593     0.10
timer:  vmat             32      31.751    1016.026     0.98
timer:  MolMec            2       0.000       0.001     0.00
timer:  diagon           31    3236.611  100334.950    97.03
timer:  c-eigval       7282       6.018   43821.620    42.38
timer:  c-buildHS      7282       0.047     340.732     0.33
timer:  cdiag         14443       6.149   88816.279    85.89
timer:  cdiag1        14443       0.386    5569.229     5.39
timer:  cdiag2        14443       1.767   25521.706    24.68
timer:  cdiag3        14443       3.724   53785.249    52.01
timer:  cdiag4        14443       0.153    2207.506     2.13
timer:  c-eigvec       7161       6.367   45595.929    44.09
timer:  c-buildD       7161       1.622   11611.720    11.23
timer:  DHSCF4            1      27.343      27.343     0.03
timer:  dfscf             1      25.499      25.499     0.02
timer:  overfsm           1       0.374       0.374     0.00
timer:  optical           1       4.590       4.590     0.00
  

elaps: ELAPSED times:
elaps:  Routine       Calls   Time/call    Tot.time        %
elaps:  siesta            1   12950.553   12950.553   100.00
elaps:  Setup             1       0.341       0.341     0.00
elaps:  bands             3      30.504      91.513     0.71
elaps:  writewave         1       0.002       0.002     0.00
elaps:  KSV_init          1       0.000       0.000     0.00
elaps:  IterMD            1   12858.092   12858.092    99.29
elaps:  hsparse           1       0.036       0.036     0.00
elaps:  overlap           1       0.891       0.891     0.01
elaps:  IterSCF          31     414.207   12840.422    99.15
elaps:  kinefsm           2       0.457       0.915     0.01
elaps:  nlefsm            2       2.096       4.191     0.03
elaps:  DHSCF            32       8.871     283.867     2.19
elaps:  DHSCF1            1       0.095       0.095     0.00
elaps:  DHSCF2            1       3.695       3.695     0.03
elaps:  REORD           258       0.001       0.176     0.00
elaps:  POISON           33       0.110       3.625     0.03
elaps:  DHSCF3           32       8.535     273.126     2.11
elaps:  rhoofd           32       4.016     128.515     0.99
elaps:  cellXC           32       0.409      13.088     0.10
elaps:  vmat             32       3.977     127.258     0.98
elaps:  MolMec            2       0.000       0.000     0.00
elaps:  diagon           31     405.335   12565.377    97.03
elaps:  c-eigval       7282       0.754    5488.023    42.38
elaps:  c-buildHS      7282       0.006      44.174     0.34
elaps:  cdiag         14443       0.773   11166.166    86.22
elaps:  cdiag1        14443       0.048     696.708     5.38
elaps:  cdiag2        14443       0.221    3197.022    24.69
elaps:  cdiag3        14443       0.467    6744.686    52.08
elaps:  cdiag4        14443       0.019     271.057     2.09
elaps:  c-eigvec       7161       0.804    5758.034    44.46
elaps:  c-buildD       7161       0.196    1405.855    10.86
elaps:  DHSCF4            1       6.877       6.877     0.05
elaps:  dfscf             1       6.489       6.489     0.05
elaps:  overfsm           1       0.045       0.045     0.00
elaps:  optical           1       0.001       0.001     0.00
  
>> End of run:  22-APR-2016  12:18:36
