Siesta Version:                                        siesta-3.2-pl-3
Architecture  : x86_64-unknown-linux-gnu--unknown
Compiler flags: mpiifort -g -O2 -fPIC -xSSE4.1 -fp-model source -shared-intel 
PARALLEL version

* Running on    8 nodes in parallel
>> Start of run:  20-APR-2016  11:26:45

                           ***********************       
                           *  WELCOME TO SIESTA  *       
                           ***********************       

reinit: Reading from standard input
************************** Dump of input data file ****************************
#(1) General system descriptors
SystemName            GRP_doping    # Descriptive name of the system
SystemLabel           GRP_doping    # Short name for naming files
%include STRUCT.fdf
%include KPT.fdf
%include BASIS.fdf
#%include TS.fdf # for transiesta calculation
#(4) DFT, Grid, SCF
XC.functional         GGA           # LDA or GGA (default = LDA)
XC.authors            PBE           # CA (Ceperley-Aldr) = PZ
                                    #    (Perdew-Zunger) - LDA - Default
                                    # PW92 (Perdew-Wang-92) - LDA
                                    # PBE (Perdew-Burke-Ernzerhof) - GGA
MeshCutoff            200.000000    Ry      # Default: 50.0 Ry ~ 0.444 Bohr
                                    #         100.0 Ry ~ 0.314 Bohr
MaxSCFIterations      500           # Default: 50
DM.MixingWeight       0.05          # Default: 0.25
DM.NumberPulay        10            # Default: 0
DM.PulayOnFile        F             # SystemLabel.P1, SystemLabel.P2
DM.Tolerance          1.d-4         # Default: 1.d-4
DM.UseSaveDM          .true.        # because of the bug
SCFMustConverge       .true.
NeglNonOverlapInt     F             # Default: F
#(5) Eigenvalue problem: order-N or diagonalization
SolutionMethod        Diagon        # or Transiesta
ElectronicTemperature 300.0 K       # Default: 300.0 K
#(6) Molecular dynamics and relaxations
#MD.TypeOfRun          CG            # Type of dynamics:
#MD.VariableCell       F
#MD.NumCGsteps         0           # 0 for single-point / 100 for gopt
#MD.MaxCGDispl         0.2 Bohr      # Default: 0.2 Bohr
#MD.MaxForceTol        0.02 eV/Ang   # Default: 0.04 eV/Ang
#MD.MaxStressTol       1.0 GPa       # Default: 1.0 GPa
# Geometry Constraints
#%block GeometryConstraints
#	position from 1 to 44
#%endblock GeometryConstraints
BandLinesScale   pi/a
%block BandLines
 1   0.00000000  0.00000000  0.00000000
50   0.00000000  0.07809418  0.00000000
50   0.04509075  0.07809242  0.00000000
20   0.00000000  0.00000000  0.00000000
%endblock BandLines
************************** End of input data file *****************************

reinit: -----------------------------------------------------------------------
reinit: System Name: GRP_doping
reinit: -----------------------------------------------------------------------
reinit: System Label: GRP_doping                                                  
reinit: -----------------------------------------------------------------------

initatom: Reading input for the pseudopotentials and atomic orbitals ----------
 Species number:            1  Label: B Atomic number:           5
 Species number:            2  Label: C Atomic number:           6
Ground state valence configuration:   2s02  2p01
Reading pseudopotential information in formatted form from B.psf

Valence configuration for pseudopotential generation:
2s( 2.00) rc: 1.74
2p( 1.00) rc: 1.74
3d( 0.00) rc: 1.74
4f( 0.00) rc: 1.74
Ground state valence configuration:   2s02  2p02
Reading pseudopotential information in formatted form from C.psf

Valence configuration for pseudopotential generation:
2s( 2.00) rc: 1.54
2p( 2.00) rc: 1.54
3d( 0.00) rc: 1.54
4f( 0.00) rc: 1.54
For B, standard SIESTA heuristics set lmxkb to 3
 (one more than the basis l, including polarization orbitals).
Use PS.lmax or PS.KBprojectors blocks to override.
For C, standard SIESTA heuristics set lmxkb to 3
 (one more than the basis l, including polarization orbitals).
Use PS.lmax or PS.KBprojectors blocks to override.

<basis_specs>
===============================================================================
B                    Z=   5    Mass=  10.810        Charge= 0.17977+309
Lmxo=1 Lmxkb= 3    BasisType=split      Semic=F
L=0  Nsemic=0  Cnfigmx=2
          n=1  nzeta=2  polorb=0
            splnorm:   0.15000    
               vcte:    0.0000    
               rinn:    0.0000    
                rcs:    0.0000      0.0000    
            lambdas:    1.0000      1.0000    
L=1  Nsemic=0  Cnfigmx=2
          n=1  nzeta=2  polorb=1
            splnorm:   0.15000    
               vcte:    0.0000    
               rinn:    0.0000    
                rcs:    0.0000      0.0000    
            lambdas:    1.0000      1.0000    
-------------------------------------------------------------------------------
L=0  Nkbl=1  erefs: 0.17977+309
L=1  Nkbl=1  erefs: 0.17977+309
L=2  Nkbl=1  erefs: 0.17977+309
L=3  Nkbl=1  erefs: 0.17977+309
===============================================================================
</basis_specs>

atom: Called for B                     (Z =   5)

read_vps: Pseudopotential generation method:
read_vps: ATM3      Troullier-Martins                       
Total valence charge:    3.00000

read_vps: Pseudopotential includes a core correction:
read_vps: Pseudo-core for xc-correction

xc_check: Exchange-correlation functional:
xc_check: GGA Perdew, Burke & Ernzerhof 1996
V l=0 = -2*Zval/r beyond r=  1.7165
V l=1 = -2*Zval/r beyond r=  1.7165
V l=2 = -2*Zval/r beyond r=  1.7165
V l=3 = -2*Zval/r beyond r=  1.6951
All V_l potentials equal beyond r=  1.7165
This should be close to max(r_c) in ps generation
All pots = -2*Zval/r beyond r=  1.7165

VLOCAL1: 99.0% of the norm of Vloc inside     14.733 Ry
VLOCAL1: 99.9% of the norm of Vloc inside     33.577 Ry
atom: Maximum radius for 4*pi*r*r*local-pseudopot. charge    2.04484
atom: Maximum radius for r*vlocal+2*Zval:    1.75994
GHOST: No ghost state for L =  0
GHOST: No ghost state for L =  1
GHOST: No ghost state for L =  2
GHOST: No ghost state for L =  3

KBgen: Kleinman-Bylander projectors: 
   l= 0   rc=  1.897051   el= -0.693730   Ekb=  4.595746   kbcos=  0.286105
   l= 1   rc=  1.920920   el= -0.265236   Ekb= -2.350715   kbcos= -0.315747
   l= 2   rc=  2.044840   el=  0.002055   Ekb= -0.690767   kbcos= -0.013822
   l= 3   rc=  2.149707   el=  0.003188   Ekb= -0.315358   kbcos= -0.002055

KBgen: Total number of  Kleinman-Bylander projectors:   16
atom: -------------------------------------------------------------------------

atom: SANKEY-TYPE ORBITALS:
atom: Selected multiple-zeta basis: split     

SPLIT: Orbitals with angular momentum L= 0

SPLIT: Basis orbitals for state 2s

SPLIT: PAO cut-off radius determined from an
SPLIT: energy shift=  0.007350 Ry

   izeta = 1
                 lambda =    1.000000
                     rc =    5.422032
                 energy =   -0.686029
                kinetic =    0.576707
    potential(screened) =   -1.262736
       potential(ionic) =   -3.271094

   izeta = 2
                 rmatch =    4.222573
              splitnorm =    0.150000
                 energy =   -0.602132
                kinetic =    0.858975
    potential(screened) =   -1.461107
       potential(ionic) =   -3.582536

SPLIT: Orbitals with angular momentum L= 1

SPLIT: Basis orbitals for state 2p

SPLIT: PAO cut-off radius determined from an
SPLIT: energy shift=  0.007350 Ry

   izeta = 1
                 lambda =    1.000000
                     rc =    6.790259
                 energy =   -0.258578
                kinetic =    1.481412
    potential(screened) =   -1.739989
       potential(ionic) =   -3.657461

   izeta = 2
                 rmatch =    4.608740
              splitnorm =    0.150000
                 energy =   -0.173757
                kinetic =    2.186690
    potential(screened) =   -2.360447
       potential(ionic) =   -4.464260

POLgen: Perturbative polarization orbital with L=  2

POLgen: Polarization orbital for state 2p

   izeta = 1
                     rc =    6.790259
                 energy =    0.684082
                kinetic =    1.471481
    potential(screened) =   -0.787399
       potential(ionic) =   -2.406985
atom: Total number of Sankey-type orbitals: 13

atm_pop: Valence configuration (for local Pseudopot. screening):
 2s( 2.00)                                                            
 2p( 1.00)                                                            
Vna: chval, zval:    3.00000   3.00000

Vna:  Cut-off radius for the neutral-atom potential:   6.790259
comcore: Pseudo-core radius Rcore=  2.122997

atom: _________________________________________________________________________

<basis_specs>
===============================================================================
C                    Z=   6    Mass=  12.010        Charge= 0.17977+309
Lmxo=1 Lmxkb= 3    BasisType=split      Semic=F
L=0  Nsemic=0  Cnfigmx=2
          n=1  nzeta=2  polorb=0
            splnorm:   0.15000    
               vcte:    0.0000    
               rinn:    0.0000    
                rcs:    0.0000      0.0000    
            lambdas:    1.0000      1.0000    
L=1  Nsemic=0  Cnfigmx=2
          n=1  nzeta=2  polorb=1
            splnorm:   0.15000    
               vcte:    0.0000    
               rinn:    0.0000    
                rcs:    0.0000      0.0000    
            lambdas:    1.0000      1.0000    
-------------------------------------------------------------------------------
L=0  Nkbl=1  erefs: 0.17977+309
L=1  Nkbl=1  erefs: 0.17977+309
L=2  Nkbl=1  erefs: 0.17977+309
L=3  Nkbl=1  erefs: 0.17977+309
===============================================================================
</basis_specs>

atom: Called for C                     (Z =   6)

read_vps: Pseudopotential generation method:
read_vps: ATM3      Troullier-Martins                       
Total valence charge:    4.00000

read_vps: Pseudopotential includes a core correction:
read_vps: Pseudo-core for xc-correction

xc_check: Exchange-correlation functional:
xc_check: GGA Perdew, Burke & Ernzerhof 1996
V l=0 = -2*Zval/r beyond r=  1.5227
V l=1 = -2*Zval/r beyond r=  1.5227
V l=2 = -2*Zval/r beyond r=  1.5227
V l=3 = -2*Zval/r beyond r=  1.5038
All V_l potentials equal beyond r=  1.5227
This should be close to max(r_c) in ps generation
All pots = -2*Zval/r beyond r=  1.5227

VLOCAL1: 99.0% of the norm of Vloc inside     18.722 Ry
VLOCAL1: 99.9% of the norm of Vloc inside     42.668 Ry
atom: Maximum radius for 4*pi*r*r*local-pseudopot. charge    1.83678
atom: Maximum radius for r*vlocal+2*Zval:    1.58088
GHOST: No ghost state for L =  0
GHOST: No ghost state for L =  1
GHOST: No ghost state for L =  2
GHOST: No ghost state for L =  3

KBgen: Kleinman-Bylander projectors: 
   l= 0   rc=  1.704034   el= -1.009801   Ekb=  5.335044   kbcos=  0.316824
   l= 1   rc=  1.704034   el= -0.388707   Ekb= -3.785862   kbcos= -0.366464
   l= 2   rc=  1.791422   el=  0.001971   Ekb= -0.970471   kbcos= -0.009212
   l= 3   rc=  1.859892   el=  0.003065   Ekb= -0.399525   kbcos= -0.001223

KBgen: Total number of  Kleinman-Bylander projectors:   16
atom: -------------------------------------------------------------------------

atom: SANKEY-TYPE ORBITALS:
atom: Selected multiple-zeta basis: split     

SPLIT: Orbitals with angular momentum L= 0

SPLIT: Basis orbitals for state 2s

SPLIT: PAO cut-off radius determined from an
SPLIT: energy shift=  0.007350 Ry

   izeta = 1
                 lambda =    1.000000
                     rc =    4.632753
                 energy =   -1.002270
                kinetic =    0.855760
    potential(screened) =   -1.858031
       potential(ionic) =   -5.417575

   izeta = 2
                 rmatch =    3.431921
              splitnorm =    0.150000
                 energy =   -0.867111
                kinetic =    1.300804
    potential(screened) =   -2.167915
       potential(ionic) =   -5.962684

SPLIT: Orbitals with angular momentum L= 1

SPLIT: Basis orbitals for state 2p

SPLIT: PAO cut-off radius determined from an
SPLIT: energy shift=  0.007350 Ry

   izeta = 1
                 lambda =    1.000000
                     rc =    5.658549
                 energy =   -0.381140
                kinetic =    2.399701
    potential(screened) =   -2.780841
       potential(ionic) =   -6.206085

   izeta = 2
                 rmatch =    3.653288
              splitnorm =    0.150000
                 energy =   -0.249149
                kinetic =    3.542762
    potential(screened) =   -3.791911
       potential(ionic) =   -7.581078

POLgen: Perturbative polarization orbital with L=  2

POLgen: Polarization orbital for state 2p

   izeta = 1
                     rc =    5.658549
                 energy =    1.109913
                kinetic =    2.304789
    potential(screened) =   -1.194876
       potential(ionic) =   -4.013592
atom: Total number of Sankey-type orbitals: 13

atm_pop: Valence configuration (for local Pseudopot. screening):
 2s( 2.00)                                                            
 2p( 2.00)                                                            
Vna: chval, zval:    4.00000   4.00000

Vna:  Cut-off radius for the neutral-atom potential:   5.658549
comcore: Pseudo-core radius Rcore=  1.791422

atom: _________________________________________________________________________

prinput: Basis input ----------------------------------------------------------

PAO.BasisType split     

%block ChemicalSpeciesLabel
    1    5 B                       # Species index, atomic number, species label
    2    6 C                       # Species index, atomic number, species label
%endblock ChemicalSpeciesLabel

%block PAO.Basis                 # Define Basis set
B                     2                    # Species label, number of l-shells
 n=2   0   2                         # n, l, Nzeta 
   5.422      4.223   
   1.000      1.000   
 n=2   1   2 P   1                   # n, l, Nzeta, Polarization, NzetaPol
   6.790      4.609   
   1.000      1.000   
C                     2                    # Species label, number of l-shells
 n=2   0   2                         # n, l, Nzeta 
   4.633      3.432   
   1.000      1.000   
 n=2   1   2 P   1                   # n, l, Nzeta, Polarization, NzetaPol
   5.659      3.653   
   1.000      1.000   
%endblock PAO.Basis

prinput: ----------------------------------------------------------------------

coor:   Atomic-coordinates input format  =     Fractional

siesta: Atomic coordinates (Bohr) and species
siesta:     -2.35420  38.89134   0.00000  1        1
siesta:     -2.35420  41.57980   0.00000  1        2
siesta:      6.95932  30.82560   0.00000  1        3
siesta:      6.95932  33.51406   0.00000  1        4
siesta:     -4.68258  34.85847   0.00000  1        5
siesta:     -4.68258  37.54693   0.00000  1        6
siesta:      2.30256   9.31683   0.00000  1        7
siesta:     -4.68258  10.66124   0.00000  1        8
siesta:     -4.68258  13.34970   0.00000  1        9
siesta:     -2.35420  14.69411   0.00000  1       10
siesta:     -2.35420  17.38257   0.00000  1       11
siesta:     -0.02582  18.72698   0.00000  1       12
siesta:     -0.02582  21.41544   0.00000  1       13
siesta:      2.30256  22.75985   0.00000  1       14
siesta:      2.30256  25.44831   0.00000  1       15
siesta:    -11.66772  22.75985   0.00000  1       16
siesta:    -11.66772  25.44831   0.00000  1       17
siesta:     -9.33934  26.79272   0.00000  1       18
siesta:     -9.33934  29.48119   0.00000  1       19
siesta:      4.63094  26.79272   0.00000  1       20
siesta:      4.63094  29.48119   0.00000  1       21
siesta:     -2.35420  30.82560   0.00000  1       22
siesta:     -7.01096  30.82560   0.00000  1       23
siesta:     -7.01096  33.51406   0.00000  1       24
siesta:     -0.02582  42.92421   0.00000  1       25
siesta:     -0.02582  45.61267   0.00000  1       26
siesta:     -0.02582   2.59549   0.00000  2       27
siesta:     -0.02582   5.28395   0.00000  2       28
siesta:      2.30256  38.89134   0.00000  2       29
siesta:      2.30256  41.57980   0.00000  2       30
siesta:      4.63094  34.85847   0.00000  2       31
siesta:      4.63094  37.54693   0.00000  2       32
siesta:      9.28770  26.79272   0.00000  2       33
siesta:      9.28770  29.48119   0.00000  2       34
siesta:      2.30256   6.62836   0.00000  2       35
siesta:      4.63094  10.66124   0.00000  2       36
siesta:      4.63094  13.34970   0.00000  2       37
siesta:      6.95932  14.69411   0.00000  2       38
siesta:      6.95932  17.38257   0.00000  2       39
siesta:      9.28770  18.72698   0.00000  2       40
siesta:      9.28770  21.41544   0.00000  2       41
siesta:     11.61608  22.75985   0.00000  2       42
siesta:     11.61608  25.44831   0.00000  2       43
siesta:     -2.35420   6.62836   0.00000  2       44
siesta:     -2.35420   9.31683   0.00000  2       45
siesta:     -0.02582  10.66124   0.00000  2       46
siesta:     -0.02582  13.34970   0.00000  2       47
siesta:      2.30256  14.69411   0.00000  2       48
siesta:      2.30256  17.38257   0.00000  2       49
siesta:      4.63094  18.72698   0.00000  2       50
siesta:      4.63094  21.41544   0.00000  2       51
siesta:      6.95932  22.75985   0.00000  2       52
siesta:      6.95932  25.44831   0.00000  2       53
siesta:     -7.01096  14.69411   0.00000  2       54
siesta:     -7.01096  17.38257   0.00000  2       55
siesta:     -4.68258  18.72698   0.00000  2       56
siesta:     -4.68258  21.41544   0.00000  2       57
siesta:     -2.35420  22.75985   0.00000  2       58
siesta:     -2.35420  25.44831   0.00000  2       59
siesta:     -9.33934  18.72698   0.00000  2       60
siesta:     -9.33934  21.41544   0.00000  2       61
siesta:     -7.01096  22.75985   0.00000  2       62
siesta:     -7.01096  25.44831   0.00000  2       63
siesta:     -0.02582  26.79272   0.00000  2       64
siesta:     -0.02582  29.48119   0.00000  2       65
siesta:     -4.68258  26.79272   0.00000  2       66
siesta:     -4.68258  29.48119   0.00000  2       67
siesta:      2.30256  30.82560   0.00000  2       68
siesta:      2.30256  33.51406   0.00000  2       69
siesta:     -2.35420  33.51406   0.00000  2       70
siesta:     -0.02582  34.85847   0.00000  2       71
siesta:     -0.02582  37.54693   0.00000  2       72

siesta: System type = slab      

initatomlists: Number of atoms, orbitals, and projectors:     72   936  1152

siesta: ******************** Simulation parameters ****************************
siesta:
siesta: The following are some of the parameters of the simulation.
siesta: A complete list of the parameters used, including default values,
siesta: can be found in file out.fdf
siesta:
redata: Non-Collinear-spin run           =     F
redata: SpinPolarized (Up/Down) run      =     F
redata: Number of spin components        =     1
redata: Long output                      =     F
redata: Number of Atomic Species         =        2
redata: Charge density info will appear in .RHO file
redata: Write Mulliken Pop.              =     NO
redata: Mesh Cutoff                      =   200.0000  Ry
redata: Net charge of the system         =     0.0000 |e|
redata: Max. number of SCF Iter          =      500
redata: SCF convergence failure will abort job
redata: Performing Pulay mixing using    =    10 iterations
redata: Mix DM in first SCF step ?       =     F
redata: Write Pulay info on disk?        =     F
redata: Discard 1st Pulay DM after  kick =     F
redata: New DM Mixing Weight             =     0.0500
redata: New DM Occupancy tolerance       = 0.000000000001
redata: No kicks to SCF
redata: DM Mixing Weight for Kicks       =     0.5000
redata: DM Tolerance for SCF             =     0.000100
redata: Require Energy convergence for SCF =     F
redata: DM Energy tolerance for SCF      =     0.000100 eV
redata: Require Harris convergence for SCF =     F
redata: DM Harris energy tolerance for SCF =     0.000100 eV
redata: Using Saved Data (generic)   =     F
redata: Use continuation files for DM    =     T
redata: Neglect nonoverlap interactions  =     F
redata: Method of Calculation            =     Diagonalization
redata: Divide and Conquer               =     T
redata: Electronic Temperature           =     0.0019  Ry
redata: Fix the spin of the system       =     F
redata: Dynamics option                  =     Verlet MD run
redata: Initial MD time step             =        1
redata:   Final MD time step             =        1
redata: Length of MD time step           =     1.0000  fs
redata: Initial Temperature of MD run    =     0.0000  K
redata: Perform a MD quench              =     F
redata: ***********************************************************************
Total number of electrons:   262.000000
Total ionic charge:   262.000000

* ProcessorY, Blocksize:    2  24

k-point displ. along   1 input, could be:     0.50    0.00
k-point displ. along   2 input, could be:     0.50    0.00
 Kpoints in:          231 . Kpoints trimmed:          231

siesta: k-grid: Number of k-points =   231
siesta: k-grid: Cutoff (effective) =     5.000 Ang
siesta: k-grid: Supercell and displacements
siesta: k-grid:   21   0   0      0.500
siesta: k-grid:    0  21   0      0.500
siesta: k-grid:    0   0   1      0.000
Naive supercell factors:     2    2    2

superc: Internal auxiliary supercell:     2 x     2 x     2  =       8
superc: Number of atoms, orbitals, and projectors:    576   7488   9216

* Maximum dynamic memory allocated =     4 MB

siesta:                 ==============================
                            Begin MD step =      1
                        ==============================

superc: Internal auxiliary supercell:     2 x     2 x     2  =       8
superc: Number of atoms, orbitals, and projectors:    576   7488   9216

outcell: Unit cell vectors (Ang):
       12.804619    7.392750    0.000000
        0.000000   14.785500    0.000000
        0.000000    0.000000   10.000000

outcell: Cell vector modules (Ang)   :   14.785500   14.785500   10.000000
outcell: Cell angles (23,13,12) (deg):     90.0000     90.0000     60.0000
outcell: Cell volume (Ang**3)        :   1893.2269
New_DM. Step:     1
Initializing Density Matrix...

iodm: Reading Density Matrix from files

InitMesh: MESH =   120 x   120 x    90 =     1296000
InitMesh: Mesh cutoff (required, used) =   200.000   223.865 Ry

* Maximum dynamic memory allocated =   234 MB

stepf: Fermi-Dirac step function

siesta: Program's energy decomposition (eV):
siesta: Ebs     =     -4053.382340
siesta: Eions   =     15073.536580
siesta: Ena     =      4093.919494
siesta: Ekin    =      7184.694662
siesta: Enl     =      -196.566205
siesta: DEna    =      -744.217866
siesta: DUscf   =        94.446313
siesta: DUext   =         0.000000
siesta: Exc     =     -4353.319461
siesta: eta*DQ  =         0.000000
siesta: Emadel  =         0.000000
siesta: Emeta   =         0.000000
siesta: Emolmec =         0.000000
siesta: Ekinion =         0.000000
siesta: Eharris =     -8990.033348
siesta: Etot    =     -8994.579643
siesta: FreeEng =     -8994.579643

siesta: iscf   Eharris(eV)      E_KS(eV)   FreeEng(eV)   dDmax  Ef(eV)
siesta:    1    -8990.0333    -8994.5796    -8994.5796  1.0404 -5.3094
timer: Routine,Calls,Time,% = IterSCF        1    4459.777  99.70
elaps: Routine,Calls,Wall,% = IterSCF        1     558.233  99.70
siesta:    2   -10934.1223    -8741.6413    -8741.6490 19.6766 -8.8149
siesta:    3    -8965.0567    -8989.4586    -8989.5096  0.9792 -5.3099
siesta:    4    -8960.8900    -8986.9466    -8986.9876  0.9500 -5.4104
siesta:    5    -8959.7714    -8985.8805    -8985.9098  0.9140 -5.4174
siesta:    6    -8958.4832    -8974.5848    -8974.6263  0.7946 -5.3264
siesta:    7    -8958.6469    -8966.1961    -8966.2655  0.5689 -5.2327
siesta:    8    -8957.3080    -8961.9273    -8961.9925  0.3826 -5.2060
siesta:    9    -8956.8105    -8959.4312    -8959.4780  0.2899 -5.1719
siesta:   10    -8956.3763    -8958.3433    -8958.3951  0.2391 -5.1169
siesta:   11    -8956.2102    -8958.0899    -8958.1495  0.1836 -5.1311
siesta:   12    -8956.1545    -8956.9382    -8956.9962  0.3020 -5.1157
siesta:   13    -8956.0672    -8956.4290    -8956.4867  0.1201 -5.1567
siesta:   14    -8956.0215    -8955.8943    -8955.9508  0.0733 -5.1889
siesta:   15    -8955.9942    -8955.5183    -8955.5737  0.0429 -5.2069
siesta:   16    -8955.9870    -8955.3575    -8955.4128  0.0240 -5.2198
siesta:   17    -8955.9853    -8955.5989    -8955.6544  0.0185 -5.2232
siesta:   18    -8955.9835    -8955.6534    -8955.7091  0.0123 -5.2249
siesta:   19    -8955.9831    -8955.7672    -8955.8229  0.0081 -5.2238
siesta:   20    -8955.9821    -8955.8681    -8955.9236  0.0059 -5.2221
siesta:   21    -8955.9818    -8955.9472    -8956.0030  0.0045 -5.2213
siesta:   22    -8955.9817    -8955.9693    -8956.0251  0.0021 -5.2212
siesta:   23    -8955.9817    -8955.9797    -8956.0354  0.0018 -5.2209
siesta:   24    -8955.9816    -8955.9928    -8956.0484  0.0012 -5.2207
siesta:   25    -8955.9816    -8956.0014    -8956.0570  0.0008 -5.2206
siesta:   26    -8955.9816    -8956.0009    -8956.0566  0.0006 -5.2205
siesta:   27    -8955.9816    -8955.9952    -8956.0509  0.0003 -5.2204
siesta:   28    -8955.9816    -8955.9890    -8956.0447  0.0003 -5.2203
siesta:   29    -8955.9816    -8955.9872    -8956.0428  0.0002 -5.2203
siesta:   30    -8955.9816    -8955.9857    -8956.0414  0.0001 -5.2204
siesta:   31    -8955.9816    -8955.9841    -8956.0398  0.0001 -5.2204

siesta: E_KS(eV) =            -8955.9838

siesta: E_KS - E_eggbox =     -8955.9838

siesta: Atomic forces (eV/Ang):
----------------------------------------
   Tot   -0.245294   -0.183796    0.000000
----------------------------------------
   Max  561.457241
   Res  140.944206    sqrt( Sum f_i^2 / 3N )
----------------------------------------
   Max  561.457241    constrained

Stress-tensor-Voigt (kbar):     -737.58    -2542.54       -0.78      -13.41        0.00        0.00
(Free)E + p*V (eV/cell)    -7663.7511
Target enthalpy (eV/cell)    -8956.0395

siesta: Stress tensor (static) (eV/Ang**3):
        -0.460356   -0.008368    0.000000
        -0.008368   -1.586910    0.000000
         0.000000    0.000000   -0.000489

siesta: Pressure (static):       1093.63364918  kBar

siesta: Stress tensor (total) (eV/Ang**3):
        -0.460356   -0.008368    0.000000
        -0.008368   -1.586910    0.000000
         0.000000    0.000000   -0.000489

siesta: Pressure (total):       1093.63364918  kBar

siesta: Temp_ion =       0.000 K

* Maximum dynamic memory allocated =   250 MB
Computing bands...

siesta: Program's energy decomposition (eV):
siesta: Ebs     =     -4049.291890
siesta: Eions   =     15073.536580
siesta: Ena     =      4093.919494
siesta: Ekin    =      7801.040738
siesta: Enl     =      -752.505332
siesta: DEna    =      -759.504355
siesta: DUscf   =       103.478342
siesta: DUext   =         0.000000
siesta: Exc     =     -4368.876149
siesta: eta*DQ  =         0.000000
siesta: Emadel  =         0.000000
siesta: Emeta   =         0.000000
siesta: Emolmec =         0.000000
siesta: Ekinion =         0.000000
siesta: Eharris =     -8955.981594
siesta: Etot    =     -8955.983842
siesta: FreeEng =     -8956.039506

siesta: Final energy (eV):
siesta:  Band Struct. =   -4049.291890
siesta:       Kinetic =    7801.040738
siesta:       Hartree =   25285.775730
siesta:    Ext. field =       0.000000
siesta:   Exch.-corr. =   -4368.876149
siesta:  Ion-electron =  -58125.404864
siesta:       Ion-ion =   20451.480703
siesta:       Ekinion =       0.000000
siesta:         Total =   -8955.983842

siesta: Atomic forces (eV/Ang):
siesta:      1   -1.216849  108.488033    0.000000
siesta:      2   -4.208351 -291.297972    0.000000
siesta:      3    9.724465   -0.953705    0.000000
siesta:      4   -0.766327    5.518787    0.000000
siesta:      5  -17.282611   -0.656018    0.000000
siesta:      6  -22.902723 -283.569906    0.000000
siesta:      7    2.244740 -112.834462    0.000000
siesta:      8  -22.885225  284.650173    0.000000
siesta:      9  -19.902166    2.091962    0.000000
siesta:     10  -20.283361  296.375180    0.000000
siesta:     11  -19.197883    0.968999    0.000000
siesta:     12   -1.460127  299.503775    0.000000
siesta:     13   -4.189382    3.654642    0.000000
siesta:     14    5.747303   -3.818336    0.000000
siesta:     15   -6.389479    4.569187    0.000000
siesta:     16   -2.612912   -3.471978    0.000000
siesta:     17   -6.623915    3.115824    0.000000
siesta:     18   -0.222087   -1.498104    0.000000
siesta:     19   -5.494455    2.036304    0.000000
siesta:     20    5.509918   -3.747182    0.000000
siesta:     21   -6.215916    3.122430    0.000000
siesta:     22  -20.168819    2.754968    0.000000
siesta:     23    0.619412    0.969405    0.000000
siesta:     24   -3.160049    3.798811    0.000000
siesta:     25    5.447559  105.327549    0.000000
siesta:     26    3.519307 -290.020756    0.000000
siesta:     27    3.419916  549.474068    0.000000
siesta:     28   -2.434156 -131.821299    0.000000
siesta:     29   -0.483664  133.256757    0.000000
siesta:     30    4.132633 -544.571660    0.000000
siesta:     31   19.695820    7.372814    0.000000
siesta:     32   35.276006 -549.699497    0.000000
siesta:     33    3.802455    1.034086    0.000000
siesta:     34   -0.537732   -1.518540    0.000000
siesta:     35   13.189299  547.235612    0.000000
siesta:     36   27.906629  543.767401    0.000000
siesta:     37   26.911267   -4.499148    0.000000
siesta:     38   -1.729176   -1.710106    0.000000
siesta:     39    2.216940   -0.585696    0.000000
siesta:     40   -0.828607   -0.522040    0.000000
siesta:     41    1.918236   -1.841674    0.000000
siesta:     42    0.894474    5.876812    0.000000
siesta:     43   -0.588908   -6.057850    0.000000
siesta:     44   -7.087650  551.278790    0.000000
siesta:     45   -6.449372 -122.355419    0.000000
siesta:     46    9.226701  550.523970    0.000000
siesta:     47  -16.818550 -123.940303    0.000000
siesta:     48   27.925522  560.040519    0.000000
siesta:     49   20.137814   -4.971030    0.000000
siesta:     50   -0.195417    1.538797    0.000000
siesta:     51    1.914442   -2.022388    0.000000
siesta:     52    0.946632    0.936915    0.000000
siesta:     53    2.373786   -2.616491    0.000000
siesta:     54   -1.436427    0.647716    0.000000
siesta:     55   -1.912859   -2.021851    0.000000
siesta:     56   -0.716979    1.821150    0.000000
siesta:     57   -0.442259    0.531195    0.000000
siesta:     58   -2.335363    0.799914    0.000000
siesta:     59   -0.901565    0.560768    0.000000
siesta:     60   -0.475199    0.888844    0.000000
siesta:     61    0.476108   -3.843805    0.000000
siesta:     62    1.272419    0.830335    0.000000
siesta:     63    3.447320   -2.165520    0.000000
siesta:     64   -1.723977    0.728388    0.000000
siesta:     65   -3.200925 -561.457241    0.000000
siesta:     66    0.244479   -1.042531    0.000000
siesta:     67    2.612554   -2.989745    0.000000
siesta:     68   20.465795    6.992349    0.000000
siesta:     69   29.115643 -561.322604    0.000000
siesta:     70  -33.430862 -552.577497    0.000000
siesta:     71   -0.063590  132.805657    0.000000
siesta:     72  -23.605017 -548.050328    0.000000
siesta: ----------------------------------------
siesta:    Tot   -0.245294   -0.183796    0.000000

siesta: Stress tensor (static) (eV/Ang**3):
siesta:    -0.460356   -0.008368    0.000000
siesta:    -0.008368   -1.586910    0.000000
siesta:     0.000000    0.000000   -0.000489

siesta: Cell volume =       1893.226884 Ang**3

siesta: Pressure (static):
siesta:                Solid            Molecule  Units
siesta:           0.00743422          0.10469033  Ry/Bohr**3
siesta:           0.68258506          9.61231002  eV/Ang**3
siesta:        1093.63364918      15400.78497699  kBar
(Free)E+ p_basis*V_orbitals  =       -8917.087101
(Free)Eharris+ p_basis*V_orbitals  =       -8917.084591

siesta: Electric dipole (a.u.)  =    0.000000    0.000000    0.000000
siesta: Electric dipole (Debye) =    0.000000    0.000000    0.000000

* Maximum dynamic memory allocated : Node    0 =   250 MB
* Maximum dynamic memory allocated : Node    1 =    87 MB
* Maximum dynamic memory allocated : Node    2 =    91 MB
* Maximum dynamic memory allocated : Node    3 =   238 MB
* Maximum dynamic memory allocated : Node    4 =   235 MB
* Maximum dynamic memory allocated : Node    5 =    86 MB
* Maximum dynamic memory allocated : Node    6 =    88 MB
* Maximum dynamic memory allocated : Node    7 =   216 MB

* Maximum memory occured during matrixMtoO                    

timer: CPU execution times:
timer:  Routine       Calls   Time/call    Tot.time        %
timer:  siesta            1  136786.495  136786.495   100.00
timer:  Setup             1       3.878       3.878     0.00
timer:  bands             3     269.341     808.023     0.59
timer:  writewave         1       0.041       0.041     0.00
timer:  KSV_init          1       0.008       0.008     0.00
timer:  IterMD            1  135968.886  135968.886    99.40
timer:  hsparse           1       0.402       0.402     0.00
timer:  overlap           1       7.802       7.802     0.01
timer:  IterSCF          31    4378.020  135718.614    99.22
timer:  kinefsm           2       4.083       8.166     0.01
timer:  nlefsm            2      22.628      45.255     0.03
timer:  DHSCF            32     134.842    4314.934     3.15
timer:  DHSCF1            1       0.995       0.995     0.00
timer:  DHSCF2            1      46.240      46.240     0.03
timer:  REORD           258       0.010       2.596     0.00
timer:  POISON           33       2.242      73.997     0.05
timer:  DHSCF3           32     131.877    4220.065     3.09
timer:  rhoofd           32      27.695     886.248     0.65
timer:  cellXC           32       3.497     111.917     0.08
timer:  vmat             32      65.867    2107.733     1.54
timer:  MolMec            2       0.000       0.000     0.00
timer:  diagon           31    4241.541  131487.768    96.13
timer:  c-eigval       7282       6.685   48681.639    35.59
timer:  c-buildHS      7282       0.125     913.096     0.67
timer:  cdiag         14443       6.882   99396.465    72.67
timer:  cdiag1        14443       0.429    6203.024     4.53
timer:  cdiag2        14443       1.911   27607.106    20.18
timer:  cdiag3        14443       3.942   56934.066    41.62
timer:  cdiag4        14443       0.221    3191.785     2.33
timer:  c-eigvec       7161       7.272   52076.010    38.07
timer:  c-buildD       7161       4.398   31497.039    23.03
timer:  DHSCF4            1      45.908      45.908     0.03
timer:  dfscf             1      43.180      43.180     0.03
timer:  overfsm           1       0.500       0.500     0.00
timer:  optical           1       5.006       5.006     0.00
  

elaps: ELAPSED times:
elaps:  Routine       Calls   Time/call    Tot.time        %
elaps:  siesta            1   17118.033   17118.033   100.00
elaps:  Setup             1       0.502       0.502     0.00
elaps:  bands             3      33.720     101.161     0.59
elaps:  writewave         1       0.006       0.006     0.00
elaps:  KSV_init          1       0.001       0.001     0.00
elaps:  IterMD            1   17015.709   17015.709    99.40
elaps:  hsparse           1       0.052       0.052     0.00
elaps:  overlap           1       0.981       0.981     0.01
elaps:  IterSCF          31     547.888   16984.536    99.22
elaps:  kinefsm           2       0.512       1.025     0.01
elaps:  nlefsm            2       2.977       5.953     0.03
elaps:  DHSCF            32      17.050     545.596     3.19
elaps:  DHSCF1            1       0.126       0.126     0.00
elaps:  DHSCF2            1       5.781       5.781     0.03
elaps:  REORD           258       0.001       0.356     0.00
elaps:  POISON           33       0.280       9.233     0.05
elaps:  DHSCF3           32      16.498     527.941     3.08
elaps:  rhoofd           32       7.485     239.532     1.40
elaps:  cellXC           32       0.437      13.973     0.08
elaps:  vmat             32       8.240     263.671     1.54
elaps:  MolMec            2       0.000       0.000     0.00
elaps:  diagon           31     530.811   16455.136    96.13
elaps:  c-eigval       7282       0.836    6091.034    35.58
elaps:  c-buildHS      7282       0.017     123.372     0.72
elaps:  cdiag         14443       0.855   12345.653    72.12
elaps:  cdiag1        14443       0.053     768.835     4.49
elaps:  cdiag2        14443       0.239    3454.257    20.18
elaps:  cdiag3        14443       0.494    7133.423    41.67
elaps:  cdiag4        14443       0.028     399.005     2.33
elaps:  c-eigvec       7161       0.901    6452.978    37.70
elaps:  c-buildD       7161       0.560    4006.766    23.41
elaps:  DHSCF4            1      11.513      11.513     0.07
elaps:  dfscf             1      10.972      10.972     0.06
elaps:  overfsm           1       0.062       0.062     0.00
elaps:  optical           1       0.001       0.001     0.00
  
>> End of run:  20-APR-2016  16:12:03
