Siesta Version:                                        siesta-3.2-pl-3
Architecture  : x86_64-unknown-linux-gnu--unknown
Compiler flags: mpiifort -g -O2 -fPIC -xSSE4.1 -fp-model source -shared-intel 
PARALLEL version

* Running on   12 nodes in parallel
>> Start of run:   7-MAY-2016  15:35:42

                           ***********************       
                           *  WELCOME TO SIESTA  *       
                           ***********************       

reinit: Reading from standard input
************************** Dump of input data file ****************************
#(1) General system descriptors
SystemName            GRP_doping    # Descriptive name of the system
SystemLabel           GRP_doping    # Short name for naming files
%include STRUCT.fdf
%include KPT.fdf
%include BASIS.fdf
#%include TS.fdf # for transiesta calculation
#(4) DFT, Grid, SCF
XC.functional         GGA           # LDA or GGA (default = LDA)
XC.authors            PBE           # CA (Ceperley-Aldr) = PZ
                                    #    (Perdew-Zunger) - LDA - Default
                                    # PW92 (Perdew-Wang-92) - LDA
                                    # PBE (Perdew-Burke-Ernzerhof) - GGA
MeshCutoff            200.000000    Ry      # Default: 50.0 Ry ~ 0.444 Bohr
                                    #         100.0 Ry ~ 0.314 Bohr
MaxSCFIterations      500           # Default: 50
DM.MixingWeight       0.05          # Default: 0.25
DM.NumberPulay        10            # Default: 0
DM.PulayOnFile        F             # SystemLabel.P1, SystemLabel.P2
DM.Tolerance          1.d-4         # Default: 1.d-4
DM.UseSaveDM          .true.        # because of the bug
SCFMustConverge       .true.
NeglNonOverlapInt     F             # Default: F
#(5) Eigenvalue problem: order-N or diagonalization
SolutionMethod        Diagon        # or Transiesta
ElectronicTemperature 300.0 K       # Default: 300.0 K
#(6) Molecular dynamics and relaxations
#MD.TypeOfRun          CG            # Type of dynamics:
#MD.VariableCell       F
#MD.NumCGsteps         0           # 0 for single-point / 100 for gopt
#MD.MaxCGDispl         0.2 Bohr      # Default: 0.2 Bohr
#MD.MaxForceTol        0.02 eV/Ang   # Default: 0.04 eV/Ang
#MD.MaxStressTol       1.0 GPa       # Default: 1.0 GPa
# Geometry Constraints
#%block GeometryConstraints
#	position from 1 to 44
#%endblock GeometryConstraints
BandLinesScale   pi/a
%block BandLines
 1   0.00000000  0.00000000  0.00000000
50   0.00000000  0.07809418  0.00000000
50   0.04509075  0.07809242  0.00000000
20   0.00000000  0.00000000  0.00000000
%endblock BandLines
************************** End of input data file *****************************

reinit: -----------------------------------------------------------------------
reinit: System Name: GRP_doping
reinit: -----------------------------------------------------------------------
reinit: System Label: GRP_doping                                                  
reinit: -----------------------------------------------------------------------

initatom: Reading input for the pseudopotentials and atomic orbitals ----------
 Species number:            1  Label: N Atomic number:           7
 Species number:            2  Label: C Atomic number:           6
Ground state valence configuration:   2s02  2p03
Reading pseudopotential information in formatted form from N.psf

Valence configuration for pseudopotential generation:
2s( 2.00) rc: 1.48
2p( 3.00) rc: 1.48
3d( 0.00) rc: 1.48
4f( 0.00) rc: 1.48
Ground state valence configuration:   2s02  2p02
Reading pseudopotential information in formatted form from C.psf

Valence configuration for pseudopotential generation:
2s( 2.00) rc: 1.54
2p( 2.00) rc: 1.54
3d( 0.00) rc: 1.54
4f( 0.00) rc: 1.54
For N, standard SIESTA heuristics set lmxkb to 3
 (one more than the basis l, including polarization orbitals).
Use PS.lmax or PS.KBprojectors blocks to override.
For C, standard SIESTA heuristics set lmxkb to 3
 (one more than the basis l, including polarization orbitals).
Use PS.lmax or PS.KBprojectors blocks to override.

<basis_specs>
===============================================================================
N                    Z=   7    Mass=  14.010        Charge= 0.17977+309
Lmxo=1 Lmxkb= 3    BasisType=split      Semic=F
L=0  Nsemic=0  Cnfigmx=2
          n=1  nzeta=2  polorb=0
            splnorm:   0.15000    
               vcte:    0.0000    
               rinn:    0.0000    
                rcs:    0.0000      0.0000    
            lambdas:    1.0000      1.0000    
L=1  Nsemic=0  Cnfigmx=2
          n=1  nzeta=2  polorb=1
            splnorm:   0.15000    
               vcte:    0.0000    
               rinn:    0.0000    
                rcs:    0.0000      0.0000    
            lambdas:    1.0000      1.0000    
-------------------------------------------------------------------------------
L=0  Nkbl=1  erefs: 0.17977+309
L=1  Nkbl=1  erefs: 0.17977+309
L=2  Nkbl=1  erefs: 0.17977+309
L=3  Nkbl=1  erefs: 0.17977+309
===============================================================================
</basis_specs>

atom: Called for N                     (Z =   7)

read_vps: Pseudopotential generation method:
read_vps: ATM3      Troullier-Martins                       
Total valence charge:    5.00000

read_vps: Pseudopotential includes a core correction:
read_vps: Pseudo-core for xc-correction

xc_check: Exchange-correlation functional:
xc_check: GGA Perdew, Burke & Ernzerhof 1996
V l=0 = -2*Zval/r beyond r=  1.4606
V l=1 = -2*Zval/r beyond r=  1.4606
V l=2 = -2*Zval/r beyond r=  1.4606
V l=3 = -2*Zval/r beyond r=  1.4606
All V_l potentials equal beyond r=  1.4606
This should be close to max(r_c) in ps generation
All pots = -2*Zval/r beyond r=  1.4606

VLOCAL1: 99.0% of the norm of Vloc inside     20.347 Ry
VLOCAL1: 99.9% of the norm of Vloc inside     46.372 Ry
atom: Maximum radius for 4*pi*r*r*local-pseudopot. charge    1.76189
atom: Maximum radius for r*vlocal+2*Zval:    1.53550
GHOST: No ghost state for L =  0
GHOST: No ghost state for L =  1
GHOST: No ghost state for L =  2
GHOST: No ghost state for L =  3

KBgen: Kleinman-Bylander projectors: 
   l= 0   rc=  1.634559   el= -1.363963   Ekb=  5.296955   kbcos=  0.335621
   l= 1   rc=  1.614250   el= -0.521451   Ekb= -5.259161   kbcos= -0.433408
   l= 2   rc=  1.718383   el=  0.001991   Ekb= -1.271464   kbcos= -0.007566
   l= 3   rc=  1.761893   el=  0.003093   Ekb= -0.494769   kbcos= -0.001015

KBgen: Total number of  Kleinman-Bylander projectors:   16
atom: -------------------------------------------------------------------------

atom: SANKEY-TYPE ORBITALS:
atom: Selected multiple-zeta basis: split     

SPLIT: Orbitals with angular momentum L= 0

SPLIT: Basis orbitals for state 2s

SPLIT: PAO cut-off radius determined from an
SPLIT: energy shift=  0.007350 Ry

   izeta = 1
                 lambda =    1.000000
                     rc =    4.071465
                 energy =   -1.356470
                kinetic =    1.176977
    potential(screened) =   -2.533447
       potential(ionic) =   -8.057990

   izeta = 2
                 rmatch =    2.905100
              splitnorm =    0.150000
                 energy =   -1.158343
                kinetic =    1.813009
    potential(screened) =   -2.971352
       potential(ionic) =   -8.901931

SPLIT: Orbitals with angular momentum L= 1

SPLIT: Basis orbitals for state 2p

SPLIT: PAO cut-off radius determined from an
SPLIT: energy shift=  0.007350 Ry

   izeta = 1
                 lambda =    1.000000
                     rc =    4.972977
                 energy =   -0.513884
                kinetic =    3.441732
    potential(screened) =   -3.955616
       potential(ionic) =   -9.287901

   izeta = 2
                 rmatch =    3.054066
              splitnorm =    0.150000
                 energy =   -0.318226
                kinetic =    5.125348
    potential(screened) =   -5.443573
       potential(ionic) =  -11.380999

POLgen: Perturbative polarization orbital with L=  2

POLgen: Polarization orbital for state 2p

   izeta = 1
                     rc =    4.972977
                 energy =    1.607437
                kinetic =    3.268125
    potential(screened) =   -1.660688
       potential(ionic) =   -5.973652
atom: Total number of Sankey-type orbitals: 13

atm_pop: Valence configuration (for local Pseudopot. screening):
 2s( 2.00)                                                            
 2p( 3.00)                                                            
Vna: chval, zval:    5.00000   5.00000

Vna:  Cut-off radius for the neutral-atom potential:   4.972977
comcore: Pseudo-core radius Rcore=  1.554824

atom: _________________________________________________________________________

<basis_specs>
===============================================================================
C                    Z=   6    Mass=  12.010        Charge= 0.17977+309
Lmxo=1 Lmxkb= 3    BasisType=split      Semic=F
L=0  Nsemic=0  Cnfigmx=2
          n=1  nzeta=2  polorb=0
            splnorm:   0.15000    
               vcte:    0.0000    
               rinn:    0.0000    
                rcs:    0.0000      0.0000    
            lambdas:    1.0000      1.0000    
L=1  Nsemic=0  Cnfigmx=2
          n=1  nzeta=2  polorb=1
            splnorm:   0.15000    
               vcte:    0.0000    
               rinn:    0.0000    
                rcs:    0.0000      0.0000    
            lambdas:    1.0000      1.0000    
-------------------------------------------------------------------------------
L=0  Nkbl=1  erefs: 0.17977+309
L=1  Nkbl=1  erefs: 0.17977+309
L=2  Nkbl=1  erefs: 0.17977+309
L=3  Nkbl=1  erefs: 0.17977+309
===============================================================================
</basis_specs>

atom: Called for C                     (Z =   6)

read_vps: Pseudopotential generation method:
read_vps: ATM3      Troullier-Martins                       
Total valence charge:    4.00000

read_vps: Pseudopotential includes a core correction:
read_vps: Pseudo-core for xc-correction

xc_check: Exchange-correlation functional:
xc_check: GGA Perdew, Burke & Ernzerhof 1996
V l=0 = -2*Zval/r beyond r=  1.5227
V l=1 = -2*Zval/r beyond r=  1.5227
V l=2 = -2*Zval/r beyond r=  1.5227
V l=3 = -2*Zval/r beyond r=  1.5038
All V_l potentials equal beyond r=  1.5227
This should be close to max(r_c) in ps generation
All pots = -2*Zval/r beyond r=  1.5227

VLOCAL1: 99.0% of the norm of Vloc inside     18.722 Ry
VLOCAL1: 99.9% of the norm of Vloc inside     42.668 Ry
atom: Maximum radius for 4*pi*r*r*local-pseudopot. charge    1.83678
atom: Maximum radius for r*vlocal+2*Zval:    1.58088
GHOST: No ghost state for L =  0
GHOST: No ghost state for L =  1
GHOST: No ghost state for L =  2
GHOST: No ghost state for L =  3

KBgen: Kleinman-Bylander projectors: 
   l= 0   rc=  1.704034   el= -1.009801   Ekb=  5.335044   kbcos=  0.316824
   l= 1   rc=  1.704034   el= -0.388707   Ekb= -3.785862   kbcos= -0.366464
   l= 2   rc=  1.791422   el=  0.001971   Ekb= -0.970471   kbcos= -0.009212
   l= 3   rc=  1.859892   el=  0.003065   Ekb= -0.399525   kbcos= -0.001223

KBgen: Total number of  Kleinman-Bylander projectors:   16
atom: -------------------------------------------------------------------------

atom: SANKEY-TYPE ORBITALS:
atom: Selected multiple-zeta basis: split     

SPLIT: Orbitals with angular momentum L= 0

SPLIT: Basis orbitals for state 2s

SPLIT: PAO cut-off radius determined from an
SPLIT: energy shift=  0.007350 Ry

   izeta = 1
                 lambda =    1.000000
                     rc =    4.632753
                 energy =   -1.002270
                kinetic =    0.855760
    potential(screened) =   -1.858031
       potential(ionic) =   -5.417575

   izeta = 2
                 rmatch =    3.431921
              splitnorm =    0.150000
                 energy =   -0.867111
                kinetic =    1.300804
    potential(screened) =   -2.167915
       potential(ionic) =   -5.962684

SPLIT: Orbitals with angular momentum L= 1

SPLIT: Basis orbitals for state 2p

SPLIT: PAO cut-off radius determined from an
SPLIT: energy shift=  0.007350 Ry

   izeta = 1
                 lambda =    1.000000
                     rc =    5.658549
                 energy =   -0.381140
                kinetic =    2.399701
    potential(screened) =   -2.780841
       potential(ionic) =   -6.206085

   izeta = 2
                 rmatch =    3.653288
              splitnorm =    0.150000
                 energy =   -0.249149
                kinetic =    3.542762
    potential(screened) =   -3.791911
       potential(ionic) =   -7.581078

POLgen: Perturbative polarization orbital with L=  2

POLgen: Polarization orbital for state 2p

   izeta = 1
                     rc =    5.658549
                 energy =    1.109913
                kinetic =    2.304789
    potential(screened) =   -1.194876
       potential(ionic) =   -4.013592
atom: Total number of Sankey-type orbitals: 13

atm_pop: Valence configuration (for local Pseudopot. screening):
 2s( 2.00)                                                            
 2p( 2.00)                                                            
Vna: chval, zval:    4.00000   4.00000

Vna:  Cut-off radius for the neutral-atom potential:   5.658549
comcore: Pseudo-core radius Rcore=  1.791422

atom: _________________________________________________________________________

prinput: Basis input ----------------------------------------------------------

PAO.BasisType split     

%block ChemicalSpeciesLabel
    1    7 N                       # Species index, atomic number, species label
    2    6 C                       # Species index, atomic number, species label
%endblock ChemicalSpeciesLabel

%block PAO.Basis                 # Define Basis set
N                     2                    # Species label, number of l-shells
 n=2   0   2                         # n, l, Nzeta 
   4.071      2.905   
   1.000      1.000   
 n=2   1   2 P   1                   # n, l, Nzeta, Polarization, NzetaPol
   4.973      3.054   
   1.000      1.000   
C                     2                    # Species label, number of l-shells
 n=2   0   2                         # n, l, Nzeta 
   4.633      3.432   
   1.000      1.000   
 n=2   1   2 P   1                   # n, l, Nzeta, Polarization, NzetaPol
   5.659      3.653   
   1.000      1.000   
%endblock PAO.Basis

prinput: ----------------------------------------------------------------------

coor:   Atomic-coordinates input format  =     Fractional

siesta: Atomic coordinates (Bohr) and species
siesta:      2.30256   6.62836   0.00000  1        1
siesta:      2.30256   9.31683   0.00000  1        2
siesta:     -0.02582  10.66124   0.00000  1        3
siesta:     -0.02582  13.34970   0.00000  1        4
siesta:     -2.35420  14.69411   0.00000  1        5
siesta:     -2.35420  17.38257   0.00000  1        6
siesta:     -4.68258  18.72698   0.00000  1        7
siesta:     -4.68258  21.41544   0.00000  1        8
siesta:     -7.01096  22.75985   0.00000  1        9
siesta:     -7.01096  25.44831   0.00000  1       10
siesta:     -0.02582   2.59549   0.00000  2       11
siesta:     -0.02582   5.28395   0.00000  2       12
siesta:     -2.35420  38.89134   0.00000  2       13
siesta:     -2.35420  41.57980   0.00000  2       14
siesta:      2.30256  38.89134   0.00000  2       15
siesta:      2.30256  41.57980   0.00000  2       16
siesta:      4.63094  34.85847   0.00000  2       17
siesta:      4.63094  37.54693   0.00000  2       18
siesta:      6.95932  30.82560   0.00000  2       19
siesta:      6.95932  33.51406   0.00000  2       20
siesta:      9.28770  26.79272   0.00000  2       21
siesta:      9.28770  29.48119   0.00000  2       22
siesta:     -4.68258  34.85847   0.00000  2       23
siesta:     -4.68258  37.54693   0.00000  2       24
siesta:      4.63094  10.66124   0.00000  2       25
siesta:      4.63094  13.34970   0.00000  2       26
siesta:      6.95932  14.69411   0.00000  2       27
siesta:      6.95932  17.38257   0.00000  2       28
siesta:      9.28770  18.72698   0.00000  2       29
siesta:      9.28770  21.41544   0.00000  2       30
siesta:     11.61608  22.75985   0.00000  2       31
siesta:     11.61608  25.44831   0.00000  2       32
siesta:     -2.35420   6.62836   0.00000  2       33
siesta:     -2.35420   9.31683   0.00000  2       34
siesta:      2.30256  14.69411   0.00000  2       35
siesta:      2.30256  17.38257   0.00000  2       36
siesta:      4.63094  18.72698   0.00000  2       37
siesta:      4.63094  21.41544   0.00000  2       38
siesta:      6.95932  22.75985   0.00000  2       39
siesta:      6.95932  25.44831   0.00000  2       40
siesta:     -4.68258  10.66124   0.00000  2       41
siesta:     -4.68258  13.34970   0.00000  2       42
siesta:     -0.02582  18.72698   0.00000  2       43
siesta:     -0.02582  21.41544   0.00000  2       44
siesta:      2.30256  22.75985   0.00000  2       45
siesta:      2.30256  25.44831   0.00000  2       46
siesta:     -7.01096  14.69411   0.00000  2       47
siesta:     -7.01096  17.38257   0.00000  2       48
siesta:     -2.35420  22.75985   0.00000  2       49
siesta:     -2.35420  25.44831   0.00000  2       50
siesta:     -9.33934  18.72698   0.00000  2       51
siesta:     -9.33934  21.41544   0.00000  2       52
siesta:    -11.66772  22.75985   0.00000  2       53
siesta:    -11.66772  25.44831   0.00000  2       54
siesta:     -9.33934  26.79272   0.00000  2       55
siesta:     -9.33934  29.48119   0.00000  2       56
siesta:      4.63094  26.79272   0.00000  2       57
siesta:      4.63094  29.48119   0.00000  2       58
siesta:     -0.02582  26.79272   0.00000  2       59
siesta:     -0.02582  29.48119   0.00000  2       60
siesta:     -4.68258  26.79272   0.00000  2       61
siesta:     -4.68258  29.48119   0.00000  2       62
siesta:      2.30256  30.82560   0.00000  2       63
siesta:      2.30256  33.51406   0.00000  2       64
siesta:     -2.35420  30.82560   0.00000  2       65
siesta:     -2.35420  33.51406   0.00000  2       66
siesta:     -7.01096  30.82560   0.00000  2       67
siesta:     -7.01096  33.51406   0.00000  2       68
siesta:     -0.02582  34.85847   0.00000  2       69
siesta:     -0.02582  37.54693   0.00000  2       70
siesta:     -0.02582  42.92421   0.00000  2       71
siesta:     -0.02582  45.61267   0.00000  2       72

siesta: System type = slab      

initatomlists: Number of atoms, orbitals, and projectors:     72   936  1152

siesta: ******************** Simulation parameters ****************************
siesta:
siesta: The following are some of the parameters of the simulation.
siesta: A complete list of the parameters used, including default values,
siesta: can be found in file out.fdf
siesta:
redata: Non-Collinear-spin run           =     F
redata: SpinPolarized (Up/Down) run      =     F
redata: Number of spin components        =     1
redata: Long output                      =     F
redata: Number of Atomic Species         =        2
redata: Charge density info will appear in .RHO file
redata: Write Mulliken Pop.              =     NO
redata: Mesh Cutoff                      =   200.0000  Ry
redata: Net charge of the system         =     0.0000 |e|
redata: Max. number of SCF Iter          =      500
redata: SCF convergence failure will abort job
redata: Performing Pulay mixing using    =    10 iterations
redata: Mix DM in first SCF step ?       =     F
redata: Write Pulay info on disk?        =     F
redata: Discard 1st Pulay DM after  kick =     F
redata: New DM Mixing Weight             =     0.0500
redata: New DM Occupancy tolerance       = 0.000000000001
redata: No kicks to SCF
redata: DM Mixing Weight for Kicks       =     0.5000
redata: DM Tolerance for SCF             =     0.000100
redata: Require Energy convergence for SCF =     F
redata: DM Energy tolerance for SCF      =     0.000100 eV
redata: Require Harris convergence for SCF =     F
redata: DM Harris energy tolerance for SCF =     0.000100 eV
redata: Using Saved Data (generic)   =     F
redata: Use continuation files for DM    =     T
redata: Neglect nonoverlap interactions  =     F
redata: Method of Calculation            =     Diagonalization
redata: Divide and Conquer               =     T
redata: Electronic Temperature           =     0.0019  Ry
redata: Fix the spin of the system       =     F
redata: Dynamics option                  =     Verlet MD run
redata: Initial MD time step             =        1
redata:   Final MD time step             =        1
redata: Length of MD time step           =     1.0000  fs
redata: Initial Temperature of MD run    =     0.0000  K
redata: Perform a MD quench              =     F
redata: ***********************************************************************
Total number of electrons:   298.000000
Total ionic charge:   298.000000

* ProcessorY, Blocksize:    3  24

k-point displ. along   1 input, could be:     0.50    0.00
k-point displ. along   2 input, could be:     0.50    0.00
 Kpoints in:          231 . Kpoints trimmed:          231

siesta: k-grid: Number of k-points =   231
siesta: k-grid: Cutoff (effective) =     5.000 Ang
siesta: k-grid: Supercell and displacements
siesta: k-grid:   21   0   0      0.500
siesta: k-grid:    0  21   0      0.500
siesta: k-grid:    0   0   1      0.000
Naive supercell factors:     2    2    2

superc: Internal auxiliary supercell:     2 x     2 x     2  =       8
superc: Number of atoms, orbitals, and projectors:    576   7488   9216

* Maximum dynamic memory allocated =     4 MB

siesta:                 ==============================
                            Begin MD step =      1
                        ==============================

superc: Internal auxiliary supercell:     2 x     2 x     2  =       8
superc: Number of atoms, orbitals, and projectors:    576   7488   9216

outcell: Unit cell vectors (Ang):
       12.804619    7.392750    0.000000
        0.000000   14.785500    0.000000
        0.000000    0.000000   10.000000

outcell: Cell vector modules (Ang)   :   14.785500   14.785500   10.000000
outcell: Cell angles (23,13,12) (deg):     90.0000     90.0000     60.0000
outcell: Cell volume (Ang**3)        :   1893.2269
New_DM. Step:     1
Initializing Density Matrix...

InitMesh: MESH =   120 x   120 x    90 =     1296000
InitMesh: Mesh cutoff (required, used) =   200.000   223.865 Ry

* Maximum dynamic memory allocated =   137 MB

stepf: Fermi-Dirac step function

siesta: Program's energy decomposition (eV):
siesta: Ebs     =     -6099.251299
siesta: Eions   =     20010.479513
siesta: Ena     =      4826.945972
siesta: Ekin    =      7217.402668
siesta: Enl     =       326.124406
siesta: DEna    =        -0.000015
siesta: DUscf   =         0.000000
siesta: DUext   =         0.000000
siesta: Exc     =     -4422.950043
siesta: eta*DQ  =         0.000000
siesta: Emadel  =         0.000000
siesta: Emeta   =         0.000000
siesta: Emolmec =         0.000000
siesta: Ekinion =         0.000000
siesta: Eharris =    -11702.749634
siesta: Etot    =    -12062.956526
siesta: FreeEng =    -12062.956526

siesta: iscf   Eharris(eV)      E_KS(eV)   FreeEng(eV)   dDmax  Ef(eV)
siesta:    1   -11702.7496   -12062.9565   -12062.9565  6.1918 -7.3604
timer: Routine,Calls,Time,% = IterSCF        1    3002.627  99.58
elaps: Routine,Calls,Wall,% = IterSCF        1     250.812  99.58
siesta:    2   -15092.7003   -11168.8141   -11168.8172 12.5171 -2.0137
siesta:    3   -11637.9366   -11813.6542   -11813.6957  1.9640 -5.0362
siesta:    4   -11596.3276   -11707.8991   -11707.9041  1.0211 -4.4265
siesta:    5   -11562.7226   -11649.6417   -11649.6796  0.7550 -4.2705
siesta:    6   -11559.7431   -11635.7389   -11635.7930  0.6767 -4.2468
siesta:    7   -11557.5209   -11629.6733   -11629.7353  0.7146 -4.2985
siesta:    8   -11552.7454   -11608.9701   -11609.0418  0.6679 -4.2674
siesta:    9   -11551.7241   -11597.6396   -11597.6932  0.6453 -4.2405
siesta:   10   -11551.2297   -11582.9541   -11583.0311  0.5087 -4.2050
siesta:   11   -11551.2499   -11561.3494   -11561.4199  0.3412 -4.1851
siesta:   12   -11551.4248   -11550.4978   -11550.5718  0.4092 -4.1099
siesta:   13   -11551.1365   -11543.4574   -11543.5251  0.2374 -4.1562
siesta:   14   -11550.6292   -11544.1867   -11544.2680  0.2020 -4.1617
siesta:   15   -11550.4750   -11544.1225   -11544.2074  0.1253 -4.1805
siesta:   16   -11550.2869   -11545.0390   -11545.1238  0.1568 -4.1710
siesta:   17   -11550.1910   -11545.0832   -11545.1850  0.0960 -4.1792
siesta:   18   -11550.1761   -11545.3669   -11545.4648  0.1126 -4.1729
siesta:   19   -11550.1205   -11546.1909   -11546.2846  0.0539 -4.1777
siesta:   20   -11550.1190   -11546.8253   -11546.9302  0.0478 -4.1773
siesta:   21   -11550.1130   -11547.2068   -11547.3102  0.0617 -4.1776
siesta:   22   -11550.1150   -11548.1926   -11548.2955  0.0302 -4.1750
siesta:   23   -11550.1095   -11548.3486   -11548.4495  0.0131 -4.1770
siesta:   24   -11550.1069   -11548.6150   -11548.7172  0.0097 -4.1765
siesta:   25   -11550.1068   -11549.6314   -11549.7339  0.0067 -4.1744
siesta:   26   -11550.1063   -11549.8980   -11549.9996  0.0039 -4.1740
siesta:   27   -11550.1057   -11549.9055   -11550.0075  0.0050 -4.1743
siesta:   28   -11550.1051   -11550.0034   -11550.1056  0.0025 -4.1748
siesta:   29   -11550.1050   -11549.9291   -11550.0317  0.0038 -4.1751
siesta:   30   -11550.1051   -11549.9231   -11550.0257  0.0021 -4.1751
siesta:   31   -11550.1050   -11549.9434   -11550.0459  0.0021 -4.1752
siesta:   32   -11550.1050   -11549.9721   -11550.0747  0.0014 -4.1752
siesta:   33   -11550.1050   -11549.9873   -11550.0899  0.0013 -4.1754
siesta:   34   -11550.1050   -11550.0417   -11550.1442  0.0009 -4.1757
siesta:   35   -11550.1050   -11550.0682   -11550.1708  0.0002 -4.1759
siesta:   36   -11550.1050   -11550.0746   -11550.1771  0.0002 -4.1759
siesta:   37   -11550.1050   -11550.0876   -11550.1902  0.0002 -4.1759
siesta:   38   -11550.1050   -11550.0995   -11550.2020  0.0001 -4.1759
siesta:   39   -11550.1050   -11550.1027   -11550.2052  0.0001 -4.1759

siesta: E_KS(eV) =           -11550.1017

siesta: E_KS - E_eggbox =    -11550.1017

siesta: Atomic forces (eV/Ang):
----------------------------------------
   Tot   -0.205225    0.018074    0.000000
----------------------------------------
   Max  677.188080
   Res  173.168934    sqrt( Sum f_i^2 / 3N )
----------------------------------------
   Max  677.188080    constrained

Stress-tensor-Voigt (kbar):     -645.85    -3110.87       -0.14      -14.97        0.00        0.00
(Free)E + p*V (eV/cell)   -10070.4408
Target enthalpy (eV/cell)   -11550.2043

siesta: Stress tensor (static) (eV/Ang**3):
        -0.403105   -0.009344    0.000000
        -0.009344   -1.941632    0.000000
         0.000000    0.000000   -0.000090

siesta: Pressure (static):       1252.28947900  kBar

siesta: Stress tensor (total) (eV/Ang**3):
        -0.403105   -0.009344    0.000000
        -0.009344   -1.941632    0.000000
         0.000000    0.000000   -0.000090

siesta: Pressure (total):       1252.28947900  kBar

siesta: Temp_ion =       0.000 K

* Maximum dynamic memory allocated =   149 MB
Computing bands...

siesta: Program's energy decomposition (eV):
siesta: Ebs     =     -4821.662039
siesta: Eions   =     20010.479513
siesta: Ena     =      4826.945972
siesta: Ekin    =     10315.643314
siesta: Enl     =     -1382.611370
siesta: DEna    =      -807.216585
siesta: DUscf   =       107.457971
siesta: DUext   =         0.000000
siesta: Exc     =     -4599.841527
siesta: eta*DQ  =         0.000000
siesta: Emadel  =         0.000000
siesta: Emeta   =         0.000000
siesta: Emolmec =         0.000000
siesta: Ekinion =         0.000000
siesta: Eharris =    -11550.105015
siesta: Etot    =    -11550.101737
siesta: FreeEng =    -11550.204264

siesta: Final energy (eV):
siesta:  Band Struct. =   -4821.662039
siesta:       Kinetic =   10315.643314
siesta:       Hartree =   33947.002857
siesta:    Ext. field =       0.000000
siesta:   Exch.-corr. =   -4599.841527
siesta:  Ion-electron =  -77806.156731
siesta:       Ion-ion =   26593.250349
siesta:       Ekinion =       0.000000
siesta:         Total =  -11550.101737

siesta: Atomic forces (eV/Ang):
siesta:      1   13.835510  648.627523    0.000000
siesta:      2    0.773431 -105.581790    0.000000
siesta:      3   -5.717233  657.919574    0.000000
siesta:      4    3.413952 -108.894829    0.000000
siesta:      5   -6.820331  673.707735    0.000000
siesta:      6  -26.779645   -4.075766    0.000000
siesta:      7   -1.593172    3.385777    0.000000
siesta:      8    1.048443    2.220617    0.000000
siesta:      9   -0.556976    0.634811    0.000000
siesta:     10    1.642995    0.174586    0.000000
siesta:     11   -0.395683  548.160054    0.000000
siesta:     12   -3.266377 -130.543045    0.000000
siesta:     13    2.161578  119.819590    0.000000
siesta:     14  -13.704447 -659.402047    0.000000
siesta:     15    1.739459  121.587443    0.000000
siesta:     16   -4.087598 -549.163909    0.000000
siesta:     17   28.161341    4.640452    0.000000
siesta:     18   22.166957 -552.145360    0.000000
siesta:     19    1.922619    0.068185    0.000000
siesta:     20   -3.087623    1.212553    0.000000
siesta:     21    2.196758    2.361545    0.000000
siesta:     22   -1.191330   -0.075235    0.000000
siesta:     23  -26.514275    5.600417    0.000000
siesta:     24  -33.020369 -550.423722    0.000000
siesta:     25   30.577840  553.432608    0.000000
siesta:     26   27.753142   -4.389639    0.000000
siesta:     27   -3.151379   -1.777260    0.000000
siesta:     28    1.945742   -0.132502    0.000000
siesta:     29   -1.313745   -0.121260    0.000000
siesta:     30    2.381766   -2.021084    0.000000
siesta:     31   -0.264150    7.600540    0.000000
siesta:     32   -0.182558   -7.660028    0.000000
siesta:     33  -11.078200  547.929373    0.000000
siesta:     34   -0.752009 -128.123837    0.000000
siesta:     35   24.953427  563.859976    0.000000
siesta:     36   24.238673   -4.773578    0.000000
siesta:     37   -1.116270    2.752862    0.000000
siesta:     38    0.512739   -0.476901    0.000000
siesta:     39   -0.366503    0.708759    0.000000
siesta:     40   -0.352539   -0.535945    0.000000
siesta:     41  -29.989606  548.897980    0.000000
siesta:     42  -27.026059   -9.310202    0.000000
siesta:     43   16.503375  574.348648    0.000000
siesta:     44   -0.525187    0.511186    0.000000
siesta:     45   -0.295254    0.589444    0.000000
siesta:     46    0.115046   -0.432731    0.000000
siesta:     47    2.092379   -0.115839    0.000000
siesta:     48   -1.656573   -0.799300    0.000000
siesta:     49   -0.792958   -1.293258    0.000000
siesta:     50    0.833694    0.095582    0.000000
siesta:     51    1.499461    0.013236    0.000000
siesta:     52   -1.486306   -1.579946    0.000000
siesta:     53    0.735017    5.387475    0.000000
siesta:     54    0.536027   -5.449838    0.000000
siesta:     55   -1.573039    1.006322    0.000000
siesta:     56    0.996060   -0.000780    0.000000
siesta:     57    0.431373    0.331926    0.000000
siesta:     58   -1.176147   -2.478289    0.000000
siesta:     59   -0.999549   -1.892798    0.000000
siesta:     60    0.061785 -563.964689    0.000000
siesta:     61   -2.072061   -0.008706    0.000000
siesta:     62    0.919175   -2.977615    0.000000
siesta:     63   23.003392    5.187334    0.000000
siesta:     64   18.401058 -677.188080    0.000000
siesta:     65  -22.531211    5.114233    0.000000
siesta:     66  -21.435396 -560.414354    0.000000
siesta:     67   -1.787792    0.075651    0.000000
siesta:     68    2.637831    1.969170    0.000000
siesta:     69    1.752964  124.993420    0.000000
siesta:     70   10.834197 -668.883049    0.000000
siesta:     71    0.333103  122.762142    0.000000
siesta:     72  -14.657986 -550.563445    0.000000
siesta: ----------------------------------------
siesta:    Tot   -0.205225    0.018074    0.000000

siesta: Stress tensor (static) (eV/Ang**3):
siesta:    -0.403105   -0.009344    0.000000
siesta:    -0.009344   -1.941632    0.000000
siesta:     0.000000    0.000000   -0.000090

siesta: Cell volume =       1893.226884 Ang**3

siesta: Pressure (static):
siesta:                Solid            Molecule  Units
siesta:           0.00851272          0.13677816  Ry/Bohr**3
siesta:           0.78160917         12.55850589  eV/Ang**3
siesta:        1252.28947900      20121.16217702  kBar
(Free)E+ p_basis*V_orbitals  =      -11520.896281
(Free)Eharris+ p_basis*V_orbitals  =      -11520.898599

siesta: Electric dipole (a.u.)  =    0.000000    0.000000    0.000000
siesta: Electric dipole (Debye) =    0.000000    0.000000    0.000000

* Maximum dynamic memory allocated : Node    0 =   149 MB
* Maximum dynamic memory allocated : Node    1 =    59 MB
* Maximum dynamic memory allocated : Node    2 =    61 MB
* Maximum dynamic memory allocated : Node    3 =   135 MB
* Maximum dynamic memory allocated : Node    4 =   144 MB
* Maximum dynamic memory allocated : Node    5 =    53 MB
* Maximum dynamic memory allocated : Node    6 =    56 MB
* Maximum dynamic memory allocated : Node    7 =   140 MB
* Maximum dynamic memory allocated : Node    8 =   131 MB
* Maximum dynamic memory allocated : Node    9 =    53 MB
* Maximum dynamic memory allocated : Node   10 =    55 MB
* Maximum dynamic memory allocated : Node   11 =   125 MB

* Maximum memory occured during matrixMtoO                    

timer: CPU execution times:
timer:  Routine       Calls   Time/call    Tot.time        %
timer:  siesta            1  114573.931  114573.931   100.00
timer:  Setup             1       3.399       3.399     0.00
timer:  bands             3     224.793     674.379     0.59
timer:  writewave         1       0.023       0.023     0.00
timer:  KSV_init          1       0.005       0.005     0.00
timer:  IterMD            1  113889.079  113889.079    99.40
timer:  hsparse           1       0.162       0.162     0.00
timer:  overlap           1       6.358       6.358     0.01
timer:  IterSCF          39    2917.033  113764.296    99.29
timer:  kinefsm           2       3.226       6.451     0.01
timer:  nlefsm            2      18.298      36.596     0.03
timer:  DHSCF            40      61.172    2446.900     2.14
timer:  DHSCF1            1       0.901       0.901     0.00
timer:  DHSCF2            1      24.663      24.663     0.02
timer:  REORD           322       0.002       0.719     0.00
timer:  POISON           41       0.452      18.522     0.02
timer:  DHSCF3           40      59.991    2399.637     2.09
timer:  rhoofd           40      12.952     518.076     0.45
timer:  cellXC           40       2.451      98.029     0.09
timer:  vmat             40      28.185    1127.398     0.98
timer:  MolMec            2       0.000       0.000     0.00
timer:  diagon           39    2854.681  111332.575    97.17
timer:  c-eigval       9130       5.587   51009.053    44.52
timer:  c-buildHS      9130       0.033     305.556     0.27
timer:  cdiag         18139       5.681  103047.131    89.94
timer:  cdiag1        18139       0.260    4722.313     4.12
timer:  cdiag2        18139       1.832   33236.030    29.01
timer:  cdiag3        18139       3.385   61402.441    53.59
timer:  cdiag4        18139       0.088    1587.838     1.39
timer:  c-eigvec       9009       5.838   52598.582    45.91
timer:  c-buildD       9009       0.927    8349.359     7.29
timer:  DHSCF4            1      21.434      21.434     0.02
timer:  dfscf             1      19.998      19.998     0.02
timer:  overfsm           1       0.283       0.283     0.00
timer:  optical           1       6.458       6.458     0.01
  

elaps: ELAPSED times:
elaps:  Routine       Calls   Time/call    Tot.time        %
elaps:  siesta            1    9570.271    9570.271   100.00
elaps:  Setup             1       0.288       0.288     0.00
elaps:  bands             3      18.793      56.379     0.59
elaps:  writewave         1       0.002       0.002     0.00
elaps:  KSV_init          1       0.000       0.000     0.00
elaps:  IterMD            1    9513.061    9513.061    99.40
elaps:  hsparse           1       0.016       0.016     0.00
elaps:  overlap           1       0.712       0.712     0.01
elaps:  IterSCF          39     243.657    9502.636    99.29
elaps:  kinefsm           2       0.363       0.726     0.01
elaps:  nlefsm            2       1.651       3.302     0.03
elaps:  DHSCF            40       5.155     206.215     2.15
elaps:  DHSCF1            1       0.077       0.077     0.00
elaps:  DHSCF2            1       2.059       2.059     0.02
elaps:  REORD           322       0.000       0.094     0.00
elaps:  POISON           41       0.038       1.555     0.02
elaps:  DHSCF3           40       5.012     200.472     2.09
elaps:  rhoofd           40       2.292      91.664     0.96
elaps:  cellXC           40       0.204       8.171     0.09
elaps:  vmat             40       2.355      94.200     0.98
elaps:  MolMec            2       0.000       0.000     0.00
elaps:  diagon           39     238.455    9299.745    97.17
elaps:  c-eigval       9130       0.467    4260.692    44.52
elaps:  c-buildHS      9130       0.004      32.748     0.34
elaps:  cdiag         18139       0.470    8526.180    89.09
elaps:  cdiag1        18139       0.021     385.676     4.03
elaps:  cdiag2        18139       0.153    2778.698    29.03
elaps:  cdiag3        18139       0.283    5136.691    53.67
elaps:  cdiag4        18139       0.007     128.077     1.34
elaps:  c-eigvec       9009       0.480    4326.088    45.20
elaps:  c-buildD       9009       0.085     764.564     7.99
elaps:  DHSCF4            1       3.567       3.567     0.04
elaps:  dfscf             1       3.377       3.377     0.04
elaps:  overfsm           1       0.031       0.031     0.00
elaps:  optical           1       0.000       0.000     0.00
  
>> End of run:   7-MAY-2016  18:15:12
