Siesta Version:                                        siesta-3.2-pl-3
Architecture  : x86_64-unknown-linux-gnu--unknown
Compiler flags: mpiifort -g -O2 -fPIC -xSSE4.1 -fp-model source -shared-intel 
PARALLEL version

* Running on    8 nodes in parallel
>> Start of run:  23-APR-2016  20:52:35

                           ***********************       
                           *  WELCOME TO SIESTA  *       
                           ***********************       

reinit: Reading from standard input
************************** Dump of input data file ****************************
#(1) General system descriptors
SystemName            GRP_doping    # Descriptive name of the system
SystemLabel           GRP_doping    # Short name for naming files
%include STRUCT.fdf
%include KPT.fdf
%include BASIS.fdf
#%include TS.fdf # for transiesta calculation
#(4) DFT, Grid, SCF
XC.functional         GGA           # LDA or GGA (default = LDA)
XC.authors            PBE           # CA (Ceperley-Aldr) = PZ
                                    #    (Perdew-Zunger) - LDA - Default
                                    # PW92 (Perdew-Wang-92) - LDA
                                    # PBE (Perdew-Burke-Ernzerhof) - GGA
MeshCutoff            200.000000    Ry      # Default: 50.0 Ry ~ 0.444 Bohr
                                    #         100.0 Ry ~ 0.314 Bohr
MaxSCFIterations      500           # Default: 50
DM.MixingWeight       0.05          # Default: 0.25
DM.NumberPulay        10            # Default: 0
DM.PulayOnFile        F             # SystemLabel.P1, SystemLabel.P2
DM.Tolerance          1.d-4         # Default: 1.d-4
DM.UseSaveDM          .true.        # because of the bug
SCFMustConverge       .true.
NeglNonOverlapInt     F             # Default: F
#(5) Eigenvalue problem: order-N or diagonalization
SolutionMethod        Diagon        # or Transiesta
ElectronicTemperature 300.0 K       # Default: 300.0 K
#(6) Molecular dynamics and relaxations
#MD.TypeOfRun          CG            # Type of dynamics:
#MD.VariableCell       F
#MD.NumCGsteps         0           # 0 for single-point / 100 for gopt
#MD.MaxCGDispl         0.2 Bohr      # Default: 0.2 Bohr
#MD.MaxForceTol        0.02 eV/Ang   # Default: 0.04 eV/Ang
#MD.MaxStressTol       1.0 GPa       # Default: 1.0 GPa
# Geometry Constraints
#%block GeometryConstraints
#	position from 1 to 44
#%endblock GeometryConstraints
BandLinesScale   pi/a
%block BandLines
 1   0.00000000  0.00000000  0.00000000
50   0.00000000  0.07809418  0.00000000
50   0.04509075  0.07809242  0.00000000
20   0.00000000  0.00000000  0.00000000
%endblock BandLines
************************** End of input data file *****************************

reinit: -----------------------------------------------------------------------
reinit: System Name: GRP_doping
reinit: -----------------------------------------------------------------------
reinit: System Label: GRP_doping                                                  
reinit: -----------------------------------------------------------------------

initatom: Reading input for the pseudopotentials and atomic orbitals ----------
 Species number:            1  Label: N Atomic number:           7
 Species number:            2  Label: C Atomic number:           6
Ground state valence configuration:   2s02  2p03
Reading pseudopotential information in formatted form from N.psf

Valence configuration for pseudopotential generation:
2s( 2.00) rc: 1.48
2p( 3.00) rc: 1.48
3d( 0.00) rc: 1.48
4f( 0.00) rc: 1.48
Ground state valence configuration:   2s02  2p02
Reading pseudopotential information in formatted form from C.psf

Valence configuration for pseudopotential generation:
2s( 2.00) rc: 1.54
2p( 2.00) rc: 1.54
3d( 0.00) rc: 1.54
4f( 0.00) rc: 1.54
For N, standard SIESTA heuristics set lmxkb to 3
 (one more than the basis l, including polarization orbitals).
Use PS.lmax or PS.KBprojectors blocks to override.
For C, standard SIESTA heuristics set lmxkb to 3
 (one more than the basis l, including polarization orbitals).
Use PS.lmax or PS.KBprojectors blocks to override.

<basis_specs>
===============================================================================
N                    Z=   7    Mass=  14.010        Charge= 0.17977+309
Lmxo=1 Lmxkb= 3    BasisType=split      Semic=F
L=0  Nsemic=0  Cnfigmx=2
          n=1  nzeta=2  polorb=0
            splnorm:   0.15000    
               vcte:    0.0000    
               rinn:    0.0000    
                rcs:    0.0000      0.0000    
            lambdas:    1.0000      1.0000    
L=1  Nsemic=0  Cnfigmx=2
          n=1  nzeta=2  polorb=1
            splnorm:   0.15000    
               vcte:    0.0000    
               rinn:    0.0000    
                rcs:    0.0000      0.0000    
            lambdas:    1.0000      1.0000    
-------------------------------------------------------------------------------
L=0  Nkbl=1  erefs: 0.17977+309
L=1  Nkbl=1  erefs: 0.17977+309
L=2  Nkbl=1  erefs: 0.17977+309
L=3  Nkbl=1  erefs: 0.17977+309
===============================================================================
</basis_specs>

atom: Called for N                     (Z =   7)

read_vps: Pseudopotential generation method:
read_vps: ATM3      Troullier-Martins                       
Total valence charge:    5.00000

read_vps: Pseudopotential includes a core correction:
read_vps: Pseudo-core for xc-correction

xc_check: Exchange-correlation functional:
xc_check: GGA Perdew, Burke & Ernzerhof 1996
V l=0 = -2*Zval/r beyond r=  1.4606
V l=1 = -2*Zval/r beyond r=  1.4606
V l=2 = -2*Zval/r beyond r=  1.4606
V l=3 = -2*Zval/r beyond r=  1.4606
All V_l potentials equal beyond r=  1.4606
This should be close to max(r_c) in ps generation
All pots = -2*Zval/r beyond r=  1.4606

VLOCAL1: 99.0% of the norm of Vloc inside     20.347 Ry
VLOCAL1: 99.9% of the norm of Vloc inside     46.372 Ry
atom: Maximum radius for 4*pi*r*r*local-pseudopot. charge    1.76189
atom: Maximum radius for r*vlocal+2*Zval:    1.53550
GHOST: No ghost state for L =  0
GHOST: No ghost state for L =  1
GHOST: No ghost state for L =  2
GHOST: No ghost state for L =  3

KBgen: Kleinman-Bylander projectors: 
   l= 0   rc=  1.634559   el= -1.363963   Ekb=  5.296955   kbcos=  0.335621
   l= 1   rc=  1.614250   el= -0.521451   Ekb= -5.259161   kbcos= -0.433408
   l= 2   rc=  1.718383   el=  0.001991   Ekb= -1.271464   kbcos= -0.007566
   l= 3   rc=  1.761893   el=  0.003093   Ekb= -0.494769   kbcos= -0.001015

KBgen: Total number of  Kleinman-Bylander projectors:   16
atom: -------------------------------------------------------------------------

atom: SANKEY-TYPE ORBITALS:
atom: Selected multiple-zeta basis: split     

SPLIT: Orbitals with angular momentum L= 0

SPLIT: Basis orbitals for state 2s

SPLIT: PAO cut-off radius determined from an
SPLIT: energy shift=  0.007350 Ry

   izeta = 1
                 lambda =    1.000000
                     rc =    4.071465
                 energy =   -1.356470
                kinetic =    1.176977
    potential(screened) =   -2.533447
       potential(ionic) =   -8.057990

   izeta = 2
                 rmatch =    2.905100
              splitnorm =    0.150000
                 energy =   -1.158343
                kinetic =    1.813009
    potential(screened) =   -2.971352
       potential(ionic) =   -8.901931

SPLIT: Orbitals with angular momentum L= 1

SPLIT: Basis orbitals for state 2p

SPLIT: PAO cut-off radius determined from an
SPLIT: energy shift=  0.007350 Ry

   izeta = 1
                 lambda =    1.000000
                     rc =    4.972977
                 energy =   -0.513884
                kinetic =    3.441732
    potential(screened) =   -3.955616
       potential(ionic) =   -9.287901

   izeta = 2
                 rmatch =    3.054066
              splitnorm =    0.150000
                 energy =   -0.318226
                kinetic =    5.125348
    potential(screened) =   -5.443573
       potential(ionic) =  -11.380999

POLgen: Perturbative polarization orbital with L=  2

POLgen: Polarization orbital for state 2p

   izeta = 1
                     rc =    4.972977
                 energy =    1.607437
                kinetic =    3.268125
    potential(screened) =   -1.660688
       potential(ionic) =   -5.973652
atom: Total number of Sankey-type orbitals: 13

atm_pop: Valence configuration (for local Pseudopot. screening):
 2s( 2.00)                                                            
 2p( 3.00)                                                            
Vna: chval, zval:    5.00000   5.00000

Vna:  Cut-off radius for the neutral-atom potential:   4.972977
comcore: Pseudo-core radius Rcore=  1.554824

atom: _________________________________________________________________________

<basis_specs>
===============================================================================
C                    Z=   6    Mass=  12.010        Charge= 0.17977+309
Lmxo=1 Lmxkb= 3    BasisType=split      Semic=F
L=0  Nsemic=0  Cnfigmx=2
          n=1  nzeta=2  polorb=0
            splnorm:   0.15000    
               vcte:    0.0000    
               rinn:    0.0000    
                rcs:    0.0000      0.0000    
            lambdas:    1.0000      1.0000    
L=1  Nsemic=0  Cnfigmx=2
          n=1  nzeta=2  polorb=1
            splnorm:   0.15000    
               vcte:    0.0000    
               rinn:    0.0000    
                rcs:    0.0000      0.0000    
            lambdas:    1.0000      1.0000    
-------------------------------------------------------------------------------
L=0  Nkbl=1  erefs: 0.17977+309
L=1  Nkbl=1  erefs: 0.17977+309
L=2  Nkbl=1  erefs: 0.17977+309
L=3  Nkbl=1  erefs: 0.17977+309
===============================================================================
</basis_specs>

atom: Called for C                     (Z =   6)

read_vps: Pseudopotential generation method:
read_vps: ATM3      Troullier-Martins                       
Total valence charge:    4.00000

read_vps: Pseudopotential includes a core correction:
read_vps: Pseudo-core for xc-correction

xc_check: Exchange-correlation functional:
xc_check: GGA Perdew, Burke & Ernzerhof 1996
V l=0 = -2*Zval/r beyond r=  1.5227
V l=1 = -2*Zval/r beyond r=  1.5227
V l=2 = -2*Zval/r beyond r=  1.5227
V l=3 = -2*Zval/r beyond r=  1.5038
All V_l potentials equal beyond r=  1.5227
This should be close to max(r_c) in ps generation
All pots = -2*Zval/r beyond r=  1.5227

VLOCAL1: 99.0% of the norm of Vloc inside     18.722 Ry
VLOCAL1: 99.9% of the norm of Vloc inside     42.668 Ry
atom: Maximum radius for 4*pi*r*r*local-pseudopot. charge    1.83678
atom: Maximum radius for r*vlocal+2*Zval:    1.58088
GHOST: No ghost state for L =  0
GHOST: No ghost state for L =  1
GHOST: No ghost state for L =  2
GHOST: No ghost state for L =  3

KBgen: Kleinman-Bylander projectors: 
   l= 0   rc=  1.704034   el= -1.009801   Ekb=  5.335044   kbcos=  0.316824
   l= 1   rc=  1.704034   el= -0.388707   Ekb= -3.785862   kbcos= -0.366464
   l= 2   rc=  1.791422   el=  0.001971   Ekb= -0.970471   kbcos= -0.009212
   l= 3   rc=  1.859892   el=  0.003065   Ekb= -0.399525   kbcos= -0.001223

KBgen: Total number of  Kleinman-Bylander projectors:   16
atom: -------------------------------------------------------------------------

atom: SANKEY-TYPE ORBITALS:
atom: Selected multiple-zeta basis: split     

SPLIT: Orbitals with angular momentum L= 0

SPLIT: Basis orbitals for state 2s

SPLIT: PAO cut-off radius determined from an
SPLIT: energy shift=  0.007350 Ry

   izeta = 1
                 lambda =    1.000000
                     rc =    4.632753
                 energy =   -1.002270
                kinetic =    0.855760
    potential(screened) =   -1.858031
       potential(ionic) =   -5.417575

   izeta = 2
                 rmatch =    3.431921
              splitnorm =    0.150000
                 energy =   -0.867111
                kinetic =    1.300804
    potential(screened) =   -2.167915
       potential(ionic) =   -5.962684

SPLIT: Orbitals with angular momentum L= 1

SPLIT: Basis orbitals for state 2p

SPLIT: PAO cut-off radius determined from an
SPLIT: energy shift=  0.007350 Ry

   izeta = 1
                 lambda =    1.000000
                     rc =    5.658549
                 energy =   -0.381140
                kinetic =    2.399701
    potential(screened) =   -2.780841
       potential(ionic) =   -6.206085

   izeta = 2
                 rmatch =    3.653288
              splitnorm =    0.150000
                 energy =   -0.249149
                kinetic =    3.542762
    potential(screened) =   -3.791911
       potential(ionic) =   -7.581078

POLgen: Perturbative polarization orbital with L=  2

POLgen: Polarization orbital for state 2p

   izeta = 1
                     rc =    5.658549
                 energy =    1.109913
                kinetic =    2.304789
    potential(screened) =   -1.194876
       potential(ionic) =   -4.013592
atom: Total number of Sankey-type orbitals: 13

atm_pop: Valence configuration (for local Pseudopot. screening):
 2s( 2.00)                                                            
 2p( 2.00)                                                            
Vna: chval, zval:    4.00000   4.00000

Vna:  Cut-off radius for the neutral-atom potential:   5.658549
comcore: Pseudo-core radius Rcore=  1.791422

atom: _________________________________________________________________________

prinput: Basis input ----------------------------------------------------------

PAO.BasisType split     

%block ChemicalSpeciesLabel
    1    7 N                       # Species index, atomic number, species label
    2    6 C                       # Species index, atomic number, species label
%endblock ChemicalSpeciesLabel

%block PAO.Basis                 # Define Basis set
N                     2                    # Species label, number of l-shells
 n=2   0   2                         # n, l, Nzeta 
   4.071      2.905   
   1.000      1.000   
 n=2   1   2 P   1                   # n, l, Nzeta, Polarization, NzetaPol
   4.973      3.054   
   1.000      1.000   
C                     2                    # Species label, number of l-shells
 n=2   0   2                         # n, l, Nzeta 
   4.633      3.432   
   1.000      1.000   
 n=2   1   2 P   1                   # n, l, Nzeta, Polarization, NzetaPol
   5.659      3.653   
   1.000      1.000   
%endblock PAO.Basis

prinput: ----------------------------------------------------------------------

coor:   Atomic-coordinates input format  =     Fractional

siesta: Atomic coordinates (Bohr) and species
siesta:     -2.35420  38.89134   0.00000  1        1
siesta:      4.63094  34.85847   0.00000  1        2
siesta:      6.95932  30.82560   0.00000  1        3
siesta:      6.95932  33.51406   0.00000  1        4
siesta:     -4.68258  34.85847   0.00000  1        5
siesta:     -4.68258  37.54693   0.00000  1        6
siesta:     -2.35420  25.44831   0.00000  1        7
siesta:     -9.33934  21.41544   0.00000  1        8
siesta:     -7.01096  22.75985   0.00000  1        9
siesta:     -7.01096  25.44831   0.00000  1       10
siesta:    -11.66772  22.75985   0.00000  1       11
siesta:    -11.66772  25.44831   0.00000  1       12
siesta:     -9.33934  26.79272   0.00000  1       13
siesta:      4.63094  29.48119   0.00000  1       14
siesta:     -0.02582  26.79272   0.00000  1       15
siesta:     -0.02582  29.48119   0.00000  1       16
siesta:     -4.68258  26.79272   0.00000  1       17
siesta:     -4.68258  29.48119   0.00000  1       18
siesta:      2.30256  30.82560   0.00000  1       19
siesta:      2.30256  33.51406   0.00000  1       20
siesta:     -2.35420  30.82560   0.00000  1       21
siesta:     -2.35420  33.51406   0.00000  1       22
siesta:     -0.02582  34.85847   0.00000  1       23
siesta:     -0.02582  37.54693   0.00000  1       24
siesta:     -0.02582   2.59549   0.00000  2       25
siesta:     -0.02582   5.28395   0.00000  2       26
siesta:     -2.35420  41.57980   0.00000  2       27
siesta:      2.30256  38.89134   0.00000  2       28
siesta:      2.30256  41.57980   0.00000  2       29
siesta:      4.63094  37.54693   0.00000  2       30
siesta:      9.28770  26.79272   0.00000  2       31
siesta:      9.28770  29.48119   0.00000  2       32
siesta:      2.30256   6.62836   0.00000  2       33
siesta:      2.30256   9.31683   0.00000  2       34
siesta:      4.63094  10.66124   0.00000  2       35
siesta:      4.63094  13.34970   0.00000  2       36
siesta:      6.95932  14.69411   0.00000  2       37
siesta:      6.95932  17.38257   0.00000  2       38
siesta:      9.28770  18.72698   0.00000  2       39
siesta:      9.28770  21.41544   0.00000  2       40
siesta:     11.61608  22.75985   0.00000  2       41
siesta:     11.61608  25.44831   0.00000  2       42
siesta:     -2.35420   6.62836   0.00000  2       43
siesta:     -2.35420   9.31683   0.00000  2       44
siesta:     -0.02582  10.66124   0.00000  2       45
siesta:     -0.02582  13.34970   0.00000  2       46
siesta:      2.30256  14.69411   0.00000  2       47
siesta:      2.30256  17.38257   0.00000  2       48
siesta:      4.63094  18.72698   0.00000  2       49
siesta:      4.63094  21.41544   0.00000  2       50
siesta:      6.95932  22.75985   0.00000  2       51
siesta:      6.95932  25.44831   0.00000  2       52
siesta:     -4.68258  10.66124   0.00000  2       53
siesta:     -4.68258  13.34970   0.00000  2       54
siesta:     -2.35420  14.69411   0.00000  2       55
siesta:     -2.35420  17.38257   0.00000  2       56
siesta:     -0.02582  18.72698   0.00000  2       57
siesta:     -0.02582  21.41544   0.00000  2       58
siesta:      2.30256  22.75985   0.00000  2       59
siesta:      2.30256  25.44831   0.00000  2       60
siesta:     -7.01096  14.69411   0.00000  2       61
siesta:     -7.01096  17.38257   0.00000  2       62
siesta:     -4.68258  18.72698   0.00000  2       63
siesta:     -4.68258  21.41544   0.00000  2       64
siesta:     -2.35420  22.75985   0.00000  2       65
siesta:     -9.33934  18.72698   0.00000  2       66
siesta:     -9.33934  29.48119   0.00000  2       67
siesta:      4.63094  26.79272   0.00000  2       68
siesta:     -7.01096  30.82560   0.00000  2       69
siesta:     -7.01096  33.51406   0.00000  2       70
siesta:     -0.02582  42.92421   0.00000  2       71
siesta:     -0.02582  45.61267   0.00000  2       72

siesta: System type = slab      

initatomlists: Number of atoms, orbitals, and projectors:     72   936  1152

siesta: ******************** Simulation parameters ****************************
siesta:
siesta: The following are some of the parameters of the simulation.
siesta: A complete list of the parameters used, including default values,
siesta: can be found in file out.fdf
siesta:
redata: Non-Collinear-spin run           =     F
redata: SpinPolarized (Up/Down) run      =     F
redata: Number of spin components        =     1
redata: Long output                      =     F
redata: Number of Atomic Species         =        2
redata: Charge density info will appear in .RHO file
redata: Write Mulliken Pop.              =     NO
redata: Mesh Cutoff                      =   200.0000  Ry
redata: Net charge of the system         =     0.0000 |e|
redata: Max. number of SCF Iter          =      500
redata: SCF convergence failure will abort job
redata: Performing Pulay mixing using    =    10 iterations
redata: Mix DM in first SCF step ?       =     F
redata: Write Pulay info on disk?        =     F
redata: Discard 1st Pulay DM after  kick =     F
redata: New DM Mixing Weight             =     0.0500
redata: New DM Occupancy tolerance       = 0.000000000001
redata: No kicks to SCF
redata: DM Mixing Weight for Kicks       =     0.5000
redata: DM Tolerance for SCF             =     0.000100
redata: Require Energy convergence for SCF =     F
redata: DM Energy tolerance for SCF      =     0.000100 eV
redata: Require Harris convergence for SCF =     F
redata: DM Harris energy tolerance for SCF =     0.000100 eV
redata: Using Saved Data (generic)   =     F
redata: Use continuation files for DM    =     T
redata: Neglect nonoverlap interactions  =     F
redata: Method of Calculation            =     Diagonalization
redata: Divide and Conquer               =     T
redata: Electronic Temperature           =     0.0019  Ry
redata: Fix the spin of the system       =     F
redata: Dynamics option                  =     Verlet MD run
redata: Initial MD time step             =        1
redata:   Final MD time step             =        1
redata: Length of MD time step           =     1.0000  fs
redata: Initial Temperature of MD run    =     0.0000  K
redata: Perform a MD quench              =     F
redata: ***********************************************************************
Total number of electrons:   312.000000
Total ionic charge:   312.000000

* ProcessorY, Blocksize:    2  24

k-point displ. along   1 input, could be:     0.50    0.00
k-point displ. along   2 input, could be:     0.50    0.00
 Kpoints in:          231 . Kpoints trimmed:          231

siesta: k-grid: Number of k-points =   231
siesta: k-grid: Cutoff (effective) =     5.000 Ang
siesta: k-grid: Supercell and displacements
siesta: k-grid:   21   0   0      0.500
siesta: k-grid:    0  21   0      0.500
siesta: k-grid:    0   0   1      0.000
Naive supercell factors:     2    2    2

superc: Internal auxiliary supercell:     2 x     2 x     2  =       8
superc: Number of atoms, orbitals, and projectors:    576   7488   9216

* Maximum dynamic memory allocated =     4 MB

siesta:                 ==============================
                            Begin MD step =      1
                        ==============================

superc: Internal auxiliary supercell:     2 x     2 x     2  =       8
superc: Number of atoms, orbitals, and projectors:    576   7488   9216

outcell: Unit cell vectors (Ang):
       12.804619    7.392750    0.000000
        0.000000   14.785500    0.000000
        0.000000    0.000000   10.000000

outcell: Cell vector modules (Ang)   :   14.785500   14.785500   10.000000
outcell: Cell angles (23,13,12) (deg):     90.0000     90.0000     60.0000
outcell: Cell volume (Ang**3)        :   1893.2269
New_DM. Step:     1
Initializing Density Matrix...

InitMesh: MESH =   120 x   120 x    90 =     1296000
InitMesh: Mesh cutoff (required, used) =   200.000   223.865 Ry

* Maximum dynamic memory allocated =   178 MB

stepf: Fermi-Dirac step function

siesta: Program's energy decomposition (eV):
siesta: Ebs     =     -6350.359955
siesta: Eions   =     22260.935331
siesta: Ena     =      4976.713556
siesta: Ekin    =      8392.322035
siesta: Enl     =       -61.350186
siesta: DEna    =        -0.000015
siesta: DUscf   =         0.000000
siesta: DUext   =         0.000000
siesta: Exc     =     -4774.117292
siesta: eta*DQ  =         0.000000
siesta: Emadel  =         0.000000
siesta: Emeta   =         0.000000
siesta: Emolmec =         0.000000
siesta: Ekinion =         0.000000
siesta: Eharris =    -13352.578086
siesta: Etot    =    -13727.367233
siesta: FreeEng =    -13727.367233

siesta: iscf   Eharris(eV)      E_KS(eV)   FreeEng(eV)   dDmax  Ef(eV)
siesta:    1   -13352.5781   -13727.3672   -13727.3672  5.4926 -6.7812
timer: Routine,Calls,Time,% = IterSCF        1    3381.651  99.70
elaps: Routine,Calls,Wall,% = IterSCF        1     423.516  99.70
siesta:    2   -17926.4249   -12688.2726   -12688.2965 17.3429 -3.8426
siesta:    3   -13264.3254   -13525.9768   -13525.9773  2.3003 -4.9847
siesta:    4   -13237.1142   -13373.3785   -13373.4122  1.0749 -4.0003
siesta:    5   -13202.1579   -13316.6655   -13316.7258  0.8320 -3.7441
siesta:    6   -13191.5395   -13279.3354   -13279.3648  0.8457 -3.6027
siesta:    7   -13185.6666   -13269.2504   -13269.2654  0.8099 -3.7679
siesta:    8   -13183.1039   -13253.7905   -13253.8272  0.7392 -3.7867
siesta:    9   -13181.4943   -13231.1232   -13231.1517  0.5764 -3.8266
siesta:   10   -13182.5666   -13207.5092   -13207.5680  0.4748 -3.7784
siesta:   11   -13182.0271   -13195.1961   -13195.2696  0.3865 -3.7789
siesta:   12   -13181.9494   -13176.4157   -13176.4935  0.2839 -3.7318
siesta:   13   -13181.6445   -13172.2003   -13172.2639  0.1805 -3.7829
siesta:   14   -13181.0677   -13172.2680   -13172.3433  0.1265 -3.7899
siesta:   15   -13180.5455   -13170.5850   -13170.6549  0.1287 -3.8142
siesta:   16   -13180.3573   -13170.5394   -13170.6155  0.1049 -3.8069
siesta:   17   -13180.2170   -13169.9088   -13169.9860  0.0948 -3.7933
siesta:   18   -13180.1955   -13170.9409   -13171.0243  0.0786 -3.7822
siesta:   19   -13180.1555   -13171.6950   -13171.7709  0.0704 -3.7803
siesta:   20   -13180.1666   -13174.9376   -13175.0192  0.0472 -3.7802
siesta:   21   -13180.1540   -13178.6038   -13178.6775  0.0367 -3.8008
siesta:   22   -13180.1488   -13179.3499   -13179.4271  0.0180 -3.8000
siesta:   23   -13180.1420   -13179.4246   -13179.5027  0.0137 -3.7985
siesta:   24   -13180.1373   -13179.3770   -13179.4568  0.0123 -3.7967
siesta:   25   -13180.1365   -13180.0220   -13180.1040  0.0079 -3.7914
siesta:   26   -13180.1359   -13180.1988   -13180.2796  0.0046 -3.7910
siesta:   27   -13180.1362   -13180.2766   -13180.3579  0.0034 -3.7911
siesta:   28   -13180.1358   -13180.2119   -13180.2926  0.0022 -3.7919
siesta:   29   -13180.1358   -13180.1697   -13180.2505  0.0016 -3.7923
siesta:   30   -13180.1356   -13180.1629   -13180.2437  0.0011 -3.7924
siesta:   31   -13180.1356   -13180.1641   -13180.2451  0.0011 -3.7925
siesta:   32   -13180.1357   -13180.1512   -13180.2321  0.0007 -3.7926
siesta:   33   -13180.1356   -13180.1559   -13180.2368  0.0006 -3.7928
siesta:   34   -13180.1356   -13180.1650   -13180.2459  0.0006 -3.7928
siesta:   35   -13180.1356   -13180.1553   -13180.2362  0.0003 -3.7928
siesta:   36   -13180.1356   -13180.1466   -13180.2276  0.0002 -3.7927
siesta:   37   -13180.1356   -13180.1475   -13180.2284  0.0001 -3.7927
siesta:   38   -13180.1356   -13180.1439   -13180.2248  0.0001 -3.7927

siesta: E_KS(eV) =           -13180.1429

siesta: E_KS - E_eggbox =    -13180.1429

siesta: Atomic forces (eV/Ang):
----------------------------------------
   Tot   -0.200394   -0.283073    0.000000
----------------------------------------
   Max  691.697858
   Res  179.816023    sqrt( Sum f_i^2 / 3N )
----------------------------------------
   Max  691.697858    constrained

Stress-tensor-Voigt (kbar):     -689.49    -3222.83       -0.01       -8.13        0.00        0.00
(Free)E + p*V (eV/cell)   -11639.2266
Target enthalpy (eV/cell)   -13180.2238

siesta: Stress tensor (static) (eV/Ang**3):
        -0.430339   -0.005074    0.000000
        -0.005074   -2.011511    0.000000
         0.000000    0.000000   -0.000008

siesta: Pressure (static):       1304.11018142  kBar

siesta: Stress tensor (total) (eV/Ang**3):
        -0.430339   -0.005074    0.000000
        -0.005074   -2.011511    0.000000
         0.000000    0.000000   -0.000008

siesta: Pressure (total):       1304.11018142  kBar

siesta: Temp_ion =       0.000 K

* Maximum dynamic memory allocated =   194 MB
Computing bands...

siesta: Program's energy decomposition (eV):
siesta: Ebs     =     -5085.438052
siesta: Eions   =     22260.935331
siesta: Ena     =      4976.713556
siesta: Ekin    =     11515.775931
siesta: Enl     =     -1756.275006
siesta: DEna    =      -816.091132
siesta: DUscf   =       114.700421
siesta: DUext   =         0.000000
siesta: Exc     =     -4954.031337
siesta: eta*DQ  =         0.000000
siesta: Emadel  =         0.000000
siesta: Emeta   =         0.000000
siesta: Emolmec =         0.000000
siesta: Ekinion =         0.000000
siesta: Eharris =    -13180.135633
siesta: Etot    =    -13180.142898
siesta: FreeEng =    -13180.223826

siesta: Final energy (eV):
siesta:  Band Struct. =   -5085.438052
siesta:       Kinetic =   11515.775931
siesta:       Hartree =   37163.771140
siesta:    Ext. field =       0.000000
siesta:   Exch.-corr. =   -4954.031337
siesta:  Ion-electron =  -85289.792269
siesta:       Ion-ion =   28384.133637
siesta:       Ekinion =       0.000000
siesta:         Total =  -13180.142898

siesta: Atomic forces (eV/Ang):
siesta:      1    4.829217  125.981281    0.000000
siesta:      2   30.641705   11.539819    0.000000
siesta:      3    3.179397    0.550643    0.000000
siesta:      4    0.598946   -3.183160    0.000000
siesta:      5  -33.635077    4.381560    0.000000
siesta:      6  -25.254316 -654.392487    0.000000
siesta:      7   -2.338868   -2.034588    0.000000
siesta:      8   -0.922606   -2.258336    0.000000
siesta:      9    1.033318    0.433830    0.000000
siesta:     10    0.859577   -1.701571    0.000000
siesta:     11    1.352651    2.887475    0.000000
siesta:     12    1.449075   -3.371790    0.000000
siesta:     13   -0.521262    3.368716    0.000000
siesta:     14    0.637960   -3.215146    0.000000
siesta:     15    0.506490    5.728582    0.000000
siesta:     16    0.411950 -691.697858    0.000000
siesta:     17    0.680576    0.238996    0.000000
siesta:     18   -1.521004   -2.660193    0.000000
siesta:     19   32.057835   11.577766    0.000000
siesta:     20    2.694664 -682.991484    0.000000
siesta:     21  -30.971538   11.985137    0.000000
siesta:     22   -3.449384 -678.654073    0.000000
siesta:     23    1.575042  105.132572    0.000000
siesta:     24    2.898650 -661.924553    0.000000
siesta:     25   -0.004184  636.266440    0.000000
siesta:     26   -0.481461 -115.317142    0.000000
siesta:     27   -3.014523 -543.718921    0.000000
siesta:     28    2.098213  127.691286    0.000000
siesta:     29   16.027657 -546.544144    0.000000
siesta:     30   23.229188 -548.360918    0.000000
siesta:     31    0.956204    2.350348    0.000000
siesta:     32   -1.841081    2.394693    0.000000
siesta:     33   17.568064  658.256858    0.000000
siesta:     34   -3.271563 -114.178527    0.000000
siesta:     35   34.695679  551.196940    0.000000
siesta:     36   27.311678   -3.745086    0.000000
siesta:     37   -2.793608   -2.363264    0.000000
siesta:     38    1.936568    0.542606    0.000000
siesta:     39   -1.567504    0.215236    0.000000
siesta:     40    1.924782   -2.350156    0.000000
siesta:     41    0.022927    7.590065    0.000000
siesta:     42   -0.222416   -6.973378    0.000000
siesta:     43  -19.646712  655.839407    0.000000
siesta:     44    2.015270 -113.726563    0.000000
siesta:     45  -14.878645  668.291302    0.000000
siesta:     46   -3.750823 -119.799957    0.000000
siesta:     47   24.871483  556.489164    0.000000
siesta:     48   22.009084   -6.354198    0.000000
siesta:     49   -1.051085    2.198871    0.000000
siesta:     50    0.677555   -0.301023    0.000000
siesta:     51   -0.565338    0.561745    0.000000
siesta:     52   -0.078632   -0.851894    0.000000
siesta:     53  -27.612294  655.880330    0.000000
siesta:     54  -28.177650   -3.229845    0.000000
siesta:     55  -25.867434  559.573055    0.000000
siesta:     56  -23.202455   -4.381715    0.000000
siesta:     57   -1.279564  565.071902    0.000000
siesta:     58    0.392764    1.431971    0.000000
siesta:     59   -0.876469    0.117576    0.000000
siesta:     60    0.639510   -0.067024    0.000000
siesta:     61    1.661086   -0.625631    0.000000
siesta:     62   -0.705145    0.128697    0.000000
siesta:     63    1.453058    2.743785    0.000000
siesta:     64   -0.780903    0.944747    0.000000
siesta:     65   -0.873457    0.606980    0.000000
siesta:     66   -1.002542    2.485289    0.000000
siesta:     67   -1.109334   -2.583788    0.000000
siesta:     68   -0.661822    1.219208    0.000000
siesta:     69   -0.428810    0.670219    0.000000
siesta:     70    1.943393   -0.374579    0.000000
siesta:     71   -2.989966  126.886265    0.000000
siesta:     72    0.307866 -547.801441    0.000000
siesta: ----------------------------------------
siesta:    Tot   -0.200394   -0.283073    0.000000

siesta: Stress tensor (static) (eV/Ang**3):
siesta:    -0.430339   -0.005074    0.000000
siesta:    -0.005074   -2.011511    0.000000
siesta:     0.000000    0.000000   -0.000008

siesta: Cell volume =       1893.226884 Ang**3

siesta: Pressure (static):
siesta:                Solid            Molecule  Units
siesta:           0.00886498          0.14258318  Ry/Bohr**3
siesta:           0.81395276         13.09150244  eV/Ang**3
siesta:        1304.11018142      20975.12602970  kBar
(Free)E+ p_basis*V_orbitals  =      -13152.917335
(Free)Eharris+ p_basis*V_orbitals  =      -13152.909116

siesta: Electric dipole (a.u.)  =    0.000000    0.000000    0.000000
siesta: Electric dipole (Debye) =    0.000000    0.000000    0.000000

* Maximum dynamic memory allocated : Node    0 =   194 MB
* Maximum dynamic memory allocated : Node    1 =    70 MB
* Maximum dynamic memory allocated : Node    2 =    73 MB
* Maximum dynamic memory allocated : Node    3 =   183 MB
* Maximum dynamic memory allocated : Node    4 =   187 MB
* Maximum dynamic memory allocated : Node    5 =    70 MB
* Maximum dynamic memory allocated : Node    6 =    72 MB
* Maximum dynamic memory allocated : Node    7 =   175 MB

* Maximum memory occured during matrixMtoO                    

timer: CPU execution times:
timer:  Routine       Calls   Time/call    Tot.time        %
timer:  siesta            1  127522.155  127522.155   100.00
timer:  Setup             1       2.694       2.694     0.00
timer:  bands             3     243.636     730.908     0.57
timer:  writewave         1       0.022       0.022     0.00
timer:  KSV_init          1       0.000       0.000     0.00
timer:  IterMD            1  126783.297  126783.297    99.42
timer:  hsparse           1       0.281       0.281     0.00
timer:  overlap           1       7.128       7.128     0.01
timer:  IterSCF          38    3332.680  126641.844    99.31
timer:  kinefsm           2       3.668       7.337     0.01
timer:  nlefsm            2      17.150      34.301     0.03
timer:  DHSCF            39      71.340    2782.272     2.18
timer:  DHSCF1            1       0.744       0.744     0.00
timer:  DHSCF2            1      29.547      29.547     0.02
timer:  REORD           314       0.005       1.581     0.00
timer:  POISON           40       0.870      34.808     0.03
timer:  DHSCF3           39      69.841    2723.814     2.14
timer:  rhoofd           39      15.233     594.082     0.47
timer:  cellXC           39       3.260     127.151     0.10
timer:  vmat             39      31.661    1234.789     0.97
timer:  MolMec            2       0.000       0.001     0.00
timer:  diagon           38    3260.509  123899.332    97.16
timer:  c-eigval       8899       6.022   53589.214    42.02
timer:  c-buildHS      8899       0.047     413.896     0.32
timer:  cdiag         17677       6.167  109008.647    85.48
timer:  cdiag1        17677       0.385    6799.044     5.33
timer:  cdiag2        17677       1.769   31270.610    24.52
timer:  cdiag3        17677       3.729   65914.042    51.69
timer:  cdiag4        17677       0.154    2722.347     2.13
timer:  c-eigvec       8778       6.398   56165.174    44.04
timer:  c-buildD       8778       1.690   14831.548    11.63
timer:  DHSCF4            1      27.376      27.376     0.02
timer:  dfscf             1      25.531      25.531     0.02
timer:  overfsm           1       0.376       0.376     0.00
timer:  optical           1       4.589       4.589     0.00
  

elaps: ELAPSED times:
elaps:  Routine       Calls   Time/call    Tot.time        %
elaps:  siesta            1   15970.255   15970.255   100.00
elaps:  Setup             1       0.338       0.338     0.00
elaps:  bands             3      30.528      91.585     0.57
elaps:  writewave         1       0.002       0.002     0.00
elaps:  KSV_init          1       0.000       0.000     0.00
elaps:  IterMD            1   15877.724   15877.724    99.42
elaps:  hsparse           1       0.036       0.036     0.00
elaps:  overlap           1       0.895       0.895     0.01
elaps:  IterSCF          38     417.369   15860.010    99.31
elaps:  kinefsm           2       0.462       0.925     0.01
elaps:  nlefsm            2       2.152       4.303     0.03
elaps:  DHSCF            39       9.022     351.863     2.20
elaps:  DHSCF1            1       0.095       0.095     0.00
elaps:  DHSCF2            1       3.700       3.700     0.02
elaps:  REORD           314       0.001       0.209     0.00
elaps:  POISON           40       0.110       4.416     0.03
elaps:  DHSCF3           39       8.747     341.145     2.14
elaps:  rhoofd           39       4.240     165.361     1.04
elaps:  cellXC           39       0.408      15.907     0.10
elaps:  vmat             39       3.966     154.658     0.97
elaps:  MolMec            2       0.000       0.000     0.00
elaps:  diagon           38     408.339   15516.891    97.16
elaps:  c-eigval       8899       0.754    6711.219    42.02
elaps:  c-buildHS      8899       0.006      57.169     0.36
elaps:  cdiag         17677       0.767   13555.836    84.88
elaps:  cdiag1        17677       0.048     846.515     5.30
elaps:  cdiag2        17677       0.222    3916.961    24.53
elaps:  cdiag3        17677       0.468    8265.599    51.76
elaps:  cdiag4        17677       0.019     338.657     2.12
elaps:  c-eigvec       8778       0.792    6951.179    43.53
elaps:  c-buildD       8778       0.221    1939.854    12.15
elaps:  DHSCF4            1       6.829       6.829     0.04
elaps:  dfscf             1       6.442       6.442     0.04
elaps:  overfsm           1       0.050       0.050     0.00
elaps:  optical           1       0.000       0.000     0.00
  
>> End of run:  24-APR-2016   1:18:45
