Siesta Version:                                        siesta-3.2-pl-3
Architecture  : x86_64-unknown-linux-gnu--unknown
Compiler flags: mpiifort -g -O2 -fPIC -xSSE4.1 -fp-model source -shared-intel 
PARALLEL version

* Running on   12 nodes in parallel
>> Start of run:   2-MAY-2016  23:41:24

                           ***********************       
                           *  WELCOME TO SIESTA  *       
                           ***********************       

reinit: Reading from standard input
************************** Dump of input data file ****************************
#(1) General system descriptors
SystemName            GRP_doping    # Descriptive name of the system
SystemLabel           GRP_doping    # Short name for naming files
%include STRUCT.fdf
%include KPT.fdf
%include BASIS.fdf
#%include TS.fdf # for transiesta calculation
#(4) DFT, Grid, SCF
XC.functional         GGA           # LDA or GGA (default = LDA)
XC.authors            PBE           # CA (Ceperley-Aldr) = PZ
                                    #    (Perdew-Zunger) - LDA - Default
                                    # PW92 (Perdew-Wang-92) - LDA
                                    # PBE (Perdew-Burke-Ernzerhof) - GGA
MeshCutoff            200.000000    Ry      # Default: 50.0 Ry ~ 0.444 Bohr
                                    #         100.0 Ry ~ 0.314 Bohr
MaxSCFIterations      500           # Default: 50
DM.MixingWeight       0.05          # Default: 0.25
DM.NumberPulay        10            # Default: 0
DM.PulayOnFile        F             # SystemLabel.P1, SystemLabel.P2
DM.Tolerance          1.d-4         # Default: 1.d-4
DM.UseSaveDM          .true.        # because of the bug
SCFMustConverge       .true.
NeglNonOverlapInt     F             # Default: F
#(5) Eigenvalue problem: order-N or diagonalization
SolutionMethod        Diagon        # or Transiesta
ElectronicTemperature 300.0 K       # Default: 300.0 K
#(6) Molecular dynamics and relaxations
#MD.TypeOfRun          CG            # Type of dynamics:
#MD.VariableCell       F
#MD.NumCGsteps         0           # 0 for single-point / 100 for gopt
#MD.MaxCGDispl         0.2 Bohr      # Default: 0.2 Bohr
#MD.MaxForceTol        0.02 eV/Ang   # Default: 0.04 eV/Ang
#MD.MaxStressTol       1.0 GPa       # Default: 1.0 GPa
# Geometry Constraints
#%block GeometryConstraints
#	position from 1 to 44
#%endblock GeometryConstraints
BandLinesScale   pi/a
%block BandLines
 1   0.00000000  0.00000000  0.00000000
50   0.00000000  0.07809418  0.00000000
50   0.04509075  0.07809242  0.00000000
20   0.00000000  0.00000000  0.00000000
%endblock BandLines
************************** End of input data file *****************************

reinit: -----------------------------------------------------------------------
reinit: System Name: GRP_doping
reinit: -----------------------------------------------------------------------
reinit: System Label: GRP_doping                                                  
reinit: -----------------------------------------------------------------------

initatom: Reading input for the pseudopotentials and atomic orbitals ----------
 Species number:            1  Label: B Atomic number:           5
 Species number:            2  Label: C Atomic number:           6
Ground state valence configuration:   2s02  2p01
Reading pseudopotential information in formatted form from B.psf

Valence configuration for pseudopotential generation:
2s( 2.00) rc: 1.74
2p( 1.00) rc: 1.74
3d( 0.00) rc: 1.74
4f( 0.00) rc: 1.74
Ground state valence configuration:   2s02  2p02
Reading pseudopotential information in formatted form from C.psf

Valence configuration for pseudopotential generation:
2s( 2.00) rc: 1.54
2p( 2.00) rc: 1.54
3d( 0.00) rc: 1.54
4f( 0.00) rc: 1.54
For B, standard SIESTA heuristics set lmxkb to 3
 (one more than the basis l, including polarization orbitals).
Use PS.lmax or PS.KBprojectors blocks to override.
For C, standard SIESTA heuristics set lmxkb to 3
 (one more than the basis l, including polarization orbitals).
Use PS.lmax or PS.KBprojectors blocks to override.

<basis_specs>
===============================================================================
B                    Z=   5    Mass=  10.810        Charge= 0.17977+309
Lmxo=1 Lmxkb= 3    BasisType=split      Semic=F
L=0  Nsemic=0  Cnfigmx=2
          n=1  nzeta=2  polorb=0
            splnorm:   0.15000    
               vcte:    0.0000    
               rinn:    0.0000    
                rcs:    0.0000      0.0000    
            lambdas:    1.0000      1.0000    
L=1  Nsemic=0  Cnfigmx=2
          n=1  nzeta=2  polorb=1
            splnorm:   0.15000    
               vcte:    0.0000    
               rinn:    0.0000    
                rcs:    0.0000      0.0000    
            lambdas:    1.0000      1.0000    
-------------------------------------------------------------------------------
L=0  Nkbl=1  erefs: 0.17977+309
L=1  Nkbl=1  erefs: 0.17977+309
L=2  Nkbl=1  erefs: 0.17977+309
L=3  Nkbl=1  erefs: 0.17977+309
===============================================================================
</basis_specs>

atom: Called for B                     (Z =   5)

read_vps: Pseudopotential generation method:
read_vps: ATM3      Troullier-Martins                       
Total valence charge:    3.00000

read_vps: Pseudopotential includes a core correction:
read_vps: Pseudo-core for xc-correction

xc_check: Exchange-correlation functional:
xc_check: GGA Perdew, Burke & Ernzerhof 1996
V l=0 = -2*Zval/r beyond r=  1.7165
V l=1 = -2*Zval/r beyond r=  1.7165
V l=2 = -2*Zval/r beyond r=  1.7165
V l=3 = -2*Zval/r beyond r=  1.6951
All V_l potentials equal beyond r=  1.7165
This should be close to max(r_c) in ps generation
All pots = -2*Zval/r beyond r=  1.7165

VLOCAL1: 99.0% of the norm of Vloc inside     14.733 Ry
VLOCAL1: 99.9% of the norm of Vloc inside     33.577 Ry
atom: Maximum radius for 4*pi*r*r*local-pseudopot. charge    2.04484
atom: Maximum radius for r*vlocal+2*Zval:    1.75994
GHOST: No ghost state for L =  0
GHOST: No ghost state for L =  1
GHOST: No ghost state for L =  2
GHOST: No ghost state for L =  3

KBgen: Kleinman-Bylander projectors: 
   l= 0   rc=  1.897051   el= -0.693730   Ekb=  4.595746   kbcos=  0.286105
   l= 1   rc=  1.920920   el= -0.265236   Ekb= -2.350715   kbcos= -0.315747
   l= 2   rc=  2.044840   el=  0.002055   Ekb= -0.690767   kbcos= -0.013822
   l= 3   rc=  2.149707   el=  0.003188   Ekb= -0.315358   kbcos= -0.002055

KBgen: Total number of  Kleinman-Bylander projectors:   16
atom: -------------------------------------------------------------------------

atom: SANKEY-TYPE ORBITALS:
atom: Selected multiple-zeta basis: split     

SPLIT: Orbitals with angular momentum L= 0

SPLIT: Basis orbitals for state 2s

SPLIT: PAO cut-off radius determined from an
SPLIT: energy shift=  0.007350 Ry

   izeta = 1
                 lambda =    1.000000
                     rc =    5.422032
                 energy =   -0.686029
                kinetic =    0.576707
    potential(screened) =   -1.262736
       potential(ionic) =   -3.271094

   izeta = 2
                 rmatch =    4.222573
              splitnorm =    0.150000
                 energy =   -0.602132
                kinetic =    0.858975
    potential(screened) =   -1.461107
       potential(ionic) =   -3.582536

SPLIT: Orbitals with angular momentum L= 1

SPLIT: Basis orbitals for state 2p

SPLIT: PAO cut-off radius determined from an
SPLIT: energy shift=  0.007350 Ry

   izeta = 1
                 lambda =    1.000000
                     rc =    6.790259
                 energy =   -0.258578
                kinetic =    1.481412
    potential(screened) =   -1.739989
       potential(ionic) =   -3.657461

   izeta = 2
                 rmatch =    4.608740
              splitnorm =    0.150000
                 energy =   -0.173757
                kinetic =    2.186690
    potential(screened) =   -2.360447
       potential(ionic) =   -4.464260

POLgen: Perturbative polarization orbital with L=  2

POLgen: Polarization orbital for state 2p

   izeta = 1
                     rc =    6.790259
                 energy =    0.684082
                kinetic =    1.471481
    potential(screened) =   -0.787399
       potential(ionic) =   -2.406985
atom: Total number of Sankey-type orbitals: 13

atm_pop: Valence configuration (for local Pseudopot. screening):
 2s( 2.00)                                                            
 2p( 1.00)                                                            
Vna: chval, zval:    3.00000   3.00000

Vna:  Cut-off radius for the neutral-atom potential:   6.790259
comcore: Pseudo-core radius Rcore=  2.122997

atom: _________________________________________________________________________

<basis_specs>
===============================================================================
C                    Z=   6    Mass=  12.010        Charge= 0.17977+309
Lmxo=1 Lmxkb= 3    BasisType=split      Semic=F
L=0  Nsemic=0  Cnfigmx=2
          n=1  nzeta=2  polorb=0
            splnorm:   0.15000    
               vcte:    0.0000    
               rinn:    0.0000    
                rcs:    0.0000      0.0000    
            lambdas:    1.0000      1.0000    
L=1  Nsemic=0  Cnfigmx=2
          n=1  nzeta=2  polorb=1
            splnorm:   0.15000    
               vcte:    0.0000    
               rinn:    0.0000    
                rcs:    0.0000      0.0000    
            lambdas:    1.0000      1.0000    
-------------------------------------------------------------------------------
L=0  Nkbl=1  erefs: 0.17977+309
L=1  Nkbl=1  erefs: 0.17977+309
L=2  Nkbl=1  erefs: 0.17977+309
L=3  Nkbl=1  erefs: 0.17977+309
===============================================================================
</basis_specs>

atom: Called for C                     (Z =   6)

read_vps: Pseudopotential generation method:
read_vps: ATM3      Troullier-Martins                       
Total valence charge:    4.00000

read_vps: Pseudopotential includes a core correction:
read_vps: Pseudo-core for xc-correction

xc_check: Exchange-correlation functional:
xc_check: GGA Perdew, Burke & Ernzerhof 1996
V l=0 = -2*Zval/r beyond r=  1.5227
V l=1 = -2*Zval/r beyond r=  1.5227
V l=2 = -2*Zval/r beyond r=  1.5227
V l=3 = -2*Zval/r beyond r=  1.5038
All V_l potentials equal beyond r=  1.5227
This should be close to max(r_c) in ps generation
All pots = -2*Zval/r beyond r=  1.5227

VLOCAL1: 99.0% of the norm of Vloc inside     18.722 Ry
VLOCAL1: 99.9% of the norm of Vloc inside     42.668 Ry
atom: Maximum radius for 4*pi*r*r*local-pseudopot. charge    1.83678
atom: Maximum radius for r*vlocal+2*Zval:    1.58088
GHOST: No ghost state for L =  0
GHOST: No ghost state for L =  1
GHOST: No ghost state for L =  2
GHOST: No ghost state for L =  3

KBgen: Kleinman-Bylander projectors: 
   l= 0   rc=  1.704034   el= -1.009801   Ekb=  5.335044   kbcos=  0.316824
   l= 1   rc=  1.704034   el= -0.388707   Ekb= -3.785862   kbcos= -0.366464
   l= 2   rc=  1.791422   el=  0.001971   Ekb= -0.970471   kbcos= -0.009212
   l= 3   rc=  1.859892   el=  0.003065   Ekb= -0.399525   kbcos= -0.001223

KBgen: Total number of  Kleinman-Bylander projectors:   16
atom: -------------------------------------------------------------------------

atom: SANKEY-TYPE ORBITALS:
atom: Selected multiple-zeta basis: split     

SPLIT: Orbitals with angular momentum L= 0

SPLIT: Basis orbitals for state 2s

SPLIT: PAO cut-off radius determined from an
SPLIT: energy shift=  0.007350 Ry

   izeta = 1
                 lambda =    1.000000
                     rc =    4.632753
                 energy =   -1.002270
                kinetic =    0.855760
    potential(screened) =   -1.858031
       potential(ionic) =   -5.417575

   izeta = 2
                 rmatch =    3.431921
              splitnorm =    0.150000
                 energy =   -0.867111
                kinetic =    1.300804
    potential(screened) =   -2.167915
       potential(ionic) =   -5.962684

SPLIT: Orbitals with angular momentum L= 1

SPLIT: Basis orbitals for state 2p

SPLIT: PAO cut-off radius determined from an
SPLIT: energy shift=  0.007350 Ry

   izeta = 1
                 lambda =    1.000000
                     rc =    5.658549
                 energy =   -0.381140
                kinetic =    2.399701
    potential(screened) =   -2.780841
       potential(ionic) =   -6.206085

   izeta = 2
                 rmatch =    3.653288
              splitnorm =    0.150000
                 energy =   -0.249149
                kinetic =    3.542762
    potential(screened) =   -3.791911
       potential(ionic) =   -7.581078

POLgen: Perturbative polarization orbital with L=  2

POLgen: Polarization orbital for state 2p

   izeta = 1
                     rc =    5.658549
                 energy =    1.109913
                kinetic =    2.304789
    potential(screened) =   -1.194876
       potential(ionic) =   -4.013592
atom: Total number of Sankey-type orbitals: 13

atm_pop: Valence configuration (for local Pseudopot. screening):
 2s( 2.00)                                                            
 2p( 2.00)                                                            
Vna: chval, zval:    4.00000   4.00000

Vna:  Cut-off radius for the neutral-atom potential:   5.658549
comcore: Pseudo-core radius Rcore=  1.791422

atom: _________________________________________________________________________

prinput: Basis input ----------------------------------------------------------

PAO.BasisType split     

%block ChemicalSpeciesLabel
    1    5 B                       # Species index, atomic number, species label
    2    6 C                       # Species index, atomic number, species label
%endblock ChemicalSpeciesLabel

%block PAO.Basis                 # Define Basis set
B                     2                    # Species label, number of l-shells
 n=2   0   2                         # n, l, Nzeta 
   5.422      4.223   
   1.000      1.000   
 n=2   1   2 P   1                   # n, l, Nzeta, Polarization, NzetaPol
   6.790      4.609   
   1.000      1.000   
C                     2                    # Species label, number of l-shells
 n=2   0   2                         # n, l, Nzeta 
   4.633      3.432   
   1.000      1.000   
 n=2   1   2 P   1                   # n, l, Nzeta, Polarization, NzetaPol
   5.659      3.653   
   1.000      1.000   
%endblock PAO.Basis

prinput: ----------------------------------------------------------------------

coor:   Atomic-coordinates input format  =     Fractional

siesta: Atomic coordinates (Bohr) and species
siesta:      6.95932  17.38257   0.00000  1        1
siesta:     -0.02582  10.66124   0.00000  1        2
siesta:     -0.02582  13.34970   0.00000  1        3
siesta:      4.63094  18.72698   0.00000  1        4
siesta:     -7.01096  25.44831   0.00000  1        5
siesta:    -11.66772  22.75985   0.00000  1        6
siesta:    -11.66772  25.44831   0.00000  1        7
siesta:     -9.33934  26.79272   0.00000  1        8
siesta:     -9.33934  29.48119   0.00000  1        9
siesta:     -4.68258  26.79272   0.00000  1       10
siesta:     -4.68258  29.48119   0.00000  1       11
siesta:     -2.35420  30.82560   0.00000  1       12
siesta:     -2.35420  33.51406   0.00000  1       13
siesta:     -7.01096  30.82560   0.00000  1       14
siesta:     -0.02582  34.85847   0.00000  1       15
siesta:     -0.02582  37.54693   0.00000  1       16
siesta:     -0.02582   2.59549   0.00000  2       17
siesta:     -0.02582   5.28395   0.00000  2       18
siesta:     -2.35420  38.89134   0.00000  2       19
siesta:     -2.35420  41.57980   0.00000  2       20
siesta:      2.30256  38.89134   0.00000  2       21
siesta:      2.30256  41.57980   0.00000  2       22
siesta:      4.63094  34.85847   0.00000  2       23
siesta:      4.63094  37.54693   0.00000  2       24
siesta:      6.95932  30.82560   0.00000  2       25
siesta:      6.95932  33.51406   0.00000  2       26
siesta:      9.28770  26.79272   0.00000  2       27
siesta:      9.28770  29.48119   0.00000  2       28
siesta:     -4.68258  34.85847   0.00000  2       29
siesta:     -4.68258  37.54693   0.00000  2       30
siesta:      2.30256   6.62836   0.00000  2       31
siesta:      2.30256   9.31683   0.00000  2       32
siesta:      4.63094  10.66124   0.00000  2       33
siesta:      4.63094  13.34970   0.00000  2       34
siesta:      6.95932  14.69411   0.00000  2       35
siesta:      9.28770  18.72698   0.00000  2       36
siesta:      9.28770  21.41544   0.00000  2       37
siesta:     11.61608  22.75985   0.00000  2       38
siesta:     11.61608  25.44831   0.00000  2       39
siesta:     -2.35420   6.62836   0.00000  2       40
siesta:     -2.35420   9.31683   0.00000  2       41
siesta:      2.30256  14.69411   0.00000  2       42
siesta:      2.30256  17.38257   0.00000  2       43
siesta:      4.63094  21.41544   0.00000  2       44
siesta:      6.95932  22.75985   0.00000  2       45
siesta:      6.95932  25.44831   0.00000  2       46
siesta:     -4.68258  10.66124   0.00000  2       47
siesta:     -4.68258  13.34970   0.00000  2       48
siesta:     -2.35420  14.69411   0.00000  2       49
siesta:     -2.35420  17.38257   0.00000  2       50
siesta:     -0.02582  18.72698   0.00000  2       51
siesta:     -0.02582  21.41544   0.00000  2       52
siesta:      2.30256  22.75985   0.00000  2       53
siesta:      2.30256  25.44831   0.00000  2       54
siesta:     -7.01096  14.69411   0.00000  2       55
siesta:     -7.01096  17.38257   0.00000  2       56
siesta:     -4.68258  18.72698   0.00000  2       57
siesta:     -4.68258  21.41544   0.00000  2       58
siesta:     -2.35420  22.75985   0.00000  2       59
siesta:     -2.35420  25.44831   0.00000  2       60
siesta:     -9.33934  18.72698   0.00000  2       61
siesta:     -9.33934  21.41544   0.00000  2       62
siesta:     -7.01096  22.75985   0.00000  2       63
siesta:      4.63094  26.79272   0.00000  2       64
siesta:      4.63094  29.48119   0.00000  2       65
siesta:     -0.02582  26.79272   0.00000  2       66
siesta:     -0.02582  29.48119   0.00000  2       67
siesta:      2.30256  30.82560   0.00000  2       68
siesta:      2.30256  33.51406   0.00000  2       69
siesta:     -7.01096  33.51406   0.00000  2       70
siesta:     -0.02582  42.92421   0.00000  2       71
siesta:     -0.02582  45.61267   0.00000  2       72

siesta: System type = slab      

initatomlists: Number of atoms, orbitals, and projectors:     72   936  1152

siesta: ******************** Simulation parameters ****************************
siesta:
siesta: The following are some of the parameters of the simulation.
siesta: A complete list of the parameters used, including default values,
siesta: can be found in file out.fdf
siesta:
redata: Non-Collinear-spin run           =     F
redata: SpinPolarized (Up/Down) run      =     F
redata: Number of spin components        =     1
redata: Long output                      =     F
redata: Number of Atomic Species         =        2
redata: Charge density info will appear in .RHO file
redata: Write Mulliken Pop.              =     NO
redata: Mesh Cutoff                      =   200.0000  Ry
redata: Net charge of the system         =     0.0000 |e|
redata: Max. number of SCF Iter          =      500
redata: SCF convergence failure will abort job
redata: Performing Pulay mixing using    =    10 iterations
redata: Mix DM in first SCF step ?       =     F
redata: Write Pulay info on disk?        =     F
redata: Discard 1st Pulay DM after  kick =     F
redata: New DM Mixing Weight             =     0.0500
redata: New DM Occupancy tolerance       = 0.000000000001
redata: No kicks to SCF
redata: DM Mixing Weight for Kicks       =     0.5000
redata: DM Tolerance for SCF             =     0.000100
redata: Require Energy convergence for SCF =     F
redata: DM Energy tolerance for SCF      =     0.000100 eV
redata: Require Harris convergence for SCF =     F
redata: DM Harris energy tolerance for SCF =     0.000100 eV
redata: Using Saved Data (generic)   =     F
redata: Use continuation files for DM    =     T
redata: Neglect nonoverlap interactions  =     F
redata: Method of Calculation            =     Diagonalization
redata: Divide and Conquer               =     T
redata: Electronic Temperature           =     0.0019  Ry
redata: Fix the spin of the system       =     F
redata: Dynamics option                  =     Verlet MD run
redata: Initial MD time step             =        1
redata:   Final MD time step             =        1
redata: Length of MD time step           =     1.0000  fs
redata: Initial Temperature of MD run    =     0.0000  K
redata: Perform a MD quench              =     F
redata: ***********************************************************************
Total number of electrons:   272.000000
Total ionic charge:   272.000000

* ProcessorY, Blocksize:    3  24

k-point displ. along   1 input, could be:     0.50    0.00
k-point displ. along   2 input, could be:     0.50    0.00
 Kpoints in:          231 . Kpoints trimmed:          231

siesta: k-grid: Number of k-points =   231
siesta: k-grid: Cutoff (effective) =     5.000 Ang
siesta: k-grid: Supercell and displacements
siesta: k-grid:   21   0   0      0.500
siesta: k-grid:    0  21   0      0.500
siesta: k-grid:    0   0   1      0.000
Naive supercell factors:     2    2    2

superc: Internal auxiliary supercell:     2 x     2 x     2  =       8
superc: Number of atoms, orbitals, and projectors:    576   7488   9216

* Maximum dynamic memory allocated =     4 MB

siesta:                 ==============================
                            Begin MD step =      1
                        ==============================

superc: Internal auxiliary supercell:     2 x     2 x     2  =       8
superc: Number of atoms, orbitals, and projectors:    576   7488   9216

outcell: Unit cell vectors (Ang):
       12.804619    7.392750    0.000000
        0.000000   14.785500    0.000000
        0.000000    0.000000   10.000000

outcell: Cell vector modules (Ang)   :   14.785500   14.785500   10.000000
outcell: Cell angles (23,13,12) (deg):     90.0000     90.0000     60.0000
outcell: Cell volume (Ang**3)        :   1893.2269
New_DM. Step:     1
Initializing Density Matrix...

InitMesh: MESH =   120 x   120 x    90 =     1296000
InitMesh: Mesh cutoff (required, used) =   200.000   223.865 Ry

* Maximum dynamic memory allocated =   162 MB

stepf: Fermi-Dirac step function

siesta: Program's energy decomposition (eV):
siesta: Ebs     =     -5604.760996
siesta: Eions   =     16354.103692
siesta: Ena     =      4339.482767
siesta: Ekin    =      5534.369168
siesta: Enl     =       771.055845
siesta: DEna    =        -0.000010
siesta: DUscf   =         0.000000
siesta: DUext   =         0.000000
siesta: Exc     =     -4190.715839
siesta: eta*DQ  =         0.000000
siesta: Emadel  =         0.000000
siesta: Emeta   =         0.000000
siesta: Emolmec =         0.000000
siesta: Ekinion =         0.000000
siesta: Eharris =     -9653.558908
siesta: Etot    =     -9899.911761
siesta: FreeEng =     -9899.911761

siesta: iscf   Eharris(eV)      E_KS(eV)   FreeEng(eV)   dDmax  Ef(eV)
siesta:    1    -9653.5589    -9899.9118    -9899.9118  7.6361 -8.2200
timer: Routine,Calls,Time,% = IterSCF        1    3048.900  99.59
elaps: Routine,Calls,Wall,% = IterSCF        1     254.679  99.59
siesta:    2   -14243.8693    -8896.3628    -8896.4108 16.3754 -3.9639
siesta:    3    -9648.2917    -9713.8059    -9713.8562  1.7509 -5.2530
siesta:    4    -9587.1004    -9644.2508    -9644.3187  1.5028 -5.0377
siesta:    5    -9521.0952    -9560.4114    -9560.4434  1.0574 -5.0271
siesta:    6    -9511.8973    -9530.8593    -9530.8942  0.8983 -4.8290
siesta:    7    -9501.6351    -9507.2808    -9507.3411  0.6916 -4.8243
siesta:    8    -9500.3186    -9504.9748    -9504.9908  0.6754 -4.7770
siesta:    9    -9497.7840    -9496.8163    -9496.8540  0.4511 -4.8756
siesta:   10    -9497.4798    -9484.2418    -9484.2728  0.2794 -4.8080
siesta:   11    -9497.3415    -9479.0634    -9479.1264  0.2930 -4.8026
siesta:   12    -9496.6567    -9478.1495    -9478.2135  0.3194 -4.7898
siesta:   13    -9496.2572    -9479.2109    -9479.2758  0.3173 -4.7837
siesta:   14    -9495.6470    -9484.1141    -9484.1734  0.2073 -4.7557
siesta:   15    -9495.4603    -9487.9780    -9488.0297  0.0921 -4.7814
siesta:   16    -9495.4186    -9489.6134    -9489.6634  0.0648 -4.7988
siesta:   17    -9495.3534    -9491.3842    -9491.4346  0.0363 -4.8196
siesta:   18    -9495.3406    -9493.0271    -9493.0792  0.0286 -4.8200
siesta:   19    -9495.3330    -9494.1585    -9494.2100  0.0296 -4.8185
siesta:   20    -9495.3319    -9494.8489    -9494.8998  0.0262 -4.8151
siesta:   21    -9495.3299    -9495.1618    -9495.2127  0.0199 -4.8108
siesta:   22    -9495.3294    -9495.5738    -9495.6248  0.0075 -4.8021
siesta:   23    -9495.3287    -9495.4604    -9495.5116  0.0035 -4.8029
siesta:   24    -9495.3285    -9495.4772    -9495.5283  0.0027 -4.8027
siesta:   25    -9495.3283    -9495.3997    -9495.4506  0.0022 -4.8031
siesta:   26    -9495.3282    -9495.3707    -9495.4216  0.0021 -4.8034
siesta:   27    -9495.3283    -9495.3578    -9495.4087  0.0008 -4.8042
siesta:   28    -9495.3283    -9495.3620    -9495.4129  0.0007 -4.8043
siesta:   29    -9495.3282    -9495.3371    -9495.3880  0.0004 -4.8041
siesta:   30    -9495.3282    -9495.3288    -9495.3796  0.0003 -4.8040
siesta:   31    -9495.3282    -9495.3203    -9495.3712  0.0002 -4.8040
siesta:   32    -9495.3282    -9495.3201    -9495.3709  0.0002 -4.8040
siesta:   33    -9495.3282    -9495.3240    -9495.3749  0.0001 -4.8040
siesta:   34    -9495.3282    -9495.3257    -9495.3766  0.0001 -4.8040

siesta: E_KS(eV) =            -9495.3262

siesta: E_KS - E_eggbox =     -9495.3262

siesta: Atomic forces (eV/Ang):
----------------------------------------
   Tot   -0.088715    0.082843    0.000000
----------------------------------------
   Max  560.209181
   Res  150.073763    sqrt( Sum f_i^2 / 3N )
----------------------------------------
   Max  560.209181    constrained

Stress-tensor-Voigt (kbar):     -741.88    -2661.58       -0.52      -10.12        0.00        0.00
(Free)E + p*V (eV/cell)    -8154.6088
Target enthalpy (eV/cell)    -9495.3771

siesta: Stress tensor (static) (eV/Ang**3):
        -0.463043   -0.006320    0.000000
        -0.006319   -1.661211    0.000000
         0.000000    0.000000   -0.000322

siesta: Pressure (static):       1134.66112400  kBar

siesta: Stress tensor (total) (eV/Ang**3):
        -0.463043   -0.006320    0.000000
        -0.006319   -1.661211    0.000000
         0.000000    0.000000   -0.000322

siesta: Pressure (total):       1134.66112400  kBar

siesta: Temp_ion =       0.000 K

* Maximum dynamic memory allocated =   175 MB
Computing bands...

siesta: Program's energy decomposition (eV):
siesta: Ebs     =     -4280.373525
siesta: Eions   =     16354.103692
siesta: Ena     =      4339.482767
siesta: Ekin    =      8401.553572
siesta: Enl     =      -865.057522
siesta: DEna    =      -762.005021
siesta: DUscf   =       101.424070
siesta: DUext   =         0.000000
siesta: Exc     =     -4356.620407
siesta: eta*DQ  =         0.000000
siesta: Emadel  =         0.000000
siesta: Emeta   =         0.000000
siesta: Emolmec =         0.000000
siesta: Ekinion =         0.000000
siesta: Eharris =     -9495.328232
siesta: Etot    =     -9495.326232
siesta: FreeEng =     -9495.377114

siesta: Final energy (eV):
siesta:  Band Struct. =   -4280.373525
siesta:       Kinetic =    8401.553572
siesta:       Hartree =   27410.901471
siesta:    Ext. field =       0.000000
siesta:   Exch.-corr. =   -4356.620407
siesta:  Ion-electron =  -62968.957610
siesta:       Ion-ion =   22017.796741
siesta:       Ekinion =       0.000000
siesta:         Total =   -9495.326232

siesta: Atomic forces (eV/Ang):
siesta:      1    8.508935   -3.539338    0.000000
siesta:      2   -0.292466  282.598962    0.000000
siesta:      3   -1.264717 -112.064516    0.000000
siesta:      4   -4.841594    2.237114    0.000000
siesta:      5   -0.361475   -4.110598    0.000000
siesta:      6   -2.338508   -4.258219    0.000000
siesta:      7   -5.537774    3.455354    0.000000
siesta:      8   -5.094085    0.756944    0.000000
siesta:      9   -4.681622    0.624295    0.000000
siesta:     10    4.173121   -2.013133    0.000000
siesta:     11    1.752189    1.813052    0.000000
siesta:     12  -15.754492    2.010153    0.000000
siesta:     13  -15.341396 -400.208010    0.000000
siesta:     14   -2.761699    6.561847    0.000000
siesta:     15    0.019577  104.956871    0.000000
siesta:     16   -0.277751 -282.659812    0.000000
siesta:     17    7.365095  547.662188    0.000000
siesta:     18   -9.470871 -132.883755    0.000000
siesta:     19    7.697322  125.391878    0.000000
siesta:     20  -24.432423 -549.540147    0.000000
siesta:     21   -7.606370  123.850484    0.000000
siesta:     22   23.449586 -550.350303    0.000000
siesta:     23   25.899336    5.098564    0.000000
siesta:     24   32.928716 -545.887777    0.000000
siesta:     25    1.359151    0.154320    0.000000
siesta:     26   -2.233101    2.153897    0.000000
siesta:     27    2.512030    2.139920    0.000000
siesta:     28   -0.841258    0.313508    0.000000
siesta:     29  -25.245969    1.487120    0.000000
siesta:     30  -30.257197 -548.431330    0.000000
siesta:     31   22.647623  550.899000    0.000000
siesta:     32   -8.217470 -124.832115    0.000000
siesta:     33   36.680001  547.271641    0.000000
siesta:     34   27.250673   -6.751315    0.000000
siesta:     35   -4.258573   -5.322600    0.000000
siesta:     36   -0.231909    2.940848    0.000000
siesta:     37    3.114053   -2.352310    0.000000
siesta:     38    0.051707    6.572341    0.000000
siesta:     39   -0.399159   -6.613149    0.000000
siesta:     40  -16.749452  406.759984    0.000000
siesta:     41    6.748293 -118.403589    0.000000
siesta:     42   12.970120  552.759087    0.000000
siesta:     43   20.776412   -6.315372    0.000000
siesta:     44    0.318260    3.609671    0.000000
siesta:     45   -1.322450    0.947701    0.000000
siesta:     46   -0.323732   -0.529107    0.000000
siesta:     47  -35.811933  548.073624    0.000000
siesta:     48  -26.272165   -6.460177    0.000000
siesta:     49  -13.569805  550.550321    0.000000
siesta:     50  -22.247257   -6.719179    0.000000
siesta:     51    1.224516  560.209181    0.000000
siesta:     52   -0.992888    1.849005    0.000000
siesta:     53    0.314981   -0.102636    0.000000
siesta:     54   -0.961144    0.590173    0.000000
siesta:     55    2.441394   -1.564071    0.000000
siesta:     56   -1.760519   -1.138258    0.000000
siesta:     57    0.929820    2.644009    0.000000
siesta:     58   -1.655866   -0.911819    0.000000
siesta:     59    2.182220   -0.799750    0.000000
siesta:     60    3.426310   -0.767510    0.000000
siesta:     61    0.714544    1.019358    0.000000
siesta:     62   -0.021726   -3.921741    0.000000
siesta:     63    1.986231   -3.150148    0.000000
siesta:     64    0.766854    0.367842    0.000000
siesta:     65   -0.818440   -2.391711    0.000000
siesta:     66    0.823757   -2.518822    0.000000
siesta:     67   -6.421503 -557.485177    0.000000
siesta:     68   22.376645    8.333149    0.000000
siesta:     69   14.715531 -550.280758    0.000000
siesta:     70    3.118478    4.742162    0.000000
siesta:     71    1.980707  132.986963    0.000000
siesta:     72   -2.642143 -551.031431    0.000000
siesta: ----------------------------------------
siesta:    Tot   -0.088715    0.082843    0.000000

siesta: Stress tensor (static) (eV/Ang**3):
siesta:    -0.463043   -0.006320    0.000000
siesta:    -0.006319   -1.661211    0.000000
siesta:     0.000000    0.000000   -0.000322

siesta: Cell volume =       1893.226884 Ang**3

siesta: Pressure (static):
siesta:                Solid            Molecule  Units
siesta:           0.00771312          0.11435805  Ry/Bohr**3
siesta:           0.70819212         10.49996696  eV/Ang**3
siesta:        1134.66112400      16822.98355939  kBar
(Free)E+ p_basis*V_orbitals  =       -9459.584242
(Free)Eharris+ p_basis*V_orbitals  =       -9459.586725

siesta: Electric dipole (a.u.)  =    0.000000    0.000000    0.000000
siesta: Electric dipole (Debye) =    0.000000    0.000000    0.000000

* Maximum dynamic memory allocated : Node    0 =   175 MB
* Maximum dynamic memory allocated : Node    1 =    69 MB
* Maximum dynamic memory allocated : Node    2 =    71 MB
* Maximum dynamic memory allocated : Node    3 =   161 MB
* Maximum dynamic memory allocated : Node    4 =   166 MB
* Maximum dynamic memory allocated : Node    5 =    62 MB
* Maximum dynamic memory allocated : Node    6 =    64 MB
* Maximum dynamic memory allocated : Node    7 =   157 MB
* Maximum dynamic memory allocated : Node    8 =   145 MB
* Maximum dynamic memory allocated : Node    9 =    57 MB
* Maximum dynamic memory allocated : Node   10 =    60 MB
* Maximum dynamic memory allocated : Node   11 =   139 MB

* Maximum memory occured during matrixMtoO                    

timer: CPU execution times:
timer:  Routine       Calls   Time/call    Tot.time        %
timer:  siesta            1  101321.855  101321.855   100.00
timer:  Setup             1       3.425       3.425     0.00
timer:  bands             3     226.048     678.144     0.67
timer:  writewave         1       0.023       0.023     0.00
timer:  KSV_init          1       0.004       0.004     0.00
timer:  IterMD            1  100633.400  100633.400    99.32
timer:  hsparse           1       0.284       0.284     0.00
timer:  overlap           1       7.415       7.415     0.01
timer:  IterSCF          34    2955.147  100475.011    99.16
timer:  kinefsm           2       3.775       7.549     0.01
timer:  nlefsm            2      20.660      41.320     0.04
timer:  DHSCF            35      81.032    2836.121     2.80
timer:  DHSCF1            1       1.191       1.191     0.00
timer:  DHSCF2            1      33.702      33.702     0.03
timer:  REORD           282       0.003       0.729     0.00
timer:  POISON           36       0.450      16.198     0.02
timer:  DHSCF3           35      79.230    2773.048     2.74
timer:  rhoofd           35      17.143     599.996     0.59
timer:  cellXC           35       2.455      85.924     0.08
timer:  vmat             35      37.693    1319.271     1.30
timer:  MolMec            2       0.000       0.000     0.00
timer:  diagon           34    2872.900   97678.605    96.40
timer:  c-eigval       7975       5.588   44566.647    43.99
timer:  c-buildHS      7975       0.037     291.428     0.29
timer:  cdiag         15829       5.687   90019.587    88.85
timer:  cdiag1        15829       0.260    4111.936     4.06
timer:  cdiag2        15829       1.838   29089.834    28.71
timer:  cdiag3        15829       3.379   53484.239    52.79
timer:  cdiag4        15829       0.087    1372.795     1.35
timer:  c-eigvec       7854       5.855   45989.021    45.39
timer:  c-buildD       7854       0.988    7758.160     7.66
timer:  DHSCF4            1      27.930      27.930     0.03
timer:  dfscf             1      25.823      25.823     0.03
timer:  overfsm           1       0.329       0.329     0.00
timer:  optical           1       6.282       6.282     0.01
  

elaps: ELAPSED times:
elaps:  Routine       Calls   Time/call    Tot.time        %
elaps:  siesta            1    8463.339    8463.339   100.00
elaps:  Setup             1       0.286       0.286     0.00
elaps:  bands             3      18.897      56.691     0.67
elaps:  writewave         1       0.002       0.002     0.00
elaps:  KSV_init          1       0.000       0.000     0.00
elaps:  IterMD            1    8405.832    8405.832    99.32
elaps:  hsparse           1       0.028       0.028     0.00
elaps:  overlap           1       0.716       0.716     0.01
elaps:  IterSCF          34     246.841    8392.603    99.16
elaps:  kinefsm           2       0.367       0.734     0.01
elaps:  nlefsm            2       1.769       3.537     0.04
elaps:  DHSCF            35       6.839     239.352     2.83
elaps:  DHSCF1            1       0.101       0.101     0.00
elaps:  DHSCF2            1       2.814       2.814     0.03
elaps:  REORD           282       0.000       0.083     0.00
elaps:  POISON           36       0.038       1.362     0.02
elaps:  DHSCF3           35       6.618     231.643     2.74
elaps:  rhoofd           35       3.217     112.601     1.33
elaps:  cellXC           35       0.205       7.161     0.08
elaps:  vmat             35       3.149     110.214     1.30
elaps:  MolMec            2       0.000       0.000     0.00
elaps:  diagon           34     239.978    8159.261    96.41
elaps:  c-eigval       7975       0.467    3722.569    43.98
elaps:  c-buildHS      7975       0.004      30.521     0.36
elaps:  cdiag         15829       0.470    7438.937    87.90
elaps:  cdiag1        15829       0.021     335.485     3.96
elaps:  cdiag2        15829       0.154    2432.012    28.74
elaps:  cdiag3        15829       0.283    4473.667    52.86
elaps:  cdiag4        15829       0.007     111.457     1.32
elaps:  c-eigvec       7854       0.480    3772.369    44.57
elaps:  c-buildD       7854       0.091     717.014     8.47
elaps:  DHSCF4            1       4.747       4.747     0.06
elaps:  dfscf             1       4.481       4.481     0.05
elaps:  overfsm           1       0.034       0.034     0.00
elaps:  optical           1       0.000       0.000     0.00
  
>> End of run:   3-MAY-2016   2:02:27
