Siesta Version:                                        siesta-3.2-pl-3
Architecture  : x86_64-unknown-linux-gnu--unknown
Compiler flags: mpiifort -g -O2 -fPIC -xSSE4.1 -fp-model source -shared-intel 
PARALLEL version

* Running on    8 nodes in parallel
>> Start of run:  27-APR-2016  23:53:57

                           ***********************       
                           *  WELCOME TO SIESTA  *       
                           ***********************       

reinit: Reading from standard input
************************** Dump of input data file ****************************
#(1) General system descriptors
SystemName            GRP_doping    # Descriptive name of the system
SystemLabel           GRP_doping    # Short name for naming files
%include STRUCT.fdf
%include KPT.fdf
%include BASIS.fdf
#%include TS.fdf # for transiesta calculation
#(4) DFT, Grid, SCF
XC.functional         GGA           # LDA or GGA (default = LDA)
XC.authors            PBE           # CA (Ceperley-Aldr) = PZ
                                    #    (Perdew-Zunger) - LDA - Default
                                    # PW92 (Perdew-Wang-92) - LDA
                                    # PBE (Perdew-Burke-Ernzerhof) - GGA
MeshCutoff            200.000000    Ry      # Default: 50.0 Ry ~ 0.444 Bohr
                                    #         100.0 Ry ~ 0.314 Bohr
MaxSCFIterations      500           # Default: 50
DM.MixingWeight       0.05          # Default: 0.25
DM.NumberPulay        10            # Default: 0
DM.PulayOnFile        F             # SystemLabel.P1, SystemLabel.P2
DM.Tolerance          1.d-4         # Default: 1.d-4
DM.UseSaveDM          .true.        # because of the bug
SCFMustConverge       .true.
NeglNonOverlapInt     F             # Default: F
#(5) Eigenvalue problem: order-N or diagonalization
SolutionMethod        Diagon        # or Transiesta
ElectronicTemperature 300.0 K       # Default: 300.0 K
#(6) Molecular dynamics and relaxations
#MD.TypeOfRun          CG            # Type of dynamics:
#MD.VariableCell       F
#MD.NumCGsteps         0           # 0 for single-point / 100 for gopt
#MD.MaxCGDispl         0.2 Bohr      # Default: 0.2 Bohr
#MD.MaxForceTol        0.02 eV/Ang   # Default: 0.04 eV/Ang
#MD.MaxStressTol       1.0 GPa       # Default: 1.0 GPa
# Geometry Constraints
#%block GeometryConstraints
#	position from 1 to 44
#%endblock GeometryConstraints
BandLinesScale   pi/a
%block BandLines
 1   0.00000000  0.00000000  0.00000000
50   0.00000000  0.07809418  0.00000000
50   0.04509075  0.07809242  0.00000000
20   0.00000000  0.00000000  0.00000000
%endblock BandLines
************************** End of input data file *****************************

reinit: -----------------------------------------------------------------------
reinit: System Name: GRP_doping
reinit: -----------------------------------------------------------------------
reinit: System Label: GRP_doping                                                  
reinit: -----------------------------------------------------------------------

initatom: Reading input for the pseudopotentials and atomic orbitals ----------
 Species number:            1  Label: B Atomic number:           5
 Species number:            2  Label: C Atomic number:           6
Ground state valence configuration:   2s02  2p01
Reading pseudopotential information in formatted form from B.psf

Valence configuration for pseudopotential generation:
2s( 2.00) rc: 1.74
2p( 1.00) rc: 1.74
3d( 0.00) rc: 1.74
4f( 0.00) rc: 1.74
Ground state valence configuration:   2s02  2p02
Reading pseudopotential information in formatted form from C.psf

Valence configuration for pseudopotential generation:
2s( 2.00) rc: 1.54
2p( 2.00) rc: 1.54
3d( 0.00) rc: 1.54
4f( 0.00) rc: 1.54
For B, standard SIESTA heuristics set lmxkb to 3
 (one more than the basis l, including polarization orbitals).
Use PS.lmax or PS.KBprojectors blocks to override.
For C, standard SIESTA heuristics set lmxkb to 3
 (one more than the basis l, including polarization orbitals).
Use PS.lmax or PS.KBprojectors blocks to override.

<basis_specs>
===============================================================================
B                    Z=   5    Mass=  10.810        Charge= 0.17977+309
Lmxo=1 Lmxkb= 3    BasisType=split      Semic=F
L=0  Nsemic=0  Cnfigmx=2
          n=1  nzeta=2  polorb=0
            splnorm:   0.15000    
               vcte:    0.0000    
               rinn:    0.0000    
                rcs:    0.0000      0.0000    
            lambdas:    1.0000      1.0000    
L=1  Nsemic=0  Cnfigmx=2
          n=1  nzeta=2  polorb=1
            splnorm:   0.15000    
               vcte:    0.0000    
               rinn:    0.0000    
                rcs:    0.0000      0.0000    
            lambdas:    1.0000      1.0000    
-------------------------------------------------------------------------------
L=0  Nkbl=1  erefs: 0.17977+309
L=1  Nkbl=1  erefs: 0.17977+309
L=2  Nkbl=1  erefs: 0.17977+309
L=3  Nkbl=1  erefs: 0.17977+309
===============================================================================
</basis_specs>

atom: Called for B                     (Z =   5)

read_vps: Pseudopotential generation method:
read_vps: ATM3      Troullier-Martins                       
Total valence charge:    3.00000

read_vps: Pseudopotential includes a core correction:
read_vps: Pseudo-core for xc-correction

xc_check: Exchange-correlation functional:
xc_check: GGA Perdew, Burke & Ernzerhof 1996
V l=0 = -2*Zval/r beyond r=  1.7165
V l=1 = -2*Zval/r beyond r=  1.7165
V l=2 = -2*Zval/r beyond r=  1.7165
V l=3 = -2*Zval/r beyond r=  1.6951
All V_l potentials equal beyond r=  1.7165
This should be close to max(r_c) in ps generation
All pots = -2*Zval/r beyond r=  1.7165

VLOCAL1: 99.0% of the norm of Vloc inside     14.733 Ry
VLOCAL1: 99.9% of the norm of Vloc inside     33.577 Ry
atom: Maximum radius for 4*pi*r*r*local-pseudopot. charge    2.04484
atom: Maximum radius for r*vlocal+2*Zval:    1.75994
GHOST: No ghost state for L =  0
GHOST: No ghost state for L =  1
GHOST: No ghost state for L =  2
GHOST: No ghost state for L =  3

KBgen: Kleinman-Bylander projectors: 
   l= 0   rc=  1.897051   el= -0.693730   Ekb=  4.595746   kbcos=  0.286105
   l= 1   rc=  1.920920   el= -0.265236   Ekb= -2.350715   kbcos= -0.315747
   l= 2   rc=  2.044840   el=  0.002055   Ekb= -0.690767   kbcos= -0.013822
   l= 3   rc=  2.149707   el=  0.003188   Ekb= -0.315358   kbcos= -0.002055

KBgen: Total number of  Kleinman-Bylander projectors:   16
atom: -------------------------------------------------------------------------

atom: SANKEY-TYPE ORBITALS:
atom: Selected multiple-zeta basis: split     

SPLIT: Orbitals with angular momentum L= 0

SPLIT: Basis orbitals for state 2s

SPLIT: PAO cut-off radius determined from an
SPLIT: energy shift=  0.007350 Ry

   izeta = 1
                 lambda =    1.000000
                     rc =    5.422032
                 energy =   -0.686029
                kinetic =    0.576707
    potential(screened) =   -1.262736
       potential(ionic) =   -3.271094

   izeta = 2
                 rmatch =    4.222573
              splitnorm =    0.150000
                 energy =   -0.602132
                kinetic =    0.858975
    potential(screened) =   -1.461107
       potential(ionic) =   -3.582536

SPLIT: Orbitals with angular momentum L= 1

SPLIT: Basis orbitals for state 2p

SPLIT: PAO cut-off radius determined from an
SPLIT: energy shift=  0.007350 Ry

   izeta = 1
                 lambda =    1.000000
                     rc =    6.790259
                 energy =   -0.258578
                kinetic =    1.481412
    potential(screened) =   -1.739989
       potential(ionic) =   -3.657461

   izeta = 2
                 rmatch =    4.608740
              splitnorm =    0.150000
                 energy =   -0.173757
                kinetic =    2.186690
    potential(screened) =   -2.360447
       potential(ionic) =   -4.464260

POLgen: Perturbative polarization orbital with L=  2

POLgen: Polarization orbital for state 2p

   izeta = 1
                     rc =    6.790259
                 energy =    0.684082
                kinetic =    1.471481
    potential(screened) =   -0.787399
       potential(ionic) =   -2.406985
atom: Total number of Sankey-type orbitals: 13

atm_pop: Valence configuration (for local Pseudopot. screening):
 2s( 2.00)                                                            
 2p( 1.00)                                                            
Vna: chval, zval:    3.00000   3.00000

Vna:  Cut-off radius for the neutral-atom potential:   6.790259
comcore: Pseudo-core radius Rcore=  2.122997

atom: _________________________________________________________________________

<basis_specs>
===============================================================================
C                    Z=   6    Mass=  12.010        Charge= 0.17977+309
Lmxo=1 Lmxkb= 3    BasisType=split      Semic=F
L=0  Nsemic=0  Cnfigmx=2
          n=1  nzeta=2  polorb=0
            splnorm:   0.15000    
               vcte:    0.0000    
               rinn:    0.0000    
                rcs:    0.0000      0.0000    
            lambdas:    1.0000      1.0000    
L=1  Nsemic=0  Cnfigmx=2
          n=1  nzeta=2  polorb=1
            splnorm:   0.15000    
               vcte:    0.0000    
               rinn:    0.0000    
                rcs:    0.0000      0.0000    
            lambdas:    1.0000      1.0000    
-------------------------------------------------------------------------------
L=0  Nkbl=1  erefs: 0.17977+309
L=1  Nkbl=1  erefs: 0.17977+309
L=2  Nkbl=1  erefs: 0.17977+309
L=3  Nkbl=1  erefs: 0.17977+309
===============================================================================
</basis_specs>

atom: Called for C                     (Z =   6)

read_vps: Pseudopotential generation method:
read_vps: ATM3      Troullier-Martins                       
Total valence charge:    4.00000

read_vps: Pseudopotential includes a core correction:
read_vps: Pseudo-core for xc-correction

xc_check: Exchange-correlation functional:
xc_check: GGA Perdew, Burke & Ernzerhof 1996
V l=0 = -2*Zval/r beyond r=  1.5227
V l=1 = -2*Zval/r beyond r=  1.5227
V l=2 = -2*Zval/r beyond r=  1.5227
V l=3 = -2*Zval/r beyond r=  1.5038
All V_l potentials equal beyond r=  1.5227
This should be close to max(r_c) in ps generation
All pots = -2*Zval/r beyond r=  1.5227

VLOCAL1: 99.0% of the norm of Vloc inside     18.722 Ry
VLOCAL1: 99.9% of the norm of Vloc inside     42.668 Ry
atom: Maximum radius for 4*pi*r*r*local-pseudopot. charge    1.83678
atom: Maximum radius for r*vlocal+2*Zval:    1.58088
GHOST: No ghost state for L =  0
GHOST: No ghost state for L =  1
GHOST: No ghost state for L =  2
GHOST: No ghost state for L =  3

KBgen: Kleinman-Bylander projectors: 
   l= 0   rc=  1.704034   el= -1.009801   Ekb=  5.335044   kbcos=  0.316824
   l= 1   rc=  1.704034   el= -0.388707   Ekb= -3.785862   kbcos= -0.366464
   l= 2   rc=  1.791422   el=  0.001971   Ekb= -0.970471   kbcos= -0.009212
   l= 3   rc=  1.859892   el=  0.003065   Ekb= -0.399525   kbcos= -0.001223

KBgen: Total number of  Kleinman-Bylander projectors:   16
atom: -------------------------------------------------------------------------

atom: SANKEY-TYPE ORBITALS:
atom: Selected multiple-zeta basis: split     

SPLIT: Orbitals with angular momentum L= 0

SPLIT: Basis orbitals for state 2s

SPLIT: PAO cut-off radius determined from an
SPLIT: energy shift=  0.007350 Ry

   izeta = 1
                 lambda =    1.000000
                     rc =    4.632753
                 energy =   -1.002270
                kinetic =    0.855760
    potential(screened) =   -1.858031
       potential(ionic) =   -5.417575

   izeta = 2
                 rmatch =    3.431921
              splitnorm =    0.150000
                 energy =   -0.867111
                kinetic =    1.300804
    potential(screened) =   -2.167915
       potential(ionic) =   -5.962684

SPLIT: Orbitals with angular momentum L= 1

SPLIT: Basis orbitals for state 2p

SPLIT: PAO cut-off radius determined from an
SPLIT: energy shift=  0.007350 Ry

   izeta = 1
                 lambda =    1.000000
                     rc =    5.658549
                 energy =   -0.381140
                kinetic =    2.399701
    potential(screened) =   -2.780841
       potential(ionic) =   -6.206085

   izeta = 2
                 rmatch =    3.653288
              splitnorm =    0.150000
                 energy =   -0.249149
                kinetic =    3.542762
    potential(screened) =   -3.791911
       potential(ionic) =   -7.581078

POLgen: Perturbative polarization orbital with L=  2

POLgen: Polarization orbital for state 2p

   izeta = 1
                     rc =    5.658549
                 energy =    1.109913
                kinetic =    2.304789
    potential(screened) =   -1.194876
       potential(ionic) =   -4.013592
atom: Total number of Sankey-type orbitals: 13

atm_pop: Valence configuration (for local Pseudopot. screening):
 2s( 2.00)                                                            
 2p( 2.00)                                                            
Vna: chval, zval:    4.00000   4.00000

Vna:  Cut-off radius for the neutral-atom potential:   5.658549
comcore: Pseudo-core radius Rcore=  1.791422

atom: _________________________________________________________________________

prinput: Basis input ----------------------------------------------------------

PAO.BasisType split     

%block ChemicalSpeciesLabel
    1    5 B                       # Species index, atomic number, species label
    2    6 C                       # Species index, atomic number, species label
%endblock ChemicalSpeciesLabel

%block PAO.Basis                 # Define Basis set
B                     2                    # Species label, number of l-shells
 n=2   0   2                         # n, l, Nzeta 
   5.422      4.223   
   1.000      1.000   
 n=2   1   2 P   1                   # n, l, Nzeta, Polarization, NzetaPol
   6.790      4.609   
   1.000      1.000   
C                     2                    # Species label, number of l-shells
 n=2   0   2                         # n, l, Nzeta 
   4.633      3.432   
   1.000      1.000   
 n=2   1   2 P   1                   # n, l, Nzeta, Polarization, NzetaPol
   5.659      3.653   
   1.000      1.000   
%endblock PAO.Basis

prinput: ----------------------------------------------------------------------

coor:   Atomic-coordinates input format  =     Fractional

siesta: Atomic coordinates (Bohr) and species
siesta:      4.63094  21.41544   0.00000  1        1
siesta:      6.95932  22.75985   0.00000  1        2
siesta:      6.95932  25.44831   0.00000  1        3
siesta:     -0.02582  21.41544   0.00000  1        4
siesta:      2.30256  22.75985   0.00000  1        5
siesta:      2.30256  25.44831   0.00000  1        6
siesta:     -4.68258  21.41544   0.00000  1        7
siesta:     -2.35420  22.75985   0.00000  1        8
siesta:     -2.35420  25.44831   0.00000  1        9
siesta:     -9.33934  21.41544   0.00000  1       10
siesta:     -7.01096  22.75985   0.00000  1       11
siesta:     -7.01096  25.44831   0.00000  1       12
siesta:    -11.66772  22.75985   0.00000  1       13
siesta:    -11.66772  25.44831   0.00000  1       14
siesta:     -9.33934  26.79272   0.00000  1       15
siesta:      4.63094  26.79272   0.00000  1       16
siesta:     -0.02582  26.79272   0.00000  1       17
siesta:     -0.02582  29.48119   0.00000  1       18
siesta:     -4.68258  26.79272   0.00000  1       19
siesta:     -4.68258  29.48119   0.00000  1       20
siesta:     -2.35420  30.82560   0.00000  1       21
siesta:     -0.02582   2.59549   0.00000  2       22
siesta:     -0.02582   5.28395   0.00000  2       23
siesta:     -2.35420  38.89134   0.00000  2       24
siesta:     -2.35420  41.57980   0.00000  2       25
siesta:      2.30256  38.89134   0.00000  2       26
siesta:      2.30256  41.57980   0.00000  2       27
siesta:      4.63094  34.85847   0.00000  2       28
siesta:      4.63094  37.54693   0.00000  2       29
siesta:      6.95932  30.82560   0.00000  2       30
siesta:      6.95932  33.51406   0.00000  2       31
siesta:      9.28770  26.79272   0.00000  2       32
siesta:      9.28770  29.48119   0.00000  2       33
siesta:     -4.68258  34.85847   0.00000  2       34
siesta:     -4.68258  37.54693   0.00000  2       35
siesta:      2.30256   6.62836   0.00000  2       36
siesta:      2.30256   9.31683   0.00000  2       37
siesta:      4.63094  10.66124   0.00000  2       38
siesta:      4.63094  13.34970   0.00000  2       39
siesta:      6.95932  14.69411   0.00000  2       40
siesta:      6.95932  17.38257   0.00000  2       41
siesta:      9.28770  18.72698   0.00000  2       42
siesta:      9.28770  21.41544   0.00000  2       43
siesta:     11.61608  22.75985   0.00000  2       44
siesta:     11.61608  25.44831   0.00000  2       45
siesta:     -2.35420   6.62836   0.00000  2       46
siesta:     -2.35420   9.31683   0.00000  2       47
siesta:     -0.02582  10.66124   0.00000  2       48
siesta:     -0.02582  13.34970   0.00000  2       49
siesta:      2.30256  14.69411   0.00000  2       50
siesta:      2.30256  17.38257   0.00000  2       51
siesta:      4.63094  18.72698   0.00000  2       52
siesta:     -4.68258  10.66124   0.00000  2       53
siesta:     -4.68258  13.34970   0.00000  2       54
siesta:     -2.35420  14.69411   0.00000  2       55
siesta:     -2.35420  17.38257   0.00000  2       56
siesta:     -0.02582  18.72698   0.00000  2       57
siesta:     -7.01096  14.69411   0.00000  2       58
siesta:     -7.01096  17.38257   0.00000  2       59
siesta:     -4.68258  18.72698   0.00000  2       60
siesta:     -9.33934  18.72698   0.00000  2       61
siesta:     -9.33934  29.48119   0.00000  2       62
siesta:      4.63094  29.48119   0.00000  2       63
siesta:      2.30256  30.82560   0.00000  2       64
siesta:      2.30256  33.51406   0.00000  2       65
siesta:     -2.35420  33.51406   0.00000  2       66
siesta:     -7.01096  30.82560   0.00000  2       67
siesta:     -7.01096  33.51406   0.00000  2       68
siesta:     -0.02582  34.85847   0.00000  2       69
siesta:     -0.02582  37.54693   0.00000  2       70
siesta:     -0.02582  42.92421   0.00000  2       71
siesta:     -0.02582  45.61267   0.00000  2       72

siesta: System type = slab      

initatomlists: Number of atoms, orbitals, and projectors:     72   936  1152

siesta: ******************** Simulation parameters ****************************
siesta:
siesta: The following are some of the parameters of the simulation.
siesta: A complete list of the parameters used, including default values,
siesta: can be found in file out.fdf
siesta:
redata: Non-Collinear-spin run           =     F
redata: SpinPolarized (Up/Down) run      =     F
redata: Number of spin components        =     1
redata: Long output                      =     F
redata: Number of Atomic Species         =        2
redata: Charge density info will appear in .RHO file
redata: Write Mulliken Pop.              =     NO
redata: Mesh Cutoff                      =   200.0000  Ry
redata: Net charge of the system         =     0.0000 |e|
redata: Max. number of SCF Iter          =      500
redata: SCF convergence failure will abort job
redata: Performing Pulay mixing using    =    10 iterations
redata: Mix DM in first SCF step ?       =     F
redata: Write Pulay info on disk?        =     F
redata: Discard 1st Pulay DM after  kick =     F
redata: New DM Mixing Weight             =     0.0500
redata: New DM Occupancy tolerance       = 0.000000000001
redata: No kicks to SCF
redata: DM Mixing Weight for Kicks       =     0.5000
redata: DM Tolerance for SCF             =     0.000100
redata: Require Energy convergence for SCF =     F
redata: DM Energy tolerance for SCF      =     0.000100 eV
redata: Require Harris convergence for SCF =     F
redata: DM Harris energy tolerance for SCF =     0.000100 eV
redata: Using Saved Data (generic)   =     F
redata: Use continuation files for DM    =     T
redata: Neglect nonoverlap interactions  =     F
redata: Method of Calculation            =     Diagonalization
redata: Divide and Conquer               =     T
redata: Electronic Temperature           =     0.0019  Ry
redata: Fix the spin of the system       =     F
redata: Dynamics option                  =     Verlet MD run
redata: Initial MD time step             =        1
redata:   Final MD time step             =        1
redata: Length of MD time step           =     1.0000  fs
redata: Initial Temperature of MD run    =     0.0000  K
redata: Perform a MD quench              =     F
redata: ***********************************************************************
Total number of electrons:   267.000000
Total ionic charge:   267.000000

* ProcessorY, Blocksize:    2  24

k-point displ. along   1 input, could be:     0.50    0.00
k-point displ. along   2 input, could be:     0.50    0.00
 Kpoints in:          231 . Kpoints trimmed:          231

siesta: k-grid: Number of k-points =   231
siesta: k-grid: Cutoff (effective) =     5.000 Ang
siesta: k-grid: Supercell and displacements
siesta: k-grid:   21   0   0      0.500
siesta: k-grid:    0  21   0      0.500
siesta: k-grid:    0   0   1      0.000
Naive supercell factors:     2    2    2

superc: Internal auxiliary supercell:     2 x     2 x     2  =       8
superc: Number of atoms, orbitals, and projectors:    576   7488   9216

* Maximum dynamic memory allocated =     4 MB

siesta:                 ==============================
                            Begin MD step =      1
                        ==============================

superc: Internal auxiliary supercell:     2 x     2 x     2  =       8
superc: Number of atoms, orbitals, and projectors:    576   7488   9216

outcell: Unit cell vectors (Ang):
       12.804619    7.392750    0.000000
        0.000000   14.785500    0.000000
        0.000000    0.000000   10.000000

outcell: Cell vector modules (Ang)   :   14.785500   14.785500   10.000000
outcell: Cell angles (23,13,12) (deg):     90.0000     90.0000     60.0000
outcell: Cell volume (Ang**3)        :   1893.2269
New_DM. Step:     1
Initializing Density Matrix...

InitMesh: MESH =   120 x   120 x    90 =     1296000
InitMesh: Mesh cutoff (required, used) =   200.000   223.865 Ry

* Maximum dynamic memory allocated =   222 MB

stepf: Fermi-Dirac step function

siesta: Program's energy decomposition (eV):
siesta: Ebs     =     -5541.192659
siesta: Eions   =     15713.820136
siesta: Ena     =      4226.754968
siesta: Ekin    =      5270.679987
siesta: Enl     =       810.704311
siesta: DEna    =        -0.000008
siesta: DUscf   =         0.000000
siesta: DUext   =         0.000000
siesta: Exc     =     -4213.773235
siesta: eta*DQ  =         0.000000
siesta: Emadel  =         0.000000
siesta: Emeta   =         0.000000
siesta: Emolmec =         0.000000
siesta: Ekinion =         0.000000
siesta: Eharris =     -9302.305763
siesta: Etot    =     -9619.454113
siesta: FreeEng =     -9619.454113

siesta: iscf   Eharris(eV)      E_KS(eV)   FreeEng(eV)   dDmax  Ef(eV)
siesta:    1    -9302.3058    -9619.4541    -9619.4541  6.3915 -8.4820
timer: Routine,Calls,Time,% = IterSCF        1    3474.219  99.69
elaps: Routine,Calls,Wall,% = IterSCF        1     435.124  99.69
siesta:    2   -13224.1447    -8599.7613    -8599.8052 19.7939 -2.6089
siesta:    3    -9231.0156    -9487.2410    -9487.2836  3.8644 -6.8902
siesta:    4    -9203.8110    -9339.3452    -9339.3912  1.7536 -5.7518
siesta:    5    -9171.8067    -9229.9798    -9230.0241  0.8140 -5.1841
siesta:    6    -9155.0140    -9209.7264    -9209.7704  0.7255 -5.2052
siesta:    7    -9147.9509    -9197.4671    -9197.5115  0.6875 -5.1778
siesta:    8    -9143.7884    -9172.4785    -9172.5185  0.6570 -5.2381
siesta:    9    -9142.5458    -9164.7992    -9164.8569  0.6109 -5.2657
siesta:   10    -9142.0508    -9154.6139    -9154.6641  0.4900 -5.2044
siesta:   11    -9141.4389    -9138.2303    -9138.2929  0.2875 -5.1973
siesta:   12    -9141.5323    -9121.8454    -9121.8926  0.1532 -5.1112
siesta:   13    -9141.1745    -9118.5540    -9118.6213  0.1325 -5.0801
siesta:   14    -9140.7363    -9122.4311    -9122.5061  0.1014 -5.1076
siesta:   15    -9140.5229    -9126.9699    -9127.0292  0.0596 -5.1416
siesta:   16    -9140.4393    -9131.8360    -9131.8984  0.0467 -5.1719
siesta:   17    -9140.3860    -9135.5085    -9135.5677  0.0667 -5.1872
siesta:   18    -9140.3586    -9136.5981    -9136.6657  0.0236 -5.1793
siesta:   19    -9140.3573    -9137.6124    -9137.6772  0.0139 -5.1740
siesta:   20    -9140.3537    -9137.8664    -9137.9317  0.0099 -5.1666
siesta:   21    -9140.3516    -9138.6792    -9138.7437  0.0061 -5.1656
siesta:   22    -9140.3510    -9139.6260    -9139.6909  0.0045 -5.1633
siesta:   23    -9140.3504    -9140.0208    -9140.0857  0.0034 -5.1627
siesta:   24    -9140.3498    -9140.3781    -9140.4430  0.0024 -5.1621
siesta:   25    -9140.3500    -9140.3556    -9140.4207  0.0017 -5.1618
siesta:   26    -9140.3500    -9140.2859    -9140.3508  0.0010 -5.1613
siesta:   27    -9140.3501    -9140.3055    -9140.3704  0.0009 -5.1614
siesta:   28    -9140.3500    -9140.3316    -9140.3964  0.0005 -5.1617
siesta:   29    -9140.3501    -9140.3616    -9140.4264  0.0005 -5.1619
siesta:   30    -9140.3500    -9140.3731    -9140.4379  0.0003 -5.1621
siesta:   31    -9140.3500    -9140.3674    -9140.4322  0.0002 -5.1621
siesta:   32    -9140.3500    -9140.3574    -9140.4222  0.0002 -5.1621
siesta:   33    -9140.3500    -9140.3552    -9140.4200  0.0001 -5.1622
siesta:   34    -9140.3500    -9140.3576    -9140.4224  0.0001 -5.1622

siesta: E_KS(eV) =            -9140.3587

siesta: E_KS - E_eggbox =     -9140.3587

siesta: Atomic forces (eV/Ang):
----------------------------------------
   Tot   -0.001193   -0.106829    0.000000
----------------------------------------
   Max  563.389042
   Res  157.281836    sqrt( Sum f_i^2 / 3N )
----------------------------------------
   Max  563.389042    constrained

Stress-tensor-Voigt (kbar):     -843.40    -2904.16       -0.73        0.49        0.00        0.00
(Free)E + p*V (eV/cell)    -7664.0362
Target enthalpy (eV/cell)    -9140.4235

siesta: Stress tensor (static) (eV/Ang**3):
        -0.526403    0.000306    0.000000
         0.000305   -1.812616    0.000000
         0.000000    0.000000   -0.000458

siesta: Pressure (static):       1249.43228113  kBar

siesta: Stress tensor (total) (eV/Ang**3):
        -0.526403    0.000306    0.000000
         0.000305   -1.812616    0.000000
         0.000000    0.000000   -0.000458

siesta: Pressure (total):       1249.43228113  kBar

siesta: Temp_ion =       0.000 K

* Maximum dynamic memory allocated =   238 MB
Computing bands...

siesta: Program's energy decomposition (eV):
siesta: Ebs     =     -4179.810177
siesta: Eions   =     15713.820136
siesta: Ena     =      4226.754968
siesta: Ekin    =      8221.457717
siesta: Enl     =      -778.936516
siesta: DEna    =      -815.900006
siesta: DUscf   =       108.521413
siesta: DUext   =         0.000000
siesta: Exc     =     -4388.436120
siesta: eta*DQ  =         0.000000
siesta: Emadel  =         0.000000
siesta: Emeta   =         0.000000
siesta: Emolmec =         0.000000
siesta: Ekinion =         0.000000
siesta: Eharris =     -9140.350007
siesta: Etot    =     -9140.358680
siesta: FreeEng =     -9140.423513

siesta: Final energy (eV):
siesta:  Band Struct. =   -4179.810177
siesta:       Kinetic =    8221.457717
siesta:       Hartree =   27573.924901
siesta:    Ext. field =       0.000000
siesta:   Exch.-corr. =   -4388.436120
siesta:  Ion-electron =  -63100.387730
siesta:       Ion-ion =   22553.082552
siesta:       Ekinion =       0.000000
siesta:         Total =   -9140.358680

siesta: Atomic forces (eV/Ang):
siesta:      1   -0.575362   -4.010256    0.000000
siesta:      2    2.843532   -2.469224    0.000000
siesta:      3    2.715034    2.202891    0.000000
siesta:      4    0.017120   -4.281295    0.000000
siesta:      5   -0.971888    0.043900    0.000000
siesta:      6   -0.143039   -0.557305    0.000000
siesta:      7    0.686249   -4.899829    0.000000
siesta:      8    0.296616    0.011665    0.000000
siesta:      9    0.088042    0.686297    0.000000
siesta:     10   -4.980559   -6.194189    0.000000
siesta:     11    1.581933   -0.065128    0.000000
siesta:     12    0.641965    0.656152    0.000000
siesta:     13   -6.042669   -2.768999    0.000000
siesta:     14   -6.353541    2.278830    0.000000
siesta:     15   -4.238884    6.994658    0.000000
siesta:     16   -0.244365    4.180878    0.000000
siesta:     17    0.350995    1.185855    0.000000
siesta:     18    0.544105 -409.346321    0.000000
siesta:     19    1.071640   -0.773115    0.000000
siesta:     20   -2.600249    2.693550    0.000000
siesta:     21  -15.984232    2.790635    0.000000
siesta:     22    2.367429  405.819133    0.000000
siesta:     23   -2.585491 -126.956765    0.000000
siesta:     24    2.139863  127.159247    0.000000
siesta:     25  -15.043580 -547.261918    0.000000
siesta:     26   -2.127630  127.179177    0.000000
siesta:     27   14.613513 -547.355608    0.000000
siesta:     28   26.401114    4.998659    0.000000
siesta:     29   32.311825 -548.830007    0.000000
siesta:     30    2.508144    0.971712    0.000000
siesta:     31   -2.075351    1.738632    0.000000
siesta:     32    6.737193    3.379610    0.000000
siesta:     33   -1.664508    0.340009    0.000000
siesta:     34  -26.026300    4.654686    0.000000
siesta:     35  -32.378620 -549.175450    0.000000
siesta:     36   16.449194  548.833903    0.000000
siesta:     37   -1.534472 -127.256298    0.000000
siesta:     38   33.512305  549.192015    0.000000
siesta:     39   26.540943   -5.460968    0.000000
siesta:     40   -2.031498   -1.724157    0.000000
siesta:     41    2.049112   -0.861180    0.000000
siesta:     42   -1.559345   -0.063908    0.000000
siesta:     43    6.638836   -3.478622    0.000000
siesta:     44   -0.276451    5.504984    0.000000
siesta:     45   -0.413180   -5.443755    0.000000
siesta:     46  -18.079087  553.251824    0.000000
siesta:     47    1.849872 -127.373375    0.000000
siesta:     48    0.027368  543.763488    0.000000
siesta:     49    0.250419 -126.550389    0.000000
siesta:     50   24.211744  556.691472    0.000000
siesta:     51   21.898187   -5.744323    0.000000
siesta:     52   -1.330263   -1.880454    0.000000
siesta:     53  -33.436428  549.238425    0.000000
siesta:     54  -26.638708   -5.522852    0.000000
siesta:     55  -24.025783  556.730379    0.000000
siesta:     56  -22.097874   -5.675621    0.000000
siesta:     57    0.031219  563.389042    0.000000
siesta:     58    2.321866   -1.467352    0.000000
siesta:     59   -2.996759   -2.157462    0.000000
siesta:     60    1.465123   -1.025301    0.000000
siesta:     61    2.747624   -2.154605    0.000000
siesta:     62    3.170878    1.719482    0.000000
siesta:     63   -1.880806    2.341078    0.000000
siesta:     64   22.971490    2.678723    0.000000
siesta:     65   24.312297 -558.066111    0.000000
siesta:     66  -23.586268 -556.341758    0.000000
siesta:     67   -6.714021    3.199448    0.000000
siesta:     68    2.577292    1.719562    0.000000
siesta:     69   -0.433146  124.788152    0.000000
siesta:     70    0.091248 -546.110906    0.000000
siesta:     71    0.131029  127.991028    0.000000
siesta:     72   -0.095196 -551.801200    0.000000
siesta: ----------------------------------------
siesta:    Tot   -0.001193   -0.106829    0.000000

siesta: Stress tensor (static) (eV/Ang**3):
siesta:    -0.526403    0.000306    0.000000
siesta:     0.000305   -1.812616    0.000000
siesta:     0.000000    0.000000   -0.000458

siesta: Cell volume =       1893.226884 Ang**3

siesta: Pressure (static):
siesta:                Solid            Molecule  Units
siesta:           0.00849330          0.12190829  Ry/Bohr**3
siesta:           0.77982586         11.19320455  eV/Ang**3
siesta:        1249.43228113      17933.68463357  kBar
(Free)E+ p_basis*V_orbitals  =       -9103.050875
(Free)Eharris+ p_basis*V_orbitals  =       -9103.043317

siesta: Electric dipole (a.u.)  =    0.000000    0.000000    0.000000
siesta: Electric dipole (Debye) =    0.000000    0.000000    0.000000

* Maximum dynamic memory allocated : Node    0 =   238 MB
* Maximum dynamic memory allocated : Node    1 =    83 MB
* Maximum dynamic memory allocated : Node    2 =    87 MB
* Maximum dynamic memory allocated : Node    3 =   227 MB
* Maximum dynamic memory allocated : Node    4 =   231 MB
* Maximum dynamic memory allocated : Node    5 =    84 MB
* Maximum dynamic memory allocated : Node    6 =    86 MB
* Maximum dynamic memory allocated : Node    7 =   211 MB

* Maximum memory occured during matrixMtoO                    

timer: CPU execution times:
timer:  Routine       Calls   Time/call    Tot.time        %
timer:  siesta            1  116403.346  116403.346   100.00
timer:  Setup             1       2.689       2.689     0.00
timer:  bands             3     243.565     730.695     0.63
timer:  writewave         1       0.017       0.017     0.00
timer:  KSV_init          1       0.000       0.000     0.00
timer:  IterMD            1  115664.695  115664.695    99.37
timer:  hsparse           1       0.512       0.512     0.00
timer:  overlap           1       7.222       7.222     0.01
timer:  IterSCF          34    3395.826  115458.080    99.19
timer:  kinefsm           2       3.750       7.500     0.01
timer:  nlefsm            2      19.953      39.906     0.03
timer:  DHSCF            35     106.518    3728.145     3.20
timer:  DHSCF1            1       0.989       0.989     0.00
timer:  DHSCF2            1      42.002      42.002     0.04
timer:  REORD           282       0.005       1.358     0.00
timer:  POISON           36       0.875      31.501     0.03
timer:  DHSCF3           35     104.095    3643.326     3.13
timer:  rhoofd           35      23.945     838.066     0.72
timer:  cellXC           35       3.281     114.847     0.10
timer:  vmat             35      49.370    1727.957     1.48
timer:  MolMec            2       0.000       0.000     0.00
timer:  diagon           34    3288.753  111817.586    96.06
timer:  c-eigval       7975       6.035   48125.244    41.34
timer:  c-buildHS      7975       0.052     418.391     0.36
timer:  cdiag         15829       6.171   97679.375    83.91
timer:  cdiag1        15829       0.384    6084.914     5.23
timer:  cdiag2        15829       1.772   28044.307    24.09
timer:  cdiag3        15829       3.735   59114.172    50.78
timer:  cdiag4        15829       0.158    2494.411     2.14
timer:  c-eigvec       7854       6.406   50315.049    43.22
timer:  c-buildD       7854       1.791   14066.901    12.08
timer:  DHSCF4            1      41.172      41.172     0.04
timer:  dfscf             1      38.379      38.379     0.03
timer:  overfsm           1       0.465       0.465     0.00
timer:  optical           1       4.597       4.597     0.00
  

elaps: ELAPSED times:
elaps:  Routine       Calls   Time/call    Tot.time        %
elaps:  siesta            1   14577.689   14577.689   100.00
elaps:  Setup             1       0.337       0.337     0.00
elaps:  bands             3      30.519      91.558     0.63
elaps:  writewave         1       0.002       0.002     0.00
elaps:  KSV_init          1       0.000       0.000     0.00
elaps:  IterMD            1   14485.185   14485.185    99.37
elaps:  hsparse           1       0.066       0.066     0.00
elaps:  overlap           1       0.901       0.901     0.01
elaps:  IterSCF          34     425.274   14459.320    99.19
elaps:  kinefsm           2       0.468       0.936     0.01
elaps:  nlefsm            2       2.461       4.923     0.03
elaps:  DHSCF            35      13.479     471.777     3.24
elaps:  DHSCF1            1       0.126       0.126     0.00
elaps:  DHSCF2            1       5.259       5.259     0.04
elaps:  REORD           282       0.001       0.192     0.00
elaps:  POISON           36       0.110       3.975     0.03
elaps:  DHSCF3           35      13.037     456.299     3.13
elaps:  rhoofd           35       6.310     220.849     1.51
elaps:  cellXC           35       0.411      14.370     0.10
elaps:  vmat             35       6.183     216.414     1.48
elaps:  MolMec            2       0.000       0.000     0.00
elaps:  diagon           34     411.871   14003.618    96.06
elaps:  c-eigval       7975       0.756    6026.810    41.34
elaps:  c-buildHS      7975       0.007      55.550     0.38
elaps:  cdiag         15829       0.769   12174.189    83.51
elaps:  cdiag1        15829       0.048     761.763     5.23
elaps:  cdiag2        15829       0.222    3512.866    24.10
elaps:  cdiag3        15829       0.468    7412.953    50.85
elaps:  cdiag4        15829       0.020     308.991     2.12
elaps:  c-eigvec       7854       0.795    6246.867    42.85
elaps:  c-buildD       7854       0.231    1814.262    12.45
elaps:  DHSCF4            1      10.015      10.015     0.07
elaps:  dfscf             1       9.465       9.465     0.06
elaps:  overfsm           1       0.055       0.055     0.00
elaps:  optical           1       0.000       0.000     0.00
  
>> End of run:  28-APR-2016   3:56:55
