Siesta Version:                                        siesta-3.2-pl-3
Architecture  : x86_64-unknown-linux-gnu--unknown
Compiler flags: mpiifort -g -O2 -fPIC -xSSE4.1 -fp-model source -shared-intel 
PARALLEL version

* Running on    8 nodes in parallel
>> Start of run:  24-APR-2016   2:21:19

                           ***********************       
                           *  WELCOME TO SIESTA  *       
                           ***********************       

reinit: Reading from standard input
************************** Dump of input data file ****************************
#(1) General system descriptors
SystemName            GRP_doping    # Descriptive name of the system
SystemLabel           GRP_doping    # Short name for naming files
%include STRUCT.fdf
%include KPT.fdf
%include BASIS.fdf
#%include TS.fdf # for transiesta calculation
#(4) DFT, Grid, SCF
XC.functional         GGA           # LDA or GGA (default = LDA)
XC.authors            PBE           # CA (Ceperley-Aldr) = PZ
                                    #    (Perdew-Zunger) - LDA - Default
                                    # PW92 (Perdew-Wang-92) - LDA
                                    # PBE (Perdew-Burke-Ernzerhof) - GGA
MeshCutoff            200.000000    Ry      # Default: 50.0 Ry ~ 0.444 Bohr
                                    #         100.0 Ry ~ 0.314 Bohr
MaxSCFIterations      500           # Default: 50
DM.MixingWeight       0.05          # Default: 0.25
DM.NumberPulay        10            # Default: 0
DM.PulayOnFile        F             # SystemLabel.P1, SystemLabel.P2
DM.Tolerance          1.d-4         # Default: 1.d-4
DM.UseSaveDM          .true.        # because of the bug
SCFMustConverge       .true.
NeglNonOverlapInt     F             # Default: F
#(5) Eigenvalue problem: order-N or diagonalization
SolutionMethod        Diagon        # or Transiesta
ElectronicTemperature 300.0 K       # Default: 300.0 K
#(6) Molecular dynamics and relaxations
#MD.TypeOfRun          CG            # Type of dynamics:
#MD.VariableCell       F
#MD.NumCGsteps         0           # 0 for single-point / 100 for gopt
#MD.MaxCGDispl         0.2 Bohr      # Default: 0.2 Bohr
#MD.MaxForceTol        0.02 eV/Ang   # Default: 0.04 eV/Ang
#MD.MaxStressTol       1.0 GPa       # Default: 1.0 GPa
# Geometry Constraints
#%block GeometryConstraints
#	position from 1 to 44
#%endblock GeometryConstraints
BandLinesScale   pi/a
%block BandLines
 1   0.00000000  0.00000000  0.00000000
50   0.00000000  0.07809418  0.00000000
50   0.04509075  0.07809242  0.00000000
20   0.00000000  0.00000000  0.00000000
%endblock BandLines
************************** End of input data file *****************************

reinit: -----------------------------------------------------------------------
reinit: System Name: GRP_doping
reinit: -----------------------------------------------------------------------
reinit: System Label: GRP_doping                                                  
reinit: -----------------------------------------------------------------------

initatom: Reading input for the pseudopotentials and atomic orbitals ----------
 Species number:            1  Label: N Atomic number:           7
 Species number:            2  Label: C Atomic number:           6
Ground state valence configuration:   2s02  2p03
Reading pseudopotential information in formatted form from N.psf

Valence configuration for pseudopotential generation:
2s( 2.00) rc: 1.48
2p( 3.00) rc: 1.48
3d( 0.00) rc: 1.48
4f( 0.00) rc: 1.48
Ground state valence configuration:   2s02  2p02
Reading pseudopotential information in formatted form from C.psf

Valence configuration for pseudopotential generation:
2s( 2.00) rc: 1.54
2p( 2.00) rc: 1.54
3d( 0.00) rc: 1.54
4f( 0.00) rc: 1.54
For N, standard SIESTA heuristics set lmxkb to 3
 (one more than the basis l, including polarization orbitals).
Use PS.lmax or PS.KBprojectors blocks to override.
For C, standard SIESTA heuristics set lmxkb to 3
 (one more than the basis l, including polarization orbitals).
Use PS.lmax or PS.KBprojectors blocks to override.

<basis_specs>
===============================================================================
N                    Z=   7    Mass=  14.010        Charge= 0.17977+309
Lmxo=1 Lmxkb= 3    BasisType=split      Semic=F
L=0  Nsemic=0  Cnfigmx=2
          n=1  nzeta=2  polorb=0
            splnorm:   0.15000    
               vcte:    0.0000    
               rinn:    0.0000    
                rcs:    0.0000      0.0000    
            lambdas:    1.0000      1.0000    
L=1  Nsemic=0  Cnfigmx=2
          n=1  nzeta=2  polorb=1
            splnorm:   0.15000    
               vcte:    0.0000    
               rinn:    0.0000    
                rcs:    0.0000      0.0000    
            lambdas:    1.0000      1.0000    
-------------------------------------------------------------------------------
L=0  Nkbl=1  erefs: 0.17977+309
L=1  Nkbl=1  erefs: 0.17977+309
L=2  Nkbl=1  erefs: 0.17977+309
L=3  Nkbl=1  erefs: 0.17977+309
===============================================================================
</basis_specs>

atom: Called for N                     (Z =   7)

read_vps: Pseudopotential generation method:
read_vps: ATM3      Troullier-Martins                       
Total valence charge:    5.00000

read_vps: Pseudopotential includes a core correction:
read_vps: Pseudo-core for xc-correction

xc_check: Exchange-correlation functional:
xc_check: GGA Perdew, Burke & Ernzerhof 1996
V l=0 = -2*Zval/r beyond r=  1.4606
V l=1 = -2*Zval/r beyond r=  1.4606
V l=2 = -2*Zval/r beyond r=  1.4606
V l=3 = -2*Zval/r beyond r=  1.4606
All V_l potentials equal beyond r=  1.4606
This should be close to max(r_c) in ps generation
All pots = -2*Zval/r beyond r=  1.4606

VLOCAL1: 99.0% of the norm of Vloc inside     20.347 Ry
VLOCAL1: 99.9% of the norm of Vloc inside     46.372 Ry
atom: Maximum radius for 4*pi*r*r*local-pseudopot. charge    1.76189
atom: Maximum radius for r*vlocal+2*Zval:    1.53550
GHOST: No ghost state for L =  0
GHOST: No ghost state for L =  1
GHOST: No ghost state for L =  2
GHOST: No ghost state for L =  3

KBgen: Kleinman-Bylander projectors: 
   l= 0   rc=  1.634559   el= -1.363963   Ekb=  5.296955   kbcos=  0.335621
   l= 1   rc=  1.614250   el= -0.521451   Ekb= -5.259161   kbcos= -0.433408
   l= 2   rc=  1.718383   el=  0.001991   Ekb= -1.271464   kbcos= -0.007566
   l= 3   rc=  1.761893   el=  0.003093   Ekb= -0.494769   kbcos= -0.001015

KBgen: Total number of  Kleinman-Bylander projectors:   16
atom: -------------------------------------------------------------------------

atom: SANKEY-TYPE ORBITALS:
atom: Selected multiple-zeta basis: split     

SPLIT: Orbitals with angular momentum L= 0

SPLIT: Basis orbitals for state 2s

SPLIT: PAO cut-off radius determined from an
SPLIT: energy shift=  0.007350 Ry

   izeta = 1
                 lambda =    1.000000
                     rc =    4.071465
                 energy =   -1.356470
                kinetic =    1.176977
    potential(screened) =   -2.533447
       potential(ionic) =   -8.057990

   izeta = 2
                 rmatch =    2.905100
              splitnorm =    0.150000
                 energy =   -1.158343
                kinetic =    1.813009
    potential(screened) =   -2.971352
       potential(ionic) =   -8.901931

SPLIT: Orbitals with angular momentum L= 1

SPLIT: Basis orbitals for state 2p

SPLIT: PAO cut-off radius determined from an
SPLIT: energy shift=  0.007350 Ry

   izeta = 1
                 lambda =    1.000000
                     rc =    4.972977
                 energy =   -0.513884
                kinetic =    3.441732
    potential(screened) =   -3.955616
       potential(ionic) =   -9.287901

   izeta = 2
                 rmatch =    3.054066
              splitnorm =    0.150000
                 energy =   -0.318226
                kinetic =    5.125348
    potential(screened) =   -5.443573
       potential(ionic) =  -11.380999

POLgen: Perturbative polarization orbital with L=  2

POLgen: Polarization orbital for state 2p

   izeta = 1
                     rc =    4.972977
                 energy =    1.607437
                kinetic =    3.268125
    potential(screened) =   -1.660688
       potential(ionic) =   -5.973652
atom: Total number of Sankey-type orbitals: 13

atm_pop: Valence configuration (for local Pseudopot. screening):
 2s( 2.00)                                                            
 2p( 3.00)                                                            
Vna: chval, zval:    5.00000   5.00000

Vna:  Cut-off radius for the neutral-atom potential:   4.972977
comcore: Pseudo-core radius Rcore=  1.554824

atom: _________________________________________________________________________

<basis_specs>
===============================================================================
C                    Z=   6    Mass=  12.010        Charge= 0.17977+309
Lmxo=1 Lmxkb= 3    BasisType=split      Semic=F
L=0  Nsemic=0  Cnfigmx=2
          n=1  nzeta=2  polorb=0
            splnorm:   0.15000    
               vcte:    0.0000    
               rinn:    0.0000    
                rcs:    0.0000      0.0000    
            lambdas:    1.0000      1.0000    
L=1  Nsemic=0  Cnfigmx=2
          n=1  nzeta=2  polorb=1
            splnorm:   0.15000    
               vcte:    0.0000    
               rinn:    0.0000    
                rcs:    0.0000      0.0000    
            lambdas:    1.0000      1.0000    
-------------------------------------------------------------------------------
L=0  Nkbl=1  erefs: 0.17977+309
L=1  Nkbl=1  erefs: 0.17977+309
L=2  Nkbl=1  erefs: 0.17977+309
L=3  Nkbl=1  erefs: 0.17977+309
===============================================================================
</basis_specs>

atom: Called for C                     (Z =   6)

read_vps: Pseudopotential generation method:
read_vps: ATM3      Troullier-Martins                       
Total valence charge:    4.00000

read_vps: Pseudopotential includes a core correction:
read_vps: Pseudo-core for xc-correction

xc_check: Exchange-correlation functional:
xc_check: GGA Perdew, Burke & Ernzerhof 1996
V l=0 = -2*Zval/r beyond r=  1.5227
V l=1 = -2*Zval/r beyond r=  1.5227
V l=2 = -2*Zval/r beyond r=  1.5227
V l=3 = -2*Zval/r beyond r=  1.5038
All V_l potentials equal beyond r=  1.5227
This should be close to max(r_c) in ps generation
All pots = -2*Zval/r beyond r=  1.5227

VLOCAL1: 99.0% of the norm of Vloc inside     18.722 Ry
VLOCAL1: 99.9% of the norm of Vloc inside     42.668 Ry
atom: Maximum radius for 4*pi*r*r*local-pseudopot. charge    1.83678
atom: Maximum radius for r*vlocal+2*Zval:    1.58088
GHOST: No ghost state for L =  0
GHOST: No ghost state for L =  1
GHOST: No ghost state for L =  2
GHOST: No ghost state for L =  3

KBgen: Kleinman-Bylander projectors: 
   l= 0   rc=  1.704034   el= -1.009801   Ekb=  5.335044   kbcos=  0.316824
   l= 1   rc=  1.704034   el= -0.388707   Ekb= -3.785862   kbcos= -0.366464
   l= 2   rc=  1.791422   el=  0.001971   Ekb= -0.970471   kbcos= -0.009212
   l= 3   rc=  1.859892   el=  0.003065   Ekb= -0.399525   kbcos= -0.001223

KBgen: Total number of  Kleinman-Bylander projectors:   16
atom: -------------------------------------------------------------------------

atom: SANKEY-TYPE ORBITALS:
atom: Selected multiple-zeta basis: split     

SPLIT: Orbitals with angular momentum L= 0

SPLIT: Basis orbitals for state 2s

SPLIT: PAO cut-off radius determined from an
SPLIT: energy shift=  0.007350 Ry

   izeta = 1
                 lambda =    1.000000
                     rc =    4.632753
                 energy =   -1.002270
                kinetic =    0.855760
    potential(screened) =   -1.858031
       potential(ionic) =   -5.417575

   izeta = 2
                 rmatch =    3.431921
              splitnorm =    0.150000
                 energy =   -0.867111
                kinetic =    1.300804
    potential(screened) =   -2.167915
       potential(ionic) =   -5.962684

SPLIT: Orbitals with angular momentum L= 1

SPLIT: Basis orbitals for state 2p

SPLIT: PAO cut-off radius determined from an
SPLIT: energy shift=  0.007350 Ry

   izeta = 1
                 lambda =    1.000000
                     rc =    5.658549
                 energy =   -0.381140
                kinetic =    2.399701
    potential(screened) =   -2.780841
       potential(ionic) =   -6.206085

   izeta = 2
                 rmatch =    3.653288
              splitnorm =    0.150000
                 energy =   -0.249149
                kinetic =    3.542762
    potential(screened) =   -3.791911
       potential(ionic) =   -7.581078

POLgen: Perturbative polarization orbital with L=  2

POLgen: Polarization orbital for state 2p

   izeta = 1
                     rc =    5.658549
                 energy =    1.109913
                kinetic =    2.304789
    potential(screened) =   -1.194876
       potential(ionic) =   -4.013592
atom: Total number of Sankey-type orbitals: 13

atm_pop: Valence configuration (for local Pseudopot. screening):
 2s( 2.00)                                                            
 2p( 2.00)                                                            
Vna: chval, zval:    4.00000   4.00000

Vna:  Cut-off radius for the neutral-atom potential:   5.658549
comcore: Pseudo-core radius Rcore=  1.791422

atom: _________________________________________________________________________

prinput: Basis input ----------------------------------------------------------

PAO.BasisType split     

%block ChemicalSpeciesLabel
    1    7 N                       # Species index, atomic number, species label
    2    6 C                       # Species index, atomic number, species label
%endblock ChemicalSpeciesLabel

%block PAO.Basis                 # Define Basis set
N                     2                    # Species label, number of l-shells
 n=2   0   2                         # n, l, Nzeta 
   4.071      2.905   
   1.000      1.000   
 n=2   1   2 P   1                   # n, l, Nzeta, Polarization, NzetaPol
   4.973      3.054   
   1.000      1.000   
C                     2                    # Species label, number of l-shells
 n=2   0   2                         # n, l, Nzeta 
   4.633      3.432   
   1.000      1.000   
 n=2   1   2 P   1                   # n, l, Nzeta, Polarization, NzetaPol
   5.659      3.653   
   1.000      1.000   
%endblock PAO.Basis

prinput: ----------------------------------------------------------------------

coor:   Atomic-coordinates input format  =     Fractional

siesta: Atomic coordinates (Bohr) and species
siesta:     -2.35420  38.89134   0.00000  1        1
siesta:     -2.35420  41.57980   0.00000  1        2
siesta:      4.63094  34.85847   0.00000  1        3
siesta:      4.63094  37.54693   0.00000  1        4
siesta:     -4.68258  34.85847   0.00000  1        5
siesta:     -4.68258  37.54693   0.00000  1        6
siesta:     -7.01096  14.69411   0.00000  1        7
siesta:     -7.01096  17.38257   0.00000  1        8
siesta:     -4.68258  18.72698   0.00000  1        9
siesta:     -4.68258  21.41544   0.00000  1       10
siesta:     -2.35420  22.75985   0.00000  1       11
siesta:     -2.35420  25.44831   0.00000  1       12
siesta:    -11.66772  22.75985   0.00000  1       13
siesta:    -11.66772  25.44831   0.00000  1       14
siesta:     -9.33934  26.79272   0.00000  1       15
siesta:     -9.33934  29.48119   0.00000  1       16
siesta:     -0.02582  26.79272   0.00000  1       17
siesta:     -0.02582  29.48119   0.00000  1       18
siesta:      2.30256  30.82560   0.00000  1       19
siesta:      2.30256  33.51406   0.00000  1       20
siesta:     -7.01096  30.82560   0.00000  1       21
siesta:     -7.01096  33.51406   0.00000  1       22
siesta:     -0.02582  42.92421   0.00000  1       23
siesta:     -0.02582  45.61267   0.00000  1       24
siesta:     -0.02582   2.59549   0.00000  2       25
siesta:     -0.02582   5.28395   0.00000  2       26
siesta:      2.30256  38.89134   0.00000  2       27
siesta:      2.30256  41.57980   0.00000  2       28
siesta:      6.95932  30.82560   0.00000  2       29
siesta:      6.95932  33.51406   0.00000  2       30
siesta:      9.28770  26.79272   0.00000  2       31
siesta:      9.28770  29.48119   0.00000  2       32
siesta:      2.30256   6.62836   0.00000  2       33
siesta:      2.30256   9.31683   0.00000  2       34
siesta:      4.63094  10.66124   0.00000  2       35
siesta:      4.63094  13.34970   0.00000  2       36
siesta:      6.95932  14.69411   0.00000  2       37
siesta:      6.95932  17.38257   0.00000  2       38
siesta:      9.28770  18.72698   0.00000  2       39
siesta:      9.28770  21.41544   0.00000  2       40
siesta:     11.61608  22.75985   0.00000  2       41
siesta:     11.61608  25.44831   0.00000  2       42
siesta:     -2.35420   6.62836   0.00000  2       43
siesta:     -2.35420   9.31683   0.00000  2       44
siesta:     -0.02582  10.66124   0.00000  2       45
siesta:     -0.02582  13.34970   0.00000  2       46
siesta:      2.30256  14.69411   0.00000  2       47
siesta:      2.30256  17.38257   0.00000  2       48
siesta:      4.63094  18.72698   0.00000  2       49
siesta:      4.63094  21.41544   0.00000  2       50
siesta:      6.95932  22.75985   0.00000  2       51
siesta:      6.95932  25.44831   0.00000  2       52
siesta:     -4.68258  10.66124   0.00000  2       53
siesta:     -4.68258  13.34970   0.00000  2       54
siesta:     -2.35420  14.69411   0.00000  2       55
siesta:     -2.35420  17.38257   0.00000  2       56
siesta:     -0.02582  18.72698   0.00000  2       57
siesta:     -0.02582  21.41544   0.00000  2       58
siesta:      2.30256  22.75985   0.00000  2       59
siesta:      2.30256  25.44831   0.00000  2       60
siesta:     -9.33934  18.72698   0.00000  2       61
siesta:     -9.33934  21.41544   0.00000  2       62
siesta:     -7.01096  22.75985   0.00000  2       63
siesta:     -7.01096  25.44831   0.00000  2       64
siesta:      4.63094  26.79272   0.00000  2       65
siesta:      4.63094  29.48119   0.00000  2       66
siesta:     -4.68258  26.79272   0.00000  2       67
siesta:     -4.68258  29.48119   0.00000  2       68
siesta:     -2.35420  30.82560   0.00000  2       69
siesta:     -2.35420  33.51406   0.00000  2       70
siesta:     -0.02582  34.85847   0.00000  2       71
siesta:     -0.02582  37.54693   0.00000  2       72

siesta: System type = slab      

initatomlists: Number of atoms, orbitals, and projectors:     72   936  1152

siesta: ******************** Simulation parameters ****************************
siesta:
siesta: The following are some of the parameters of the simulation.
siesta: A complete list of the parameters used, including default values,
siesta: can be found in file out.fdf
siesta:
redata: Non-Collinear-spin run           =     F
redata: SpinPolarized (Up/Down) run      =     F
redata: Number of spin components        =     1
redata: Long output                      =     F
redata: Number of Atomic Species         =        2
redata: Charge density info will appear in .RHO file
redata: Write Mulliken Pop.              =     NO
redata: Mesh Cutoff                      =   200.0000  Ry
redata: Net charge of the system         =     0.0000 |e|
redata: Max. number of SCF Iter          =      500
redata: SCF convergence failure will abort job
redata: Performing Pulay mixing using    =    10 iterations
redata: Mix DM in first SCF step ?       =     F
redata: Write Pulay info on disk?        =     F
redata: Discard 1st Pulay DM after  kick =     F
redata: New DM Mixing Weight             =     0.0500
redata: New DM Occupancy tolerance       = 0.000000000001
redata: No kicks to SCF
redata: DM Mixing Weight for Kicks       =     0.5000
redata: DM Tolerance for SCF             =     0.000100
redata: Require Energy convergence for SCF =     F
redata: DM Energy tolerance for SCF      =     0.000100 eV
redata: Require Harris convergence for SCF =     F
redata: DM Harris energy tolerance for SCF =     0.000100 eV
redata: Using Saved Data (generic)   =     F
redata: Use continuation files for DM    =     T
redata: Neglect nonoverlap interactions  =     F
redata: Method of Calculation            =     Diagonalization
redata: Divide and Conquer               =     T
redata: Electronic Temperature           =     0.0019  Ry
redata: Fix the spin of the system       =     F
redata: Dynamics option                  =     Verlet MD run
redata: Initial MD time step             =        1
redata:   Final MD time step             =        1
redata: Length of MD time step           =     1.0000  fs
redata: Initial Temperature of MD run    =     0.0000  K
redata: Perform a MD quench              =     F
redata: ***********************************************************************
Total number of electrons:   312.000000
Total ionic charge:   312.000000

* ProcessorY, Blocksize:    2  24

k-point displ. along   1 input, could be:     0.50    0.00
k-point displ. along   2 input, could be:     0.50    0.00
 Kpoints in:          231 . Kpoints trimmed:          231

siesta: k-grid: Number of k-points =   231
siesta: k-grid: Cutoff (effective) =     5.000 Ang
siesta: k-grid: Supercell and displacements
siesta: k-grid:   21   0   0      0.500
siesta: k-grid:    0  21   0      0.500
siesta: k-grid:    0   0   1      0.000
Naive supercell factors:     2    2    2

superc: Internal auxiliary supercell:     2 x     2 x     2  =       8
superc: Number of atoms, orbitals, and projectors:    576   7488   9216

* Maximum dynamic memory allocated =     4 MB

siesta:                 ==============================
                            Begin MD step =      1
                        ==============================

superc: Internal auxiliary supercell:     2 x     2 x     2  =       8
superc: Number of atoms, orbitals, and projectors:    576   7488   9216

outcell: Unit cell vectors (Ang):
       12.804619    7.392750    0.000000
        0.000000   14.785500    0.000000
        0.000000    0.000000   10.000000

outcell: Cell vector modules (Ang)   :   14.785500   14.785500   10.000000
outcell: Cell angles (23,13,12) (deg):     90.0000     90.0000     60.0000
outcell: Cell volume (Ang**3)        :   1893.2269
New_DM. Step:     1
Initializing Density Matrix...

InitMesh: MESH =   120 x   120 x    90 =     1296000
InitMesh: Mesh cutoff (required, used) =   200.000   223.865 Ry

* Maximum dynamic memory allocated =   179 MB

stepf: Fermi-Dirac step function

siesta: Program's energy decomposition (eV):
siesta: Ebs     =     -6385.635412
siesta: Eions   =     22260.935331
siesta: Ena     =      4981.217846
siesta: Ekin    =      8392.322035
siesta: Enl     =       -60.629622
siesta: DEna    =        -0.000015
siesta: DUscf   =         0.000000
siesta: DUext   =         0.000000
siesta: Exc     =     -4777.587907
siesta: eta*DQ  =         0.000000
siesta: Emadel  =         0.000000
siesta: Emeta   =         0.000000
siesta: Emolmec =         0.000000
siesta: Ekinion =         0.000000
siesta: Eharris =    -13348.776175
siesta: Etot    =    -13725.612994
siesta: FreeEng =    -13725.612994

siesta: iscf   Eharris(eV)      E_KS(eV)   FreeEng(eV)   dDmax  Ef(eV)
siesta:    1   -13348.7762   -13725.6130   -13725.6130  4.9876 -6.7709
timer: Routine,Calls,Time,% = IterSCF        1    3360.546  99.66
elaps: Routine,Calls,Wall,% = IterSCF        1     420.936  99.66
siesta:    2   -17562.3336   -12701.0119   -12701.0477 13.8282 -3.8845
siesta:    3   -13271.5604   -13500.5874   -13500.6160  2.2663 -4.5023
siesta:    4   -13253.7000   -13361.4047   -13361.4194  1.1114 -3.7281
siesta:    5   -13203.8642   -13302.3115   -13302.3311  0.8266 -3.7076
siesta:    6   -13191.1867   -13263.3352   -13263.3437  0.7136 -3.4863
siesta:    7   -13188.0158   -13254.9341   -13254.9791  0.7913 -3.4543
siesta:    8   -13184.7744   -13246.7929   -13246.8551  0.6305 -3.4636
siesta:    9   -13181.7405   -13224.8267   -13224.8717  0.4802 -3.6325
siesta:   10   -13181.3760   -13217.1694   -13217.2199  0.4529 -3.6130
siesta:   11   -13181.7242   -13202.3319   -13202.3935  0.3366 -3.6679
siesta:   12   -13181.8157   -13180.9051   -13180.9713  0.3184 -3.5955
siesta:   13   -13181.3151   -13170.9142   -13170.9830  0.3344 -3.6009
siesta:   14   -13180.9965   -13169.8263   -13169.9135  0.0980 -3.6105
siesta:   15   -13180.7515   -13167.8168   -13167.8957  0.1302 -3.6104
siesta:   16   -13180.5491   -13169.2872   -13169.3561  0.3964 -3.5888
siesta:   17   -13180.4148   -13170.7051   -13170.7654  0.1970 -3.5813
siesta:   18   -13180.2624   -13170.9818   -13171.0456  0.0991 -3.6105
siesta:   19   -13180.2151   -13172.4922   -13172.5606  0.0499 -3.6048
siesta:   20   -13180.2082   -13174.8320   -13174.9030  0.0569 -3.6005
siesta:   21   -13180.1940   -13178.8155   -13178.8865  0.0284 -3.6019
siesta:   22   -13180.1909   -13180.2854   -13180.3573  0.0253 -3.6018
siesta:   23   -13180.1865   -13181.1223   -13181.1937  0.0152 -3.5994
siesta:   24   -13180.1866   -13181.0298   -13181.1011  0.0361 -3.5984
siesta:   25   -13180.1855   -13181.1401   -13181.2113  0.0268 -3.5944
siesta:   26   -13180.1842   -13181.0198   -13181.0908  0.0071 -3.5921
siesta:   27   -13180.1846   -13180.7187   -13180.7903  0.0227 -3.5907
siesta:   28   -13180.1839   -13180.6576   -13180.7287  0.0028 -3.5906
siesta:   29   -13180.1837   -13180.5551   -13180.6265  0.0020 -3.5909
siesta:   30   -13180.1837   -13180.4496   -13180.5212  0.0017 -3.5914
siesta:   31   -13180.1838   -13180.3669   -13180.4385  0.0010 -3.5916
siesta:   32   -13180.1837   -13180.3499   -13180.4214  0.0005 -3.5920
siesta:   33   -13180.1838   -13180.2872   -13180.3587  0.0004 -3.5923
siesta:   34   -13180.1837   -13180.2625   -13180.3340  0.0003 -3.5923
siesta:   35   -13180.1837   -13180.2435   -13180.3150  0.0003 -3.5923
siesta:   36   -13180.1837   -13180.2161   -13180.2876  0.0002 -3.5923
siesta:   37   -13180.1837   -13180.2056   -13180.2771  0.0001 -3.5923
siesta:   38   -13180.1837   -13180.2000   -13180.2715  0.0001 -3.5923
siesta:   39   -13180.1837   -13180.1876   -13180.2591  0.0001 -3.5923

siesta: E_KS(eV) =           -13180.1858

siesta: E_KS - E_eggbox =    -13180.1858

siesta: Atomic forces (eV/Ang):
----------------------------------------
   Tot   -0.038493   -0.297473    0.000000
----------------------------------------
   Max  687.184570
   Res  183.319299    sqrt( Sum f_i^2 / 3N )
----------------------------------------
   Max  687.184570    constrained

Stress-tensor-Voigt (kbar):     -645.84    -3291.34       -0.02      -10.76        0.00        0.00
(Free)E + p*V (eV/cell)   -11629.4651
Target enthalpy (eV/cell)   -13180.2573

siesta: Stress tensor (static) (eV/Ang**3):
        -0.403095   -0.006715    0.000000
        -0.006715   -2.054272    0.000000
         0.000000    0.000000   -0.000013

siesta: Pressure (static):       1312.39946141  kBar

siesta: Stress tensor (total) (eV/Ang**3):
        -0.403095   -0.006715    0.000000
        -0.006715   -2.054272    0.000000
         0.000000    0.000000   -0.000013

siesta: Pressure (total):       1312.39946141  kBar

siesta: Temp_ion =       0.000 K

* Maximum dynamic memory allocated =   196 MB
Computing bands...

siesta: Program's energy decomposition (eV):
siesta: Ebs     =     -5112.858281
siesta: Eions   =     22260.935331
siesta: Ena     =      4981.217846
siesta: Ekin    =     11560.134181
siesta: Enl     =     -1794.209759
siesta: DEna    =      -823.446742
siesta: DUscf   =       115.428019
siesta: DUext   =         0.000000
siesta: Exc     =     -4958.374014
siesta: eta*DQ  =         0.000000
siesta: Emadel  =         0.000000
siesta: Emeta   =         0.000000
siesta: Emolmec =         0.000000
siesta: Ekinion =         0.000000
siesta: Eharris =    -13180.183732
siesta: Etot    =    -13180.185800
siesta: FreeEng =    -13180.257288

siesta: Final energy (eV):
siesta:  Band Struct. =   -5112.858281
siesta:       Kinetic =   11560.134181
siesta:       Hartree =   36924.197428
siesta:    Ext. field =       0.000000
siesta:   Exch.-corr. =   -4958.374014
siesta:  Ion-electron =  -84876.812084
siesta:       Ion-ion =   28170.668689
siesta:       Ekinion =       0.000000
siesta:         Total =  -13180.185800

siesta: Atomic forces (eV/Ang):
siesta:      1    2.543634  110.370140    0.000000
siesta:      2  -28.719433 -655.519121    0.000000
siesta:      3   33.089574    2.840428    0.000000
siesta:      4   21.962282 -650.129746    0.000000
siesta:      5  -23.650582    3.187952    0.000000
siesta:      6  -27.287368 -654.997801    0.000000
siesta:      7    2.461432    3.057263    0.000000
siesta:      8   -4.304109   -0.646286    0.000000
siesta:      9    3.176351    2.619170    0.000000
siesta:     10   -1.575423    0.787772    0.000000
siesta:     11   -0.734855   -2.355228    0.000000
siesta:     12   -2.688831    0.259601    0.000000
siesta:     13    1.644130    3.007475    0.000000
siesta:     14    0.228218   -1.872451    0.000000
siesta:     15    2.282669    0.051981    0.000000
siesta:     16   -0.861145    0.360729    0.000000
siesta:     17   -0.413003    2.993342    0.000000
siesta:     18  -11.562748 -685.094993    0.000000
siesta:     19   32.546107    8.219265    0.000000
siesta:     20   -4.934252 -673.607903    0.000000
siesta:     21    1.046528   -0.879072    0.000000
siesta:     22   -0.739728   -3.018639    0.000000
siesta:     23   -0.151984  110.608251    0.000000
siesta:     24   -1.709418 -646.302848    0.000000
siesta:     25   10.792634  643.115839    0.000000
siesta:     26   -0.575325 -117.980880    0.000000
siesta:     27   -1.140995  132.662940    0.000000
siesta:     28   20.367838 -554.637228    0.000000
siesta:     29    0.722479    0.808739    0.000000
siesta:     30   -1.871991    1.500452    0.000000
siesta:     31    1.659547    2.939631    0.000000
siesta:     32   -0.999615    0.150322    0.000000
siesta:     33   35.853324  651.592371    0.000000
siesta:     34   -3.869335 -122.109260    0.000000
siesta:     35   36.312149  654.854420    0.000000
siesta:     36   25.348631   -5.516996    0.000000
siesta:     37   -2.680054   -1.974261    0.000000
siesta:     38    1.652516   -0.224853    0.000000
siesta:     39   -1.484654    0.286984    0.000000
siesta:     40    1.848146   -2.930561    0.000000
siesta:     41   -0.029034    7.871202    0.000000
siesta:     42   -0.060500   -7.756089    0.000000
siesta:     43  -36.413536  550.501181    0.000000
siesta:     44    1.805596 -126.420608    0.000000
siesta:     45  -18.630957  549.851283    0.000000
siesta:     46    3.394159 -122.901304    0.000000
siesta:     47    2.721967  561.443975    0.000000
siesta:     48   24.254880   -4.971870    0.000000
siesta:     49   -1.369762    3.798382    0.000000
siesta:     50    0.684325   -0.476653    0.000000
siesta:     51   -0.324128    1.039061    0.000000
siesta:     52    0.155547   -1.029793    0.000000
siesta:     53  -23.269783  659.627693    0.000000
siesta:     54  -23.608689   -6.158568    0.000000
siesta:     55    0.716941  686.453074    0.000000
siesta:     56  -24.912968   -6.707510    0.000000
siesta:     57    2.466993  687.184570    0.000000
siesta:     58   -0.471725    0.128646    0.000000
siesta:     59   -1.024458    1.063408    0.000000
siesta:     60    0.392576   -0.717273    0.000000
siesta:     61    0.950095   -1.532903    0.000000
siesta:     62   -0.383735   -0.720181    0.000000
siesta:     63    0.770256    0.825485    0.000000
siesta:     64   -0.009105   -0.868634    0.000000
siesta:     65   -0.969349    1.273252    0.000000
siesta:     66   -0.917758   -2.865423    0.000000
siesta:     67    0.265284    0.548073    0.000000
siesta:     68    0.632181   -2.689431    0.000000
siesta:     69  -25.026968   11.355326    0.000000
siesta:     70   -2.261360 -569.142708    0.000000
siesta:     71   -0.497475  128.726431    0.000000
siesta:     72    7.348658 -553.506510    0.000000
siesta: ----------------------------------------
siesta:    Tot   -0.038493   -0.297473    0.000000

siesta: Stress tensor (static) (eV/Ang**3):
siesta:    -0.403095   -0.006715    0.000000
siesta:    -0.006715   -2.054272    0.000000
siesta:     0.000000    0.000000   -0.000013

siesta: Cell volume =       1893.226884 Ang**3

siesta: Pressure (static):
siesta:                Solid            Molecule  Units
siesta:           0.00892133          0.14561124  Ry/Bohr**3
siesta:           0.81912646         13.36952897  eV/Ang**3
siesta:        1312.39946141      21420.57846286  kBar
(Free)E+ p_basis*V_orbitals  =      -13152.950796
(Free)Eharris+ p_basis*V_orbitals  =      -13152.946928

siesta: Electric dipole (a.u.)  =    0.000000    0.000000    0.000000
siesta: Electric dipole (Debye) =    0.000000    0.000000    0.000000

* Maximum dynamic memory allocated : Node    0 =   196 MB
* Maximum dynamic memory allocated : Node    1 =    71 MB
* Maximum dynamic memory allocated : Node    2 =    73 MB
* Maximum dynamic memory allocated : Node    3 =   186 MB
* Maximum dynamic memory allocated : Node    4 =   185 MB
* Maximum dynamic memory allocated : Node    5 =    70 MB
* Maximum dynamic memory allocated : Node    6 =    72 MB
* Maximum dynamic memory allocated : Node    7 =   171 MB

* Maximum memory occured during matrixMtoO                    

timer: CPU execution times:
timer:  Routine       Calls   Time/call    Tot.time        %
timer:  siesta            1  128603.130  128603.130   100.00
timer:  Setup             1       3.814       3.814     0.00
timer:  bands             3     243.582     730.746     0.57
timer:  writewave         1       0.045       0.045     0.00
timer:  KSV_init          1       0.006       0.006     0.00
timer:  IterMD            1  127863.304  127863.304    99.42
timer:  hsparse           1       0.280       0.280     0.00
timer:  overlap           1       7.122       7.122     0.01
timer:  IterSCF          39    3274.781  127716.460    99.31
timer:  kinefsm           2       3.671       7.341     0.01
timer:  nlefsm            2      17.281      34.562     0.03
timer:  DHSCF            40      71.940    2877.581     2.24
timer:  DHSCF1            1       0.744       0.744     0.00
timer:  DHSCF2            1      30.138      30.138     0.02
timer:  REORD           322       0.005       1.637     0.00
timer:  POISON           41       0.872      35.769     0.03
timer:  DHSCF3           40      70.460    2818.403     2.19
timer:  rhoofd           40      14.949     597.943     0.46
timer:  cellXC           40       3.210     128.395     0.10
timer:  vmat             40      32.749    1309.942     1.02
timer:  MolMec            2       0.000       0.001     0.00
timer:  diagon           39    3201.724  124867.223    97.10
timer:  c-eigval       9130       6.029   55040.365    42.80
timer:  c-buildHS      9130       0.047     427.235     0.33
timer:  cdiag         18139       6.137  111323.456    86.56
timer:  cdiag1        18139       0.384    6966.320     5.42
timer:  cdiag2        18139       1.766   32040.798    24.91
timer:  cdiag3        18139       3.744   67903.640    52.80
timer:  cdiag4        18139       0.152    2755.220     2.14
timer:  c-eigvec       9009       6.334   57060.153    44.37
timer:  c-buildD       9009       1.493   13451.879    10.46
timer:  DHSCF4            1      27.522      27.522     0.02
timer:  dfscf             1      25.681      25.681     0.02
timer:  overfsm           1       0.372       0.372     0.00
timer:  optical           1       4.630       4.630     0.00
  

elaps: ELAPSED times:
elaps:  Routine       Calls   Time/call    Tot.time        %
elaps:  siesta            1   16105.847   16105.847   100.00
elaps:  Setup             1       0.496       0.496     0.00
elaps:  bands             3      30.524      91.572     0.57
elaps:  writewave         1       0.006       0.006     0.00
elaps:  KSV_init          1       0.001       0.001     0.00
elaps:  IterMD            1   16013.169   16013.169    99.42
elaps:  hsparse           1       0.036       0.036     0.00
elaps:  overlap           1       0.892       0.892     0.01
elaps:  IterSCF          39     410.125   15994.893    99.31
elaps:  kinefsm           2       0.462       0.924     0.01
elaps:  nlefsm            2       2.191       4.383     0.03
elaps:  DHSCF            40       9.101     364.021     2.26
elaps:  DHSCF1            1       0.095       0.095     0.00
elaps:  DHSCF2            1       3.773       3.773     0.02
elaps:  REORD           322       0.001       0.221     0.00
elaps:  POISON           41       0.110       4.491     0.03
elaps:  DHSCF3           40       8.825     352.982     2.19
elaps:  rhoofd           40       4.165     166.584     1.03
elaps:  cellXC           40       0.402      16.066     0.10
elaps:  vmat             40       4.102     164.065     1.02
elaps:  MolMec            2       0.000       0.000     0.00
elaps:  diagon           39     400.964   15637.612    97.09
elaps:  c-eigval       9130       0.755    6892.868    42.80
elaps:  c-buildHS      9130       0.006      57.091     0.35
elaps:  cdiag         18139       0.769   13945.826    86.59
elaps:  cdiag1        18139       0.048     872.207     5.42
elaps:  cdiag2        18139       0.221    4013.520    24.92
elaps:  cdiag3        18139       0.469    8514.680    52.87
elaps:  cdiag4        18139       0.019     343.564     2.13
elaps:  c-eigvec       9009       0.794    7152.852    44.41
elaps:  c-buildD       9009       0.186    1676.704    10.41
elaps:  DHSCF4            1       7.069       7.069     0.04
elaps:  dfscf             1       6.675       6.675     0.04
elaps:  overfsm           1       0.047       0.047     0.00
elaps:  optical           1       0.001       0.001     0.00
  
>> End of run:  24-APR-2016   6:49:45
