Siesta Version:                                        siesta-3.2-pl-3
Architecture  : x86_64-unknown-linux-gnu--unknown
Compiler flags: mpiifort -g -O2 -fPIC -xSSE4.1 -fp-model source -shared-intel 
PARALLEL version

* Running on    8 nodes in parallel
>> Start of run:   7-MAY-2016   3:33:02

                           ***********************       
                           *  WELCOME TO SIESTA  *       
                           ***********************       

reinit: Reading from standard input
************************** Dump of input data file ****************************
#(1) General system descriptors
SystemName            GRP_doping    # Descriptive name of the system
SystemLabel           GRP_doping    # Short name for naming files
%include STRUCT.fdf
%include KPT.fdf
%include BASIS.fdf
#%include TS.fdf # for transiesta calculation
#(4) DFT, Grid, SCF
XC.functional         GGA           # LDA or GGA (default = LDA)
XC.authors            PBE           # CA (Ceperley-Aldr) = PZ
                                    #    (Perdew-Zunger) - LDA - Default
                                    # PW92 (Perdew-Wang-92) - LDA
                                    # PBE (Perdew-Burke-Ernzerhof) - GGA
MeshCutoff            200.000000    Ry      # Default: 50.0 Ry ~ 0.444 Bohr
                                    #         100.0 Ry ~ 0.314 Bohr
MaxSCFIterations      500           # Default: 50
DM.MixingWeight       0.05          # Default: 0.25
DM.NumberPulay        10            # Default: 0
DM.PulayOnFile        F             # SystemLabel.P1, SystemLabel.P2
DM.Tolerance          1.d-4         # Default: 1.d-4
DM.UseSaveDM          .true.        # because of the bug
SCFMustConverge       .true.
NeglNonOverlapInt     F             # Default: F
#(5) Eigenvalue problem: order-N or diagonalization
SolutionMethod        Diagon        # or Transiesta
ElectronicTemperature 300.0 K       # Default: 300.0 K
#(6) Molecular dynamics and relaxations
#MD.TypeOfRun          CG            # Type of dynamics:
#MD.VariableCell       F
#MD.NumCGsteps         0           # 0 for single-point / 100 for gopt
#MD.MaxCGDispl         0.2 Bohr      # Default: 0.2 Bohr
#MD.MaxForceTol        0.02 eV/Ang   # Default: 0.04 eV/Ang
#MD.MaxStressTol       1.0 GPa       # Default: 1.0 GPa
# Geometry Constraints
#%block GeometryConstraints
#	position from 1 to 44
#%endblock GeometryConstraints
BandLinesScale   pi/a
%block BandLines
 1   0.00000000  0.00000000  0.00000000
50   0.00000000  0.07809418  0.00000000
50   0.04509075  0.07809242  0.00000000
20   0.00000000  0.00000000  0.00000000
%endblock BandLines
************************** End of input data file *****************************

reinit: -----------------------------------------------------------------------
reinit: System Name: GRP_doping
reinit: -----------------------------------------------------------------------
reinit: System Label: GRP_doping                                                  
reinit: -----------------------------------------------------------------------

initatom: Reading input for the pseudopotentials and atomic orbitals ----------
 Species number:            1  Label: B Atomic number:           5
 Species number:            2  Label: C Atomic number:           6
Ground state valence configuration:   2s02  2p01
Reading pseudopotential information in formatted form from B.psf

Valence configuration for pseudopotential generation:
2s( 2.00) rc: 1.74
2p( 1.00) rc: 1.74
3d( 0.00) rc: 1.74
4f( 0.00) rc: 1.74
Ground state valence configuration:   2s02  2p02
Reading pseudopotential information in formatted form from C.psf

Valence configuration for pseudopotential generation:
2s( 2.00) rc: 1.54
2p( 2.00) rc: 1.54
3d( 0.00) rc: 1.54
4f( 0.00) rc: 1.54
For B, standard SIESTA heuristics set lmxkb to 3
 (one more than the basis l, including polarization orbitals).
Use PS.lmax or PS.KBprojectors blocks to override.
For C, standard SIESTA heuristics set lmxkb to 3
 (one more than the basis l, including polarization orbitals).
Use PS.lmax or PS.KBprojectors blocks to override.

<basis_specs>
===============================================================================
B                    Z=   5    Mass=  10.810        Charge= 0.17977+309
Lmxo=1 Lmxkb= 3    BasisType=split      Semic=F
L=0  Nsemic=0  Cnfigmx=2
          n=1  nzeta=2  polorb=0
            splnorm:   0.15000    
               vcte:    0.0000    
               rinn:    0.0000    
                rcs:    0.0000      0.0000    
            lambdas:    1.0000      1.0000    
L=1  Nsemic=0  Cnfigmx=2
          n=1  nzeta=2  polorb=1
            splnorm:   0.15000    
               vcte:    0.0000    
               rinn:    0.0000    
                rcs:    0.0000      0.0000    
            lambdas:    1.0000      1.0000    
-------------------------------------------------------------------------------
L=0  Nkbl=1  erefs: 0.17977+309
L=1  Nkbl=1  erefs: 0.17977+309
L=2  Nkbl=1  erefs: 0.17977+309
L=3  Nkbl=1  erefs: 0.17977+309
===============================================================================
</basis_specs>

atom: Called for B                     (Z =   5)

read_vps: Pseudopotential generation method:
read_vps: ATM3      Troullier-Martins                       
Total valence charge:    3.00000

read_vps: Pseudopotential includes a core correction:
read_vps: Pseudo-core for xc-correction

xc_check: Exchange-correlation functional:
xc_check: GGA Perdew, Burke & Ernzerhof 1996
V l=0 = -2*Zval/r beyond r=  1.7165
V l=1 = -2*Zval/r beyond r=  1.7165
V l=2 = -2*Zval/r beyond r=  1.7165
V l=3 = -2*Zval/r beyond r=  1.6951
All V_l potentials equal beyond r=  1.7165
This should be close to max(r_c) in ps generation
All pots = -2*Zval/r beyond r=  1.7165

VLOCAL1: 99.0% of the norm of Vloc inside     14.733 Ry
VLOCAL1: 99.9% of the norm of Vloc inside     33.577 Ry
atom: Maximum radius for 4*pi*r*r*local-pseudopot. charge    2.04484
atom: Maximum radius for r*vlocal+2*Zval:    1.75994
GHOST: No ghost state for L =  0
GHOST: No ghost state for L =  1
GHOST: No ghost state for L =  2
GHOST: No ghost state for L =  3

KBgen: Kleinman-Bylander projectors: 
   l= 0   rc=  1.897051   el= -0.693730   Ekb=  4.595746   kbcos=  0.286105
   l= 1   rc=  1.920920   el= -0.265236   Ekb= -2.350715   kbcos= -0.315747
   l= 2   rc=  2.044840   el=  0.002055   Ekb= -0.690767   kbcos= -0.013822
   l= 3   rc=  2.149707   el=  0.003188   Ekb= -0.315358   kbcos= -0.002055

KBgen: Total number of  Kleinman-Bylander projectors:   16
atom: -------------------------------------------------------------------------

atom: SANKEY-TYPE ORBITALS:
atom: Selected multiple-zeta basis: split     

SPLIT: Orbitals with angular momentum L= 0

SPLIT: Basis orbitals for state 2s

SPLIT: PAO cut-off radius determined from an
SPLIT: energy shift=  0.007350 Ry

   izeta = 1
                 lambda =    1.000000
                     rc =    5.422032
                 energy =   -0.686029
                kinetic =    0.576707
    potential(screened) =   -1.262736
       potential(ionic) =   -3.271094

   izeta = 2
                 rmatch =    4.222573
              splitnorm =    0.150000
                 energy =   -0.602132
                kinetic =    0.858975
    potential(screened) =   -1.461107
       potential(ionic) =   -3.582536

SPLIT: Orbitals with angular momentum L= 1

SPLIT: Basis orbitals for state 2p

SPLIT: PAO cut-off radius determined from an
SPLIT: energy shift=  0.007350 Ry

   izeta = 1
                 lambda =    1.000000
                     rc =    6.790259
                 energy =   -0.258578
                kinetic =    1.481412
    potential(screened) =   -1.739989
       potential(ionic) =   -3.657461

   izeta = 2
                 rmatch =    4.608740
              splitnorm =    0.150000
                 energy =   -0.173757
                kinetic =    2.186690
    potential(screened) =   -2.360447
       potential(ionic) =   -4.464260

POLgen: Perturbative polarization orbital with L=  2

POLgen: Polarization orbital for state 2p

   izeta = 1
                     rc =    6.790259
                 energy =    0.684082
                kinetic =    1.471481
    potential(screened) =   -0.787399
       potential(ionic) =   -2.406985
atom: Total number of Sankey-type orbitals: 13

atm_pop: Valence configuration (for local Pseudopot. screening):
 2s( 2.00)                                                            
 2p( 1.00)                                                            
Vna: chval, zval:    3.00000   3.00000

Vna:  Cut-off radius for the neutral-atom potential:   6.790259
comcore: Pseudo-core radius Rcore=  2.122997

atom: _________________________________________________________________________

<basis_specs>
===============================================================================
C                    Z=   6    Mass=  12.010        Charge= 0.17977+309
Lmxo=1 Lmxkb= 3    BasisType=split      Semic=F
L=0  Nsemic=0  Cnfigmx=2
          n=1  nzeta=2  polorb=0
            splnorm:   0.15000    
               vcte:    0.0000    
               rinn:    0.0000    
                rcs:    0.0000      0.0000    
            lambdas:    1.0000      1.0000    
L=1  Nsemic=0  Cnfigmx=2
          n=1  nzeta=2  polorb=1
            splnorm:   0.15000    
               vcte:    0.0000    
               rinn:    0.0000    
                rcs:    0.0000      0.0000    
            lambdas:    1.0000      1.0000    
-------------------------------------------------------------------------------
L=0  Nkbl=1  erefs: 0.17977+309
L=1  Nkbl=1  erefs: 0.17977+309
L=2  Nkbl=1  erefs: 0.17977+309
L=3  Nkbl=1  erefs: 0.17977+309
===============================================================================
</basis_specs>

atom: Called for C                     (Z =   6)

read_vps: Pseudopotential generation method:
read_vps: ATM3      Troullier-Martins                       
Total valence charge:    4.00000

read_vps: Pseudopotential includes a core correction:
read_vps: Pseudo-core for xc-correction

xc_check: Exchange-correlation functional:
xc_check: GGA Perdew, Burke & Ernzerhof 1996
V l=0 = -2*Zval/r beyond r=  1.5227
V l=1 = -2*Zval/r beyond r=  1.5227
V l=2 = -2*Zval/r beyond r=  1.5227
V l=3 = -2*Zval/r beyond r=  1.5038
All V_l potentials equal beyond r=  1.5227
This should be close to max(r_c) in ps generation
All pots = -2*Zval/r beyond r=  1.5227

VLOCAL1: 99.0% of the norm of Vloc inside     18.722 Ry
VLOCAL1: 99.9% of the norm of Vloc inside     42.668 Ry
atom: Maximum radius for 4*pi*r*r*local-pseudopot. charge    1.83678
atom: Maximum radius for r*vlocal+2*Zval:    1.58088
GHOST: No ghost state for L =  0
GHOST: No ghost state for L =  1
GHOST: No ghost state for L =  2
GHOST: No ghost state for L =  3

KBgen: Kleinman-Bylander projectors: 
   l= 0   rc=  1.704034   el= -1.009801   Ekb=  5.335044   kbcos=  0.316824
   l= 1   rc=  1.704034   el= -0.388707   Ekb= -3.785862   kbcos= -0.366464
   l= 2   rc=  1.791422   el=  0.001971   Ekb= -0.970471   kbcos= -0.009212
   l= 3   rc=  1.859892   el=  0.003065   Ekb= -0.399525   kbcos= -0.001223

KBgen: Total number of  Kleinman-Bylander projectors:   16
atom: -------------------------------------------------------------------------

atom: SANKEY-TYPE ORBITALS:
atom: Selected multiple-zeta basis: split     

SPLIT: Orbitals with angular momentum L= 0

SPLIT: Basis orbitals for state 2s

SPLIT: PAO cut-off radius determined from an
SPLIT: energy shift=  0.007350 Ry

   izeta = 1
                 lambda =    1.000000
                     rc =    4.632753
                 energy =   -1.002270
                kinetic =    0.855760
    potential(screened) =   -1.858031
       potential(ionic) =   -5.417575

   izeta = 2
                 rmatch =    3.431921
              splitnorm =    0.150000
                 energy =   -0.867111
                kinetic =    1.300804
    potential(screened) =   -2.167915
       potential(ionic) =   -5.962684

SPLIT: Orbitals with angular momentum L= 1

SPLIT: Basis orbitals for state 2p

SPLIT: PAO cut-off radius determined from an
SPLIT: energy shift=  0.007350 Ry

   izeta = 1
                 lambda =    1.000000
                     rc =    5.658549
                 energy =   -0.381140
                kinetic =    2.399701
    potential(screened) =   -2.780841
       potential(ionic) =   -6.206085

   izeta = 2
                 rmatch =    3.653288
              splitnorm =    0.150000
                 energy =   -0.249149
                kinetic =    3.542762
    potential(screened) =   -3.791911
       potential(ionic) =   -7.581078

POLgen: Perturbative polarization orbital with L=  2

POLgen: Polarization orbital for state 2p

   izeta = 1
                     rc =    5.658549
                 energy =    1.109913
                kinetic =    2.304789
    potential(screened) =   -1.194876
       potential(ionic) =   -4.013592
atom: Total number of Sankey-type orbitals: 13

atm_pop: Valence configuration (for local Pseudopot. screening):
 2s( 2.00)                                                            
 2p( 2.00)                                                            
Vna: chval, zval:    4.00000   4.00000

Vna:  Cut-off radius for the neutral-atom potential:   5.658549
comcore: Pseudo-core radius Rcore=  1.791422

atom: _________________________________________________________________________

prinput: Basis input ----------------------------------------------------------

PAO.BasisType split     

%block ChemicalSpeciesLabel
    1    5 B                       # Species index, atomic number, species label
    2    6 C                       # Species index, atomic number, species label
%endblock ChemicalSpeciesLabel

%block PAO.Basis                 # Define Basis set
B                     2                    # Species label, number of l-shells
 n=2   0   2                         # n, l, Nzeta 
   5.422      4.223   
   1.000      1.000   
 n=2   1   2 P   1                   # n, l, Nzeta, Polarization, NzetaPol
   6.790      4.609   
   1.000      1.000   
C                     2                    # Species label, number of l-shells
 n=2   0   2                         # n, l, Nzeta 
   4.633      3.432   
   1.000      1.000   
 n=2   1   2 P   1                   # n, l, Nzeta, Polarization, NzetaPol
   5.659      3.653   
   1.000      1.000   
%endblock PAO.Basis

prinput: ----------------------------------------------------------------------

coor:   Atomic-coordinates input format  =     Fractional

siesta: Atomic coordinates (Bohr) and species
siesta:     -2.35420  17.38257   0.00000  1        1
siesta:     -0.02582  18.72698   0.00000  1        2
siesta:     -0.02582  21.41544   0.00000  1        3
siesta:     -4.68258  18.72698   0.00000  1        4
siesta:     -4.68258  21.41544   0.00000  1        5
siesta:     -2.35420  22.75985   0.00000  1        6
siesta:     -2.35420  25.44831   0.00000  1        7
siesta:     -0.02582  26.79272   0.00000  1        8
siesta:     -0.02582  29.48119   0.00000  1        9
siesta:     -4.68258  26.79272   0.00000  1       10
siesta:     -4.68258  29.48119   0.00000  1       11
siesta:     -2.35420  30.82560   0.00000  1       12
siesta:     -0.02582   2.59549   0.00000  2       13
siesta:     -0.02582   5.28395   0.00000  2       14
siesta:     -2.35420  38.89134   0.00000  2       15
siesta:     -2.35420  41.57980   0.00000  2       16
siesta:      2.30256  38.89134   0.00000  2       17
siesta:      2.30256  41.57980   0.00000  2       18
siesta:      4.63094  34.85847   0.00000  2       19
siesta:      4.63094  37.54693   0.00000  2       20
siesta:      6.95932  30.82560   0.00000  2       21
siesta:      6.95932  33.51406   0.00000  2       22
siesta:      9.28770  26.79272   0.00000  2       23
siesta:      9.28770  29.48119   0.00000  2       24
siesta:     -4.68258  34.85847   0.00000  2       25
siesta:     -4.68258  37.54693   0.00000  2       26
siesta:      2.30256   6.62836   0.00000  2       27
siesta:      2.30256   9.31683   0.00000  2       28
siesta:      4.63094  10.66124   0.00000  2       29
siesta:      4.63094  13.34970   0.00000  2       30
siesta:      6.95932  14.69411   0.00000  2       31
siesta:      6.95932  17.38257   0.00000  2       32
siesta:      9.28770  18.72698   0.00000  2       33
siesta:      9.28770  21.41544   0.00000  2       34
siesta:     11.61608  22.75985   0.00000  2       35
siesta:     11.61608  25.44831   0.00000  2       36
siesta:     -2.35420   6.62836   0.00000  2       37
siesta:     -2.35420   9.31683   0.00000  2       38
siesta:     -0.02582  10.66124   0.00000  2       39
siesta:     -0.02582  13.34970   0.00000  2       40
siesta:      2.30256  14.69411   0.00000  2       41
siesta:      2.30256  17.38257   0.00000  2       42
siesta:      4.63094  18.72698   0.00000  2       43
siesta:      4.63094  21.41544   0.00000  2       44
siesta:      6.95932  22.75985   0.00000  2       45
siesta:      6.95932  25.44831   0.00000  2       46
siesta:     -4.68258  10.66124   0.00000  2       47
siesta:     -4.68258  13.34970   0.00000  2       48
siesta:     -2.35420  14.69411   0.00000  2       49
siesta:      2.30256  22.75985   0.00000  2       50
siesta:      2.30256  25.44831   0.00000  2       51
siesta:     -7.01096  14.69411   0.00000  2       52
siesta:     -7.01096  17.38257   0.00000  2       53
siesta:     -9.33934  18.72698   0.00000  2       54
siesta:     -9.33934  21.41544   0.00000  2       55
siesta:     -7.01096  22.75985   0.00000  2       56
siesta:     -7.01096  25.44831   0.00000  2       57
siesta:    -11.66772  22.75985   0.00000  2       58
siesta:    -11.66772  25.44831   0.00000  2       59
siesta:     -9.33934  26.79272   0.00000  2       60
siesta:     -9.33934  29.48119   0.00000  2       61
siesta:      4.63094  26.79272   0.00000  2       62
siesta:      4.63094  29.48119   0.00000  2       63
siesta:      2.30256  30.82560   0.00000  2       64
siesta:      2.30256  33.51406   0.00000  2       65
siesta:     -2.35420  33.51406   0.00000  2       66
siesta:     -7.01096  30.82560   0.00000  2       67
siesta:     -7.01096  33.51406   0.00000  2       68
siesta:     -0.02582  34.85847   0.00000  2       69
siesta:     -0.02582  37.54693   0.00000  2       70
siesta:     -0.02582  42.92421   0.00000  2       71
siesta:     -0.02582  45.61267   0.00000  2       72

siesta: System type = slab      

initatomlists: Number of atoms, orbitals, and projectors:     72   936  1152

siesta: ******************** Simulation parameters ****************************
siesta:
siesta: The following are some of the parameters of the simulation.
siesta: A complete list of the parameters used, including default values,
siesta: can be found in file out.fdf
siesta:
redata: Non-Collinear-spin run           =     F
redata: SpinPolarized (Up/Down) run      =     F
redata: Number of spin components        =     1
redata: Long output                      =     F
redata: Number of Atomic Species         =        2
redata: Charge density info will appear in .RHO file
redata: Write Mulliken Pop.              =     NO
redata: Mesh Cutoff                      =   200.0000  Ry
redata: Net charge of the system         =     0.0000 |e|
redata: Max. number of SCF Iter          =      500
redata: SCF convergence failure will abort job
redata: Performing Pulay mixing using    =    10 iterations
redata: Mix DM in first SCF step ?       =     F
redata: Write Pulay info on disk?        =     F
redata: Discard 1st Pulay DM after  kick =     F
redata: New DM Mixing Weight             =     0.0500
redata: New DM Occupancy tolerance       = 0.000000000001
redata: No kicks to SCF
redata: DM Mixing Weight for Kicks       =     0.5000
redata: DM Tolerance for SCF             =     0.000100
redata: Require Energy convergence for SCF =     F
redata: DM Energy tolerance for SCF      =     0.000100 eV
redata: Require Harris convergence for SCF =     F
redata: DM Harris energy tolerance for SCF =     0.000100 eV
redata: Using Saved Data (generic)   =     F
redata: Use continuation files for DM    =     T
redata: Neglect nonoverlap interactions  =     F
redata: Method of Calculation            =     Diagonalization
redata: Divide and Conquer               =     T
redata: Electronic Temperature           =     0.0019  Ry
redata: Fix the spin of the system       =     F
redata: Dynamics option                  =     Verlet MD run
redata: Initial MD time step             =        1
redata:   Final MD time step             =        1
redata: Length of MD time step           =     1.0000  fs
redata: Initial Temperature of MD run    =     0.0000  K
redata: Perform a MD quench              =     F
redata: ***********************************************************************
Total number of electrons:   276.000000
Total ionic charge:   276.000000

* ProcessorY, Blocksize:    2  24

k-point displ. along   1 input, could be:     0.50    0.00
k-point displ. along   2 input, could be:     0.50    0.00
 Kpoints in:          231 . Kpoints trimmed:          231

siesta: k-grid: Number of k-points =   231
siesta: k-grid: Cutoff (effective) =     5.000 Ang
siesta: k-grid: Supercell and displacements
siesta: k-grid:   21   0   0      0.500
siesta: k-grid:    0  21   0      0.500
siesta: k-grid:    0   0   1      0.000
Naive supercell factors:     2    2    2

superc: Internal auxiliary supercell:     2 x     2 x     2  =       8
superc: Number of atoms, orbitals, and projectors:    576   7488   9216

* Maximum dynamic memory allocated =     4 MB

siesta:                 ==============================
                            Begin MD step =      1
                        ==============================

superc: Internal auxiliary supercell:     2 x     2 x     2  =       8
superc: Number of atoms, orbitals, and projectors:    576   7488   9216

outcell: Unit cell vectors (Ang):
       12.804619    7.392750    0.000000
        0.000000   14.785500    0.000000
        0.000000    0.000000   10.000000

outcell: Cell vector modules (Ang)   :   14.785500   14.785500   10.000000
outcell: Cell angles (23,13,12) (deg):     90.0000     90.0000     60.0000
outcell: Cell volume (Ang**3)        :   1893.2269
New_DM. Step:     1
Initializing Density Matrix...

InitMesh: MESH =   120 x   120 x    90 =     1296000
InitMesh: Mesh cutoff (required, used) =   200.000   223.865 Ry

* Maximum dynamic memory allocated =   211 MB

stepf: Fermi-Dirac step function

siesta: Program's energy decomposition (eV):
siesta: Ebs     =     -5674.178432
siesta: Eions   =     16866.330537
siesta: Ena     =      4424.437700
siesta: Ekin    =      5745.320513
siesta: Enl     =       730.264229
siesta: DEna    =        -0.000011
siesta: DUscf   =         0.000000
siesta: DUext   =         0.000000
siesta: Exc     =     -4189.316861
siesta: eta*DQ  =         0.000000
siesta: Emadel  =         0.000000
siesta: Emeta   =         0.000000
siesta: Emolmec =         0.000000
siesta: Ekinion =         0.000000
siesta: Eharris =     -9860.676350
siesta: Etot    =    -10155.624966
siesta: FreeEng =    -10155.624966

siesta: iscf   Eharris(eV)      E_KS(eV)   FreeEng(eV)   dDmax  Ef(eV)
siesta:    1    -9860.6764   -10155.6250   -10155.6250  6.3990 -8.1017
timer: Routine,Calls,Time,% = IterSCF        1    3457.878  99.69
elaps: Routine,Calls,Wall,% = IterSCF        1     433.073  99.69
siesta:    2   -14596.9358    -9144.9917    -9145.0627 20.8552 -3.2588
siesta:    3    -9804.7677   -10015.0768   -10015.1148  3.4402 -6.6218
siesta:    4    -9778.9095    -9861.5494    -9861.5496  1.2197 -5.8068
siesta:    5    -9736.0697    -9755.7945    -9755.8411  0.8267 -5.3216
siesta:    6    -9720.7984    -9744.0129    -9744.0168  0.8023 -5.2818
siesta:    7    -9718.6927    -9741.5897    -9741.6127  0.8014 -5.2838
siesta:    8    -9711.6563    -9726.1752    -9726.1850  0.7118 -5.2270
siesta:    9    -9710.6033    -9716.6843    -9716.7490  0.6385 -5.1696
siesta:   10    -9710.5931    -9700.6726    -9700.7358  0.3945 -5.0477
siesta:   11    -9710.3978    -9694.6905    -9694.7332  0.2605 -5.0129
siesta:   12    -9709.9514    -9686.8768    -9686.8888  0.1336 -4.8577
siesta:   13    -9710.0520    -9684.9973    -9685.0393  0.1514 -4.8472
siesta:   14    -9709.3355    -9688.9489    -9688.9958  0.1221 -4.9678
siesta:   15    -9709.1229    -9692.6834    -9692.7379  0.0845 -4.9864
siesta:   16    -9709.1529    -9696.0922    -9696.1431  0.0971 -5.0139
siesta:   17    -9708.9900    -9697.0704    -9697.1234  0.0804 -5.0119
siesta:   18    -9708.9658    -9699.5668    -9699.6108  0.0467 -5.0266
siesta:   19    -9708.9586    -9702.8725    -9702.9131  0.0310 -5.0381
siesta:   20    -9708.9421    -9705.1585    -9705.2010  0.0183 -5.0419
siesta:   21    -9708.9429    -9706.4698    -9706.5117  0.0144 -5.0453
siesta:   22    -9708.9408    -9707.8938    -9707.9353  0.0139 -5.0450
siesta:   23    -9708.9403    -9708.4556    -9708.4957  0.0107 -5.0399
siesta:   24    -9708.9393    -9709.4909    -9709.5315  0.0067 -5.0394
siesta:   25    -9708.9384    -9709.3300    -9709.3707  0.0052 -5.0370
siesta:   26    -9708.9379    -9709.4942    -9709.5354  0.0043 -5.0363
siesta:   27    -9708.9379    -9709.4966    -9709.5381  0.0032 -5.0371
siesta:   28    -9708.9380    -9709.2731    -9709.3144  0.0015 -5.0359
siesta:   29    -9708.9381    -9709.0850    -9709.1261  0.0012 -5.0353
siesta:   30    -9708.9379    -9708.9605    -9709.0015  0.0012 -5.0345
siesta:   31    -9708.9378    -9708.9740    -9709.0152  0.0005 -5.0351
siesta:   32    -9708.9378    -9708.9921    -9709.0333  0.0004 -5.0351
siesta:   33    -9708.9378    -9708.9837    -9709.0250  0.0002 -5.0350
siesta:   34    -9708.9378    -9708.9723    -9709.0135  0.0002 -5.0349
siesta:   35    -9708.9378    -9708.9543    -9708.9955  0.0001 -5.0349
siesta:   36    -9708.9378    -9708.9463    -9708.9875  0.0001 -5.0349
siesta:   37    -9708.9378    -9708.9399    -9708.9811  0.0001 -5.0349

siesta: E_KS(eV) =            -9708.9383

siesta: E_KS - E_eggbox =     -9708.9383

siesta: Atomic forces (eV/Ang):
----------------------------------------
   Tot   -0.043763   -0.061739    0.000000
----------------------------------------
   Max  557.834939
   Res  153.052494    sqrt( Sum f_i^2 / 3N )
----------------------------------------
   Max  557.834939    constrained

Stress-tensor-Voigt (kbar):     -788.96    -2742.12       -0.49       -0.29        0.00        0.00
(Free)E + p*V (eV/cell)    -8317.9573
Target enthalpy (eV/cell)    -9708.9795

siesta: Stress tensor (static) (eV/Ang**3):
        -0.492423   -0.000181    0.000000
        -0.000181   -1.711481    0.000000
         0.000000    0.000000   -0.000305

siesta: Pressure (static):       1177.18980680  kBar

siesta: Stress tensor (total) (eV/Ang**3):
        -0.492423   -0.000181    0.000000
        -0.000181   -1.711481    0.000000
         0.000000    0.000000   -0.000305

siesta: Pressure (total):       1177.18980680  kBar

siesta: Temp_ion =       0.000 K

* Maximum dynamic memory allocated =   228 MB
Computing bands...

siesta: Program's energy decomposition (eV):
siesta: Ebs     =     -4340.400142
siesta: Eions   =     16866.330537
siesta: Ena     =      4424.437700
siesta: Ekin    =      8653.998945
siesta: Enl     =      -884.618284
siesta: DEna    =      -781.434812
siesta: DUscf   =       103.450292
siesta: DUext   =         0.000000
siesta: Exc     =     -4358.441596
siesta: eta*DQ  =         0.000000
siesta: Emadel  =         0.000000
siesta: Emeta   =         0.000000
siesta: Emolmec =         0.000000
siesta: Ekinion =         0.000000
siesta: Eharris =     -9708.937758
siesta: Etot    =     -9708.938291
siesta: FreeEng =     -9708.979533

siesta: Final energy (eV):
siesta:  Band Struct. =   -4340.400142
siesta:       Kinetic =    8653.998945
siesta:       Hartree =   28334.467920
siesta:    Ext. field =       0.000000
siesta:   Exch.-corr. =   -4358.441596
siesta:  Ion-electron =  -65024.708056
siesta:       Ion-ion =   22685.744496
siesta:       Ekinion =       0.000000
siesta:         Total =   -9708.938291

siesta: Atomic forces (eV/Ang):
siesta:      1  -15.191455   -3.493881    0.000000
siesta:      2    0.939165  408.464593    0.000000
siesta:      3    3.773433    2.061771    0.000000
siesta:      4   -1.328168   -2.749085    0.000000
siesta:      5   -4.003839    3.066100    0.000000
siesta:      6    0.113936   -1.958969    0.000000
siesta:      7    0.120888    1.964358    0.000000
siesta:      8    3.782783   -2.051276    0.000000
siesta:      9    0.959353 -408.459483    0.000000
siesta:     10   -4.005777   -3.062859    0.000000
siesta:     11   -1.332242    2.742118    0.000000
siesta:     12  -15.185763    3.489452    0.000000
siesta:     13    2.005347  405.232992    0.000000
siesta:     14   -3.577484 -127.928974    0.000000
siesta:     15    2.364554  127.481874    0.000000
siesta:     16  -18.127041 -552.688678    0.000000
siesta:     17   -2.051131  127.460920    0.000000
siesta:     18   16.174469 -548.437496    0.000000
siesta:     19   26.798800    4.306411    0.000000
siesta:     20   32.675585 -549.064793    0.000000
siesta:     21    2.335656    0.021238    0.000000
siesta:     22   -2.668957    2.185960    0.000000
siesta:     23    2.435465    1.537677    0.000000
siesta:     24   -1.098840    0.640083    0.000000
siesta:     25  -26.435695    4.468975    0.000000
siesta:     26  -32.845627 -549.310074    0.000000
siesta:     27   16.183813  548.427602    0.000000
siesta:     28   -2.042028 -127.456520    0.000000
siesta:     29   32.687911  549.059632    0.000000
siesta:     30   26.794026   -4.323279    0.000000
siesta:     31   -2.665363   -2.182330    0.000000
siesta:     32    2.320340   -0.025464    0.000000
siesta:     33   -1.098127   -0.638648    0.000000
siesta:     34    2.431922   -1.540799    0.000000
siesta:     35   -0.377136    7.049475    0.000000
siesta:     36   -0.382989   -7.046983    0.000000
siesta:     37  -18.140161  552.698079    0.000000
siesta:     38    2.367178 -127.487283    0.000000
siesta:     39    0.266189  547.053176    0.000000
siesta:     40   -0.557467 -126.568037    0.000000
siesta:     41   24.999923  557.824339    0.000000
siesta:     42   22.022305   -2.212244    0.000000
siesta:     43   -1.127626    1.548883    0.000000
siesta:     44    0.166819    0.279917    0.000000
siesta:     45   -0.048883    0.785557    0.000000
siesta:     46   -0.059524   -0.781674    0.000000
siesta:     47  -32.836931  549.327196    0.000000
siesta:     48  -26.455825   -4.452394    0.000000
siesta:     49  -23.027648  554.657502    0.000000
siesta:     50    3.469798    1.802605    0.000000
siesta:     51    3.477775   -1.805687    0.000000
siesta:     52    2.659975   -1.339797    0.000000
siesta:     53   -7.112801   -2.010273    0.000000
siesta:     54    1.880244   -0.730641    0.000000
siesta:     55   -3.236122   -1.261477    0.000000
siesta:     56   -2.647116    2.434042    0.000000
siesta:     57   -2.654147   -2.434224    0.000000
siesta:     58    0.358956    7.205678    0.000000
siesta:     59    0.353542   -7.206306    0.000000
siesta:     60   -3.226525    1.263929    0.000000
siesta:     61    1.878086    0.726980    0.000000
siesta:     62    0.178868   -0.286980    0.000000
siesta:     63   -1.139355   -1.544613    0.000000
siesta:     64   22.045830    2.210628    0.000000
siesta:     65   24.986216 -557.834939    0.000000
siesta:     66  -23.016221 -554.661936    0.000000
siesta:     67   -7.105361    1.999672    0.000000
siesta:     68    2.665149    1.347004    0.000000
siesta:     69   -0.593544  126.536996    0.000000
siesta:     70    0.245523 -547.090601    0.000000
siesta:     71   -3.593265  127.911616    0.000000
siesta:     72    2.032598 -405.208072    0.000000
siesta: ----------------------------------------
siesta:    Tot   -0.043763   -0.061739    0.000000

siesta: Stress tensor (static) (eV/Ang**3):
siesta:    -0.492423   -0.000181    0.000000
siesta:    -0.000181   -1.711481    0.000000
siesta:     0.000000    0.000000   -0.000305

siesta: Cell volume =       1893.226884 Ang**3

siesta: Pressure (static):
siesta:                Solid            Molecule  Units
siesta:           0.00800221          0.11785628  Ry/Bohr**3
siesta:           0.73473614         10.82116285  eV/Ang**3
siesta:        1177.18980680      17337.60166479  kBar
(Free)E+ p_basis*V_orbitals  =       -9674.450474
(Free)Eharris+ p_basis*V_orbitals  =       -9674.448353

siesta: Electric dipole (a.u.)  =    0.000000    0.000000    0.000000
siesta: Electric dipole (Debye) =    0.000000    0.000000    0.000000

* Maximum dynamic memory allocated : Node    0 =   228 MB
* Maximum dynamic memory allocated : Node    1 =    80 MB
* Maximum dynamic memory allocated : Node    2 =    82 MB
* Maximum dynamic memory allocated : Node    3 =   217 MB
* Maximum dynamic memory allocated : Node    4 =   219 MB
* Maximum dynamic memory allocated : Node    5 =    80 MB
* Maximum dynamic memory allocated : Node    6 =    83 MB
* Maximum dynamic memory allocated : Node    7 =   201 MB

* Maximum memory occured during matrixMtoO                    

timer: CPU execution times:
timer:  Routine       Calls   Time/call    Tot.time        %
timer:  siesta            1  125311.315  125311.315   100.00
timer:  Setup             1       2.694       2.694     0.00
timer:  bands             3     243.664     730.991     0.58
timer:  writewave         1       0.018       0.018     0.00
timer:  KSV_init          1       0.005       0.005     0.00
timer:  IterMD            1  124572.414  124572.414    99.41
timer:  hsparse           1       0.513       0.513     0.00
timer:  overlap           1       6.766       6.766     0.01
timer:  IterSCF          37    3361.698  124382.814    99.26
timer:  kinefsm           2       3.523       7.046     0.01
timer:  nlefsm            2      19.074      38.149     0.03
timer:  DHSCF            38      97.633    3710.057     2.96
timer:  DHSCF1            1       0.992       0.992     0.00
timer:  DHSCF2            1      40.597      40.597     0.03
timer:  REORD           306       0.005       1.547     0.00
timer:  POISON           39       0.866      33.779     0.03
timer:  DHSCF3           38      95.528    3630.052     2.90
timer:  rhoofd           38      21.621     821.605     0.66
timer:  cellXC           38       3.200     121.593     0.10
timer:  vmat             38      44.762    1700.954     1.36
timer:  MolMec            2       0.000       0.000     0.00
timer:  diagon           37    3263.450  120747.667    96.36
timer:  c-eigval       8668       6.027   52243.538    41.69
timer:  c-buildHS      8668       0.050     437.339     0.35
timer:  cdiag         17215       6.153  105928.636    84.53
timer:  cdiag1        17215       0.385    6621.991     5.28
timer:  cdiag2        17215       1.767   30422.765    24.28
timer:  cdiag3        17215       3.735   64299.630    51.31
timer:  cdiag4        17215       0.156    2684.407     2.14
timer:  c-eigvec       8547       6.374   54482.693    43.48
timer:  c-buildD       8547       1.721   14708.777    11.74
timer:  DHSCF4            1      37.697      37.697     0.03
timer:  dfscf             1      34.996      34.996     0.03
timer:  overfsm           1       0.438       0.438     0.00
timer:  optical           1       4.555       4.555     0.00
  

elaps: ELAPSED times:
elaps:  Routine       Calls   Time/call    Tot.time        %
elaps:  siesta            1   15693.527   15693.527   100.00
elaps:  Setup             1       0.338       0.338     0.00
elaps:  bands             3      30.532      91.596     0.58
elaps:  writewave         1       0.002       0.002     0.00
elaps:  KSV_init          1       0.000       0.000     0.00
elaps:  IterMD            1   15600.989   15600.989    99.41
elaps:  hsparse           1       0.066       0.066     0.00
elaps:  overlap           1       0.903       0.903     0.01
elaps:  IterSCF          37     421.007   15577.247    99.26
elaps:  kinefsm           2       0.469       0.937     0.01
elaps:  nlefsm            2       2.364       4.728     0.03
elaps:  DHSCF            38      12.348     469.207     2.99
elaps:  DHSCF1            1       0.126       0.126     0.00
elaps:  DHSCF2            1       5.082       5.082     0.03
elaps:  REORD           306       0.001       0.208     0.00
elaps:  POISON           39       0.109       4.236     0.03
elaps:  DHSCF3           38      11.964     454.643     2.90
elaps:  rhoofd           38       5.756     218.720     1.39
elaps:  cellXC           38       0.400      15.217     0.10
elaps:  vmat             38       5.606     213.035     1.36
elaps:  MolMec            2       0.000       0.000     0.00
elaps:  diagon           37     408.707   15122.152    96.36
elaps:  c-eigval       8668       0.755    6542.636    41.69
elaps:  c-buildHS      8668       0.007      58.862     0.38
elaps:  cdiag         17215       0.768   13223.000    84.26
elaps:  cdiag1        17215       0.048     827.846     5.28
elaps:  cdiag2        17215       0.221    3810.864    24.28
elaps:  cdiag3        17215       0.468    8063.108    51.38
elaps:  cdiag4        17215       0.019     334.085     2.13
elaps:  c-eigvec       8547       0.794    6785.965    43.24
elaps:  c-buildD       8547       0.220    1877.295    11.96
elaps:  DHSCF4            1       9.274       9.274     0.06
elaps:  dfscf             1       8.741       8.741     0.06
elaps:  overfsm           1       0.055       0.055     0.00
elaps:  optical           1       0.000       0.000     0.00
  
>> End of run:   7-MAY-2016   7:54:36
