Siesta Version:                                        siesta-3.2-pl-3
Architecture  : x86_64-unknown-linux-gnu--unknown
Compiler flags: mpiifort -g -O2 -fPIC -xSSE4.1 -fp-model source -shared-intel 
PARALLEL version

* Running on    8 nodes in parallel
>> Start of run:  20-APR-2016  19:05:39

                           ***********************       
                           *  WELCOME TO SIESTA  *       
                           ***********************       

reinit: Reading from standard input
************************** Dump of input data file ****************************
#(1) General system descriptors
SystemName            GRP_doping    # Descriptive name of the system
SystemLabel           GRP_doping    # Short name for naming files
%include STRUCT.fdf
%include KPT.fdf
%include BASIS.fdf
#%include TS.fdf # for transiesta calculation
#(4) DFT, Grid, SCF
XC.functional         GGA           # LDA or GGA (default = LDA)
XC.authors            PBE           # CA (Ceperley-Aldr) = PZ
                                    #    (Perdew-Zunger) - LDA - Default
                                    # PW92 (Perdew-Wang-92) - LDA
                                    # PBE (Perdew-Burke-Ernzerhof) - GGA
MeshCutoff            200.000000    Ry      # Default: 50.0 Ry ~ 0.444 Bohr
                                    #         100.0 Ry ~ 0.314 Bohr
MaxSCFIterations      500           # Default: 50
DM.MixingWeight       0.05          # Default: 0.25
DM.NumberPulay        10            # Default: 0
DM.PulayOnFile        F             # SystemLabel.P1, SystemLabel.P2
DM.Tolerance          1.d-4         # Default: 1.d-4
DM.UseSaveDM          .true.        # because of the bug
SCFMustConverge       .true.
NeglNonOverlapInt     F             # Default: F
#(5) Eigenvalue problem: order-N or diagonalization
SolutionMethod        Diagon        # or Transiesta
ElectronicTemperature 300.0 K       # Default: 300.0 K
#(6) Molecular dynamics and relaxations
#MD.TypeOfRun          CG            # Type of dynamics:
#MD.VariableCell       F
#MD.NumCGsteps         0           # 0 for single-point / 100 for gopt
#MD.MaxCGDispl         0.2 Bohr      # Default: 0.2 Bohr
#MD.MaxForceTol        0.02 eV/Ang   # Default: 0.04 eV/Ang
#MD.MaxStressTol       1.0 GPa       # Default: 1.0 GPa
# Geometry Constraints
#%block GeometryConstraints
#	position from 1 to 44
#%endblock GeometryConstraints
BandLinesScale   pi/a
%block BandLines
 1   0.00000000  0.00000000  0.00000000
50   0.00000000  0.07809418  0.00000000
50   0.04509075  0.07809242  0.00000000
20   0.00000000  0.00000000  0.00000000
%endblock BandLines
************************** End of input data file *****************************

reinit: -----------------------------------------------------------------------
reinit: System Name: GRP_doping
reinit: -----------------------------------------------------------------------
reinit: System Label: GRP_doping                                                  
reinit: -----------------------------------------------------------------------

initatom: Reading input for the pseudopotentials and atomic orbitals ----------
 Species number:            1  Label: B Atomic number:           5
 Species number:            2  Label: C Atomic number:           6
Ground state valence configuration:   2s02  2p01
Reading pseudopotential information in formatted form from B.psf

Valence configuration for pseudopotential generation:
2s( 2.00) rc: 1.74
2p( 1.00) rc: 1.74
3d( 0.00) rc: 1.74
4f( 0.00) rc: 1.74
Ground state valence configuration:   2s02  2p02
Reading pseudopotential information in formatted form from C.psf

Valence configuration for pseudopotential generation:
2s( 2.00) rc: 1.54
2p( 2.00) rc: 1.54
3d( 0.00) rc: 1.54
4f( 0.00) rc: 1.54
For B, standard SIESTA heuristics set lmxkb to 3
 (one more than the basis l, including polarization orbitals).
Use PS.lmax or PS.KBprojectors blocks to override.
For C, standard SIESTA heuristics set lmxkb to 3
 (one more than the basis l, including polarization orbitals).
Use PS.lmax or PS.KBprojectors blocks to override.

<basis_specs>
===============================================================================
B                    Z=   5    Mass=  10.810        Charge= 0.17977+309
Lmxo=1 Lmxkb= 3    BasisType=split      Semic=F
L=0  Nsemic=0  Cnfigmx=2
          n=1  nzeta=2  polorb=0
            splnorm:   0.15000    
               vcte:    0.0000    
               rinn:    0.0000    
                rcs:    0.0000      0.0000    
            lambdas:    1.0000      1.0000    
L=1  Nsemic=0  Cnfigmx=2
          n=1  nzeta=2  polorb=1
            splnorm:   0.15000    
               vcte:    0.0000    
               rinn:    0.0000    
                rcs:    0.0000      0.0000    
            lambdas:    1.0000      1.0000    
-------------------------------------------------------------------------------
L=0  Nkbl=1  erefs: 0.17977+309
L=1  Nkbl=1  erefs: 0.17977+309
L=2  Nkbl=1  erefs: 0.17977+309
L=3  Nkbl=1  erefs: 0.17977+309
===============================================================================
</basis_specs>

atom: Called for B                     (Z =   5)

read_vps: Pseudopotential generation method:
read_vps: ATM3      Troullier-Martins                       
Total valence charge:    3.00000

read_vps: Pseudopotential includes a core correction:
read_vps: Pseudo-core for xc-correction

xc_check: Exchange-correlation functional:
xc_check: GGA Perdew, Burke & Ernzerhof 1996
V l=0 = -2*Zval/r beyond r=  1.7165
V l=1 = -2*Zval/r beyond r=  1.7165
V l=2 = -2*Zval/r beyond r=  1.7165
V l=3 = -2*Zval/r beyond r=  1.6951
All V_l potentials equal beyond r=  1.7165
This should be close to max(r_c) in ps generation
All pots = -2*Zval/r beyond r=  1.7165

VLOCAL1: 99.0% of the norm of Vloc inside     14.733 Ry
VLOCAL1: 99.9% of the norm of Vloc inside     33.577 Ry
atom: Maximum radius for 4*pi*r*r*local-pseudopot. charge    2.04484
atom: Maximum radius for r*vlocal+2*Zval:    1.75994
GHOST: No ghost state for L =  0
GHOST: No ghost state for L =  1
GHOST: No ghost state for L =  2
GHOST: No ghost state for L =  3

KBgen: Kleinman-Bylander projectors: 
   l= 0   rc=  1.897051   el= -0.693730   Ekb=  4.595746   kbcos=  0.286105
   l= 1   rc=  1.920920   el= -0.265236   Ekb= -2.350715   kbcos= -0.315747
   l= 2   rc=  2.044840   el=  0.002055   Ekb= -0.690767   kbcos= -0.013822
   l= 3   rc=  2.149707   el=  0.003188   Ekb= -0.315358   kbcos= -0.002055

KBgen: Total number of  Kleinman-Bylander projectors:   16
atom: -------------------------------------------------------------------------

atom: SANKEY-TYPE ORBITALS:
atom: Selected multiple-zeta basis: split     

SPLIT: Orbitals with angular momentum L= 0

SPLIT: Basis orbitals for state 2s

SPLIT: PAO cut-off radius determined from an
SPLIT: energy shift=  0.007350 Ry

   izeta = 1
                 lambda =    1.000000
                     rc =    5.422032
                 energy =   -0.686029
                kinetic =    0.576707
    potential(screened) =   -1.262736
       potential(ionic) =   -3.271094

   izeta = 2
                 rmatch =    4.222573
              splitnorm =    0.150000
                 energy =   -0.602132
                kinetic =    0.858975
    potential(screened) =   -1.461107
       potential(ionic) =   -3.582536

SPLIT: Orbitals with angular momentum L= 1

SPLIT: Basis orbitals for state 2p

SPLIT: PAO cut-off radius determined from an
SPLIT: energy shift=  0.007350 Ry

   izeta = 1
                 lambda =    1.000000
                     rc =    6.790259
                 energy =   -0.258578
                kinetic =    1.481412
    potential(screened) =   -1.739989
       potential(ionic) =   -3.657461

   izeta = 2
                 rmatch =    4.608740
              splitnorm =    0.150000
                 energy =   -0.173757
                kinetic =    2.186690
    potential(screened) =   -2.360447
       potential(ionic) =   -4.464260

POLgen: Perturbative polarization orbital with L=  2

POLgen: Polarization orbital for state 2p

   izeta = 1
                     rc =    6.790259
                 energy =    0.684082
                kinetic =    1.471481
    potential(screened) =   -0.787399
       potential(ionic) =   -2.406985
atom: Total number of Sankey-type orbitals: 13

atm_pop: Valence configuration (for local Pseudopot. screening):
 2s( 2.00)                                                            
 2p( 1.00)                                                            
Vna: chval, zval:    3.00000   3.00000

Vna:  Cut-off radius for the neutral-atom potential:   6.790259
comcore: Pseudo-core radius Rcore=  2.122997

atom: _________________________________________________________________________

<basis_specs>
===============================================================================
C                    Z=   6    Mass=  12.010        Charge= 0.17977+309
Lmxo=1 Lmxkb= 3    BasisType=split      Semic=F
L=0  Nsemic=0  Cnfigmx=2
          n=1  nzeta=2  polorb=0
            splnorm:   0.15000    
               vcte:    0.0000    
               rinn:    0.0000    
                rcs:    0.0000      0.0000    
            lambdas:    1.0000      1.0000    
L=1  Nsemic=0  Cnfigmx=2
          n=1  nzeta=2  polorb=1
            splnorm:   0.15000    
               vcte:    0.0000    
               rinn:    0.0000    
                rcs:    0.0000      0.0000    
            lambdas:    1.0000      1.0000    
-------------------------------------------------------------------------------
L=0  Nkbl=1  erefs: 0.17977+309
L=1  Nkbl=1  erefs: 0.17977+309
L=2  Nkbl=1  erefs: 0.17977+309
L=3  Nkbl=1  erefs: 0.17977+309
===============================================================================
</basis_specs>

atom: Called for C                     (Z =   6)

read_vps: Pseudopotential generation method:
read_vps: ATM3      Troullier-Martins                       
Total valence charge:    4.00000

read_vps: Pseudopotential includes a core correction:
read_vps: Pseudo-core for xc-correction

xc_check: Exchange-correlation functional:
xc_check: GGA Perdew, Burke & Ernzerhof 1996
V l=0 = -2*Zval/r beyond r=  1.5227
V l=1 = -2*Zval/r beyond r=  1.5227
V l=2 = -2*Zval/r beyond r=  1.5227
V l=3 = -2*Zval/r beyond r=  1.5038
All V_l potentials equal beyond r=  1.5227
This should be close to max(r_c) in ps generation
All pots = -2*Zval/r beyond r=  1.5227

VLOCAL1: 99.0% of the norm of Vloc inside     18.722 Ry
VLOCAL1: 99.9% of the norm of Vloc inside     42.668 Ry
atom: Maximum radius for 4*pi*r*r*local-pseudopot. charge    1.83678
atom: Maximum radius for r*vlocal+2*Zval:    1.58088
GHOST: No ghost state for L =  0
GHOST: No ghost state for L =  1
GHOST: No ghost state for L =  2
GHOST: No ghost state for L =  3

KBgen: Kleinman-Bylander projectors: 
   l= 0   rc=  1.704034   el= -1.009801   Ekb=  5.335044   kbcos=  0.316824
   l= 1   rc=  1.704034   el= -0.388707   Ekb= -3.785862   kbcos= -0.366464
   l= 2   rc=  1.791422   el=  0.001971   Ekb= -0.970471   kbcos= -0.009212
   l= 3   rc=  1.859892   el=  0.003065   Ekb= -0.399525   kbcos= -0.001223

KBgen: Total number of  Kleinman-Bylander projectors:   16
atom: -------------------------------------------------------------------------

atom: SANKEY-TYPE ORBITALS:
atom: Selected multiple-zeta basis: split     

SPLIT: Orbitals with angular momentum L= 0

SPLIT: Basis orbitals for state 2s

SPLIT: PAO cut-off radius determined from an
SPLIT: energy shift=  0.007350 Ry

   izeta = 1
                 lambda =    1.000000
                     rc =    4.632753
                 energy =   -1.002270
                kinetic =    0.855760
    potential(screened) =   -1.858031
       potential(ionic) =   -5.417575

   izeta = 2
                 rmatch =    3.431921
              splitnorm =    0.150000
                 energy =   -0.867111
                kinetic =    1.300804
    potential(screened) =   -2.167915
       potential(ionic) =   -5.962684

SPLIT: Orbitals with angular momentum L= 1

SPLIT: Basis orbitals for state 2p

SPLIT: PAO cut-off radius determined from an
SPLIT: energy shift=  0.007350 Ry

   izeta = 1
                 lambda =    1.000000
                     rc =    5.658549
                 energy =   -0.381140
                kinetic =    2.399701
    potential(screened) =   -2.780841
       potential(ionic) =   -6.206085

   izeta = 2
                 rmatch =    3.653288
              splitnorm =    0.150000
                 energy =   -0.249149
                kinetic =    3.542762
    potential(screened) =   -3.791911
       potential(ionic) =   -7.581078

POLgen: Perturbative polarization orbital with L=  2

POLgen: Polarization orbital for state 2p

   izeta = 1
                     rc =    5.658549
                 energy =    1.109913
                kinetic =    2.304789
    potential(screened) =   -1.194876
       potential(ionic) =   -4.013592
atom: Total number of Sankey-type orbitals: 13

atm_pop: Valence configuration (for local Pseudopot. screening):
 2s( 2.00)                                                            
 2p( 2.00)                                                            
Vna: chval, zval:    4.00000   4.00000

Vna:  Cut-off radius for the neutral-atom potential:   5.658549
comcore: Pseudo-core radius Rcore=  1.791422

atom: _________________________________________________________________________

prinput: Basis input ----------------------------------------------------------

PAO.BasisType split     

%block ChemicalSpeciesLabel
    1    5 B                       # Species index, atomic number, species label
    2    6 C                       # Species index, atomic number, species label
%endblock ChemicalSpeciesLabel

%block PAO.Basis                 # Define Basis set
B                     2                    # Species label, number of l-shells
 n=2   0   2                         # n, l, Nzeta 
   5.422      4.223   
   1.000      1.000   
 n=2   1   2 P   1                   # n, l, Nzeta, Polarization, NzetaPol
   6.790      4.609   
   1.000      1.000   
C                     2                    # Species label, number of l-shells
 n=2   0   2                         # n, l, Nzeta 
   4.633      3.432   
   1.000      1.000   
 n=2   1   2 P   1                   # n, l, Nzeta, Polarization, NzetaPol
   5.659      3.653   
   1.000      1.000   
%endblock PAO.Basis

prinput: ----------------------------------------------------------------------

coor:   Atomic-coordinates input format  =     Fractional

siesta: Atomic coordinates (Bohr) and species
siesta:     -2.35420  38.89134   0.00000  1        1
siesta:     -2.35420  41.57980   0.00000  1        2
siesta:      2.30256  38.89134   0.00000  1        3
siesta:      2.30256  41.57980   0.00000  1        4
siesta:      9.28770  21.41544   0.00000  1        5
siesta:      4.63094  21.41544   0.00000  1        6
siesta:      6.95932  22.75985   0.00000  1        7
siesta:      6.95932  25.44831   0.00000  1        8
siesta:      2.30256  22.75985   0.00000  1        9
siesta:      2.30256  25.44831   0.00000  1       10
siesta:     -7.01096  17.38257   0.00000  1       11
siesta:     -4.68258  18.72698   0.00000  1       12
siesta:     -9.33934  18.72698   0.00000  1       13
siesta:     -9.33934  21.41544   0.00000  1       14
siesta:     -7.01096  22.75985   0.00000  1       15
siesta:     -7.01096  25.44831   0.00000  1       16
siesta:    -11.66772  22.75985   0.00000  1       17
siesta:    -11.66772  25.44831   0.00000  1       18
siesta:     -9.33934  26.79272   0.00000  1       19
siesta:     -9.33934  29.48119   0.00000  1       20
siesta:      4.63094  26.79272   0.00000  1       21
siesta:     -0.02582  26.79272   0.00000  1       22
siesta:     -0.02582  34.85847   0.00000  1       23
siesta:     -0.02582  37.54693   0.00000  1       24
siesta:     -0.02582  42.92421   0.00000  1       25
siesta:     -0.02582  45.61267   0.00000  1       26
siesta:     -0.02582   2.59549   0.00000  2       27
siesta:     -0.02582   5.28395   0.00000  2       28
siesta:      4.63094  34.85847   0.00000  2       29
siesta:      4.63094  37.54693   0.00000  2       30
siesta:      6.95932  30.82560   0.00000  2       31
siesta:      6.95932  33.51406   0.00000  2       32
siesta:      9.28770  26.79272   0.00000  2       33
siesta:      9.28770  29.48119   0.00000  2       34
siesta:     -4.68258  34.85847   0.00000  2       35
siesta:     -4.68258  37.54693   0.00000  2       36
siesta:      2.30256   6.62836   0.00000  2       37
siesta:      2.30256   9.31683   0.00000  2       38
siesta:      4.63094  10.66124   0.00000  2       39
siesta:      4.63094  13.34970   0.00000  2       40
siesta:      6.95932  14.69411   0.00000  2       41
siesta:      6.95932  17.38257   0.00000  2       42
siesta:      9.28770  18.72698   0.00000  2       43
siesta:     11.61608  22.75985   0.00000  2       44
siesta:     11.61608  25.44831   0.00000  2       45
siesta:     -2.35420   6.62836   0.00000  2       46
siesta:     -2.35420   9.31683   0.00000  2       47
siesta:     -0.02582  10.66124   0.00000  2       48
siesta:     -0.02582  13.34970   0.00000  2       49
siesta:      2.30256  14.69411   0.00000  2       50
siesta:      2.30256  17.38257   0.00000  2       51
siesta:      4.63094  18.72698   0.00000  2       52
siesta:     -4.68258  10.66124   0.00000  2       53
siesta:     -4.68258  13.34970   0.00000  2       54
siesta:     -2.35420  14.69411   0.00000  2       55
siesta:     -2.35420  17.38257   0.00000  2       56
siesta:     -0.02582  18.72698   0.00000  2       57
siesta:     -0.02582  21.41544   0.00000  2       58
siesta:     -7.01096  14.69411   0.00000  2       59
siesta:     -4.68258  21.41544   0.00000  2       60
siesta:     -2.35420  22.75985   0.00000  2       61
siesta:     -2.35420  25.44831   0.00000  2       62
siesta:      4.63094  29.48119   0.00000  2       63
siesta:     -0.02582  29.48119   0.00000  2       64
siesta:     -4.68258  26.79272   0.00000  2       65
siesta:     -4.68258  29.48119   0.00000  2       66
siesta:      2.30256  30.82560   0.00000  2       67
siesta:      2.30256  33.51406   0.00000  2       68
siesta:     -2.35420  30.82560   0.00000  2       69
siesta:     -2.35420  33.51406   0.00000  2       70
siesta:     -7.01096  30.82560   0.00000  2       71
siesta:     -7.01096  33.51406   0.00000  2       72

siesta: System type = slab      

initatomlists: Number of atoms, orbitals, and projectors:     72   936  1152

siesta: ******************** Simulation parameters ****************************
siesta:
siesta: The following are some of the parameters of the simulation.
siesta: A complete list of the parameters used, including default values,
siesta: can be found in file out.fdf
siesta:
redata: Non-Collinear-spin run           =     F
redata: SpinPolarized (Up/Down) run      =     F
redata: Number of spin components        =     1
redata: Long output                      =     F
redata: Number of Atomic Species         =        2
redata: Charge density info will appear in .RHO file
redata: Write Mulliken Pop.              =     NO
redata: Mesh Cutoff                      =   200.0000  Ry
redata: Net charge of the system         =     0.0000 |e|
redata: Max. number of SCF Iter          =      500
redata: SCF convergence failure will abort job
redata: Performing Pulay mixing using    =    10 iterations
redata: Mix DM in first SCF step ?       =     F
redata: Write Pulay info on disk?        =     F
redata: Discard 1st Pulay DM after  kick =     F
redata: New DM Mixing Weight             =     0.0500
redata: New DM Occupancy tolerance       = 0.000000000001
redata: No kicks to SCF
redata: DM Mixing Weight for Kicks       =     0.5000
redata: DM Tolerance for SCF             =     0.000100
redata: Require Energy convergence for SCF =     F
redata: DM Energy tolerance for SCF      =     0.000100 eV
redata: Require Harris convergence for SCF =     F
redata: DM Harris energy tolerance for SCF =     0.000100 eV
redata: Using Saved Data (generic)   =     F
redata: Use continuation files for DM    =     T
redata: Neglect nonoverlap interactions  =     F
redata: Method of Calculation            =     Diagonalization
redata: Divide and Conquer               =     T
redata: Electronic Temperature           =     0.0019  Ry
redata: Fix the spin of the system       =     F
redata: Dynamics option                  =     Verlet MD run
redata: Initial MD time step             =        1
redata:   Final MD time step             =        1
redata: Length of MD time step           =     1.0000  fs
redata: Initial Temperature of MD run    =     0.0000  K
redata: Perform a MD quench              =     F
redata: ***********************************************************************
Total number of electrons:   262.000000
Total ionic charge:   262.000000

* ProcessorY, Blocksize:    2  24

k-point displ. along   1 input, could be:     0.50    0.00
k-point displ. along   2 input, could be:     0.50    0.00
 Kpoints in:          231 . Kpoints trimmed:          231

siesta: k-grid: Number of k-points =   231
siesta: k-grid: Cutoff (effective) =     5.000 Ang
siesta: k-grid: Supercell and displacements
siesta: k-grid:   21   0   0      0.500
siesta: k-grid:    0  21   0      0.500
siesta: k-grid:    0   0   1      0.000
Naive supercell factors:     2    2    2

superc: Internal auxiliary supercell:     2 x     2 x     2  =       8
superc: Number of atoms, orbitals, and projectors:    576   7488   9216

* Maximum dynamic memory allocated =     4 MB

siesta:                 ==============================
                            Begin MD step =      1
                        ==============================

superc: Internal auxiliary supercell:     2 x     2 x     2  =       8
superc: Number of atoms, orbitals, and projectors:    576   7488   9216

outcell: Unit cell vectors (Ang):
       12.804619    7.392750    0.000000
        0.000000   14.785500    0.000000
        0.000000    0.000000   10.000000

outcell: Cell vector modules (Ang)   :   14.785500   14.785500   10.000000
outcell: Cell angles (23,13,12) (deg):     90.0000     90.0000     60.0000
outcell: Cell volume (Ang**3)        :   1893.2269
New_DM. Step:     1
Initializing Density Matrix...

InitMesh: MESH =   120 x   120 x    90 =     1296000
InitMesh: Mesh cutoff (required, used) =   200.000   223.865 Ry

* Maximum dynamic memory allocated =   229 MB

stepf: Fermi-Dirac step function

siesta: Program's energy decomposition (eV):
siesta: Ebs     =     -5429.581799
siesta: Eions   =     15073.536580
siesta: Ena     =      4115.920629
siesta: Ekin    =      5006.990805
siesta: Enl     =       870.151892
siesta: DEna    =        -0.000006
siesta: DUscf   =         0.000000
siesta: DUext   =         0.000000
siesta: Exc     =     -4207.509226
siesta: eta*DQ  =         0.000000
siesta: Emadel  =         0.000000
siesta: Emeta   =         0.000000
siesta: Emolmec =         0.000000
siesta: Ekinion =         0.000000
siesta: Eharris =     -9085.039344
siesta: Etot    =     -9287.982486
siesta: FreeEng =     -9287.982486

siesta: iscf   Eharris(eV)      E_KS(eV)   FreeEng(eV)   dDmax  Ef(eV)
siesta:    1    -9085.0393    -9287.9825    -9287.9825  7.4716 -8.7886
timer: Routine,Calls,Time,% = IterSCF        1    3506.098  99.66
elaps: Routine,Calls,Wall,% = IterSCF        1     439.173  99.65
siesta:    2   -13420.7854    -8265.3742    -8265.4028 19.7067 -2.9749
siesta:    3    -9060.8690    -9126.8197    -9126.8589  2.8344 -6.4566
siesta:    4    -9029.6697    -9032.5128    -9032.5438  1.6749 -5.2943
siesta:    5    -8973.1214    -8961.5087    -8961.5113  1.3861 -4.9828
siesta:    6    -8936.6092    -8929.5982    -8929.6220  1.2197 -5.0288
siesta:    7    -8925.7163    -8914.0462    -8914.0938  1.1021 -5.1775
siesta:    8    -8924.2133    -8909.2223    -8909.2710  1.0649 -5.1490
siesta:    9    -8919.9370    -8904.0152    -8904.0538  0.9294 -5.2402
siesta:   10    -8916.7291    -8896.8028    -8896.8239  0.4573 -5.3316
siesta:   11    -8916.5747    -8893.5133    -8893.5599  0.5095 -5.3159
siesta:   12    -8916.6074    -8893.2484    -8893.2999  0.6557 -5.1864
siesta:   13    -8918.0634    -8888.3990    -8888.4558  0.7642 -5.2031
siesta:   14    -8915.9817    -8888.2905    -8888.3132  0.5705 -5.2507
siesta:   15    -8915.5471    -8889.5328    -8889.5847  0.3192 -5.1967
siesta:   16    -8915.3492    -8890.1865    -8890.2513  0.3016 -5.2264
siesta:   17    -8915.2320    -8893.4149    -8893.4866  0.2970 -5.1890
siesta:   18    -8914.9377    -8896.8082    -8896.8711  0.2098 -5.2317
siesta:   19    -8914.8055    -8900.9156    -8900.9793  0.1610 -5.2611
siesta:   20    -8914.8331    -8904.3246    -8904.3969  0.1670 -5.2485
siesta:   21    -8914.7894    -8905.9824    -8906.0530  0.1214 -5.2619
siesta:   22    -8914.7710    -8907.9858    -8908.0575  0.1632 -5.2645
siesta:   23    -8914.7312    -8909.7865    -8909.8578  0.0906 -5.2821
siesta:   24    -8914.7251    -8911.6995    -8911.7720  0.0600 -5.2897
siesta:   25    -8914.7117    -8912.5759    -8912.6499  0.0464 -5.2972
siesta:   26    -8914.7033    -8913.8616    -8913.9350  0.0361 -5.2976
siesta:   27    -8914.6971    -8914.1653    -8914.2386  0.0310 -5.2981
siesta:   28    -8914.6957    -8914.3122    -8914.3862  0.0130 -5.2940
siesta:   29    -8914.6956    -8914.5666    -8914.6409  0.0124 -5.2955
siesta:   30    -8914.6951    -8914.6868    -8914.7613  0.0082 -5.2936
siesta:   31    -8914.6950    -8914.8478    -8914.9221  0.0069 -5.2937
siesta:   32    -8914.6948    -8914.7684    -8914.8426  0.0047 -5.2924
siesta:   33    -8914.6946    -8914.6829    -8914.7572  0.0038 -5.2930
siesta:   34    -8914.6945    -8914.6119    -8914.6863  0.0021 -5.2923
siesta:   35    -8914.6946    -8914.5908    -8914.6652  0.0026 -5.2930
siesta:   36    -8914.6946    -8914.5927    -8914.6670  0.0027 -5.2933
siesta:   37    -8914.6946    -8914.6054    -8914.6797  0.0018 -5.2935
siesta:   38    -8914.6945    -8914.6574    -8914.7318  0.0006 -5.2936
siesta:   39    -8914.6945    -8914.6613    -8914.7357  0.0008 -5.2938
siesta:   40    -8914.6945    -8914.6696    -8914.7439  0.0006 -5.2939
siesta:   41    -8914.6945    -8914.6767    -8914.7510  0.0002 -5.2939
siesta:   42    -8914.6945    -8914.6850    -8914.7594  0.0004 -5.2939
siesta:   43    -8914.6945    -8914.6878    -8914.7622  0.0003 -5.2939
siesta:   44    -8914.6945    -8914.6916    -8914.7660  0.0001 -5.2938

siesta: E_KS(eV) =            -8914.6910

siesta: E_KS - E_eggbox =     -8914.6910

siesta: Atomic forces (eV/Ang):
----------------------------------------
   Tot   -0.037401   -0.117712    0.000000
----------------------------------------
   Max  559.153423
   Res  143.757627    sqrt( Sum f_i^2 / 3N )
----------------------------------------
   Max  559.153423    constrained

Stress-tensor-Voigt (kbar):     -771.54    -2628.67       -0.78       -3.26        0.00        0.00
(Free)E + p*V (eV/cell)    -7575.1790
Target enthalpy (eV/cell)    -8914.7654

siesta: Stress tensor (static) (eV/Ang**3):
        -0.481552   -0.002033    0.000000
        -0.002033   -1.640666    0.000000
         0.000000    0.000000   -0.000485

siesta: Pressure (static):       1133.66085871  kBar

siesta: Stress tensor (total) (eV/Ang**3):
        -0.481552   -0.002033    0.000000
        -0.002033   -1.640666    0.000000
         0.000000    0.000000   -0.000485

siesta: Pressure (total):       1133.66085871  kBar

siesta: Temp_ion =       0.000 K

* Maximum dynamic memory allocated =   246 MB
Computing bands...

siesta: Program's energy decomposition (eV):
siesta: Ebs     =     -4034.206974
siesta: Eions   =     15073.536580
siesta: Ena     =      4115.920629
siesta: Ekin    =      7836.418527
siesta: Enl     =      -744.930976
siesta: DEna    =      -776.225728
siesta: DUscf   =       104.152526
siesta: DUext   =         0.000000
siesta: Exc     =     -4376.489418
siesta: eta*DQ  =         0.000000
siesta: Emadel  =         0.000000
siesta: Emeta   =         0.000000
siesta: Emolmec =         0.000000
siesta: Ekinion =         0.000000
siesta: Eharris =     -8914.694521
siesta: Etot    =     -8914.691019
siesta: FreeEng =     -8914.765370

siesta: Final energy (eV):
siesta:  Band Struct. =   -4034.206974
siesta:       Kinetic =    7836.418527
siesta:       Hartree =   25630.307703
siesta:    Ext. field =       0.000000
siesta:   Exch.-corr. =   -4376.489418
siesta:  Ion-electron =  -58825.728386
siesta:       Ion-ion =   20820.800556
siesta:       Ekinion =       0.000000
siesta:         Total =   -8914.691019

siesta: Atomic forces (eV/Ang):
siesta:      1    1.906378  106.139448    0.000000
siesta:      2    1.918123 -399.464771    0.000000
siesta:      3   -2.193331  106.226406    0.000000
siesta:      4   -3.012699 -399.477398    0.000000
siesta:      5    8.895839   -3.426865    0.000000
siesta:      6    0.624139   -3.957992    0.000000
siesta:      7   -1.122941   -0.421888    0.000000
siesta:      8    2.367257    1.751711    0.000000
siesta:      9   -5.208892   -2.767390    0.000000
siesta:     10    0.911699   -0.367708    0.000000
siesta:     11   -3.599764   -7.623703    0.000000
siesta:     12    5.114613    1.788724    0.000000
siesta:     13   -4.119343   -0.872284    0.000000
siesta:     14   -4.618527   -1.345207    0.000000
siesta:     15    3.857737   -3.500531    0.000000
siesta:     16    3.771337    3.973766    0.000000
siesta:     17   -5.912985   -3.032621    0.000000
siesta:     18   -5.513459    2.823982    0.000000
siesta:     19   -5.613319    0.906587    0.000000
siesta:     20    0.690731    3.802246    0.000000
siesta:     21   -1.066244    4.851507    0.000000
siesta:     22   -3.481017    1.419437    0.000000
siesta:     23   -0.013446  113.642210    0.000000
siesta:     24   -0.037209 -385.723595    0.000000
siesta:     25   -0.095272  105.394981    0.000000
siesta:     26    2.309524 -407.691280    0.000000
siesta:     27    0.447217  552.688653    0.000000
siesta:     28    0.773057 -133.055138    0.000000
siesta:     29   26.874371    4.507349    0.000000
siesta:     30   25.793398 -543.892409    0.000000
siesta:     31    2.195343    1.289245    0.000000
siesta:     32   -2.469695    2.039568    0.000000
siesta:     33    6.560664    4.461731    0.000000
siesta:     34   -1.387924   -0.799603    0.000000
siesta:     35  -26.223861    4.955357    0.000000
siesta:     36  -25.835087 -544.005744    0.000000
siesta:     37   23.313942  550.717479    0.000000
siesta:     38   -3.586185 -127.655161    0.000000
siesta:     39   36.040547  550.172234    0.000000
siesta:     40   24.054779   -2.146420    0.000000
siesta:     41   -1.841237   -2.164212    0.000000
siesta:     42    3.425474   -1.378995    0.000000
siesta:     43   -3.345895   -3.912982    0.000000
siesta:     44    2.077648    7.669818    0.000000
siesta:     45    0.324600   -5.235978    0.000000
siesta:     46  -23.286237  550.956840    0.000000
siesta:     47    3.728454 -127.754969    0.000000
siesta:     48   -0.085334  402.521020    0.000000
siesta:     49   -0.122321 -119.413989    0.000000
siesta:     50   27.361922  414.333046    0.000000
siesta:     51   22.826321   -1.942993    0.000000
siesta:     52   -3.108058   -2.339923    0.000000
siesta:     53  -35.894652  550.397212    0.000000
siesta:     54  -23.966481   -3.208622    0.000000
siesta:     55  -26.562699  414.073788    0.000000
siesta:     56  -19.867674   -2.278520    0.000000
siesta:     57   -1.646632  417.874470    0.000000
siesta:     58   -2.041826    0.427037    0.000000
siesta:     59    3.038602   -3.846633    0.000000
siesta:     60    3.603435    2.437142    0.000000
siesta:     61   -0.766086   -1.824683    0.000000
siesta:     62   -1.572139    0.489540    0.000000
siesta:     63   -1.008935    2.019880    0.000000
siesta:     64   -1.078037 -559.153423    0.000000
siesta:     65    3.181612    1.139904    0.000000
siesta:     66    1.033325   -1.869377    0.000000
siesta:     67   22.370025    6.662220    0.000000
siesta:     68   17.286375 -549.431355    0.000000
siesta:     69  -21.792773    6.447523    0.000000
siesta:     70  -18.412568 -549.542738    0.000000
siesta:     71    0.574769    3.676783    0.000000
siesta:     72    2.220126    1.730540    0.000000
siesta: ----------------------------------------
siesta:    Tot   -0.037401   -0.117712    0.000000

siesta: Stress tensor (static) (eV/Ang**3):
siesta:    -0.481552   -0.002033    0.000000
siesta:    -0.002033   -1.640666    0.000000
siesta:     0.000000    0.000000   -0.000485

siesta: Cell volume =       1893.226884 Ang**3

siesta: Pressure (static):
siesta:                Solid            Molecule  Units
siesta:           0.00770632          0.11021511  Ry/Bohr**3
siesta:           0.70756781         10.11957701  eV/Ang**3
siesta:        1133.66085871      16213.52507559  kBar
(Free)E+ p_basis*V_orbitals  =       -8875.812965
(Free)Eharris+ p_basis*V_orbitals  =       -8875.815839

siesta: Electric dipole (a.u.)  =    0.000000    0.000000    0.000000
siesta: Electric dipole (Debye) =    0.000000    0.000000    0.000000

* Maximum dynamic memory allocated : Node    0 =   246 MB
* Maximum dynamic memory allocated : Node    1 =    86 MB
* Maximum dynamic memory allocated : Node    2 =    89 MB
* Maximum dynamic memory allocated : Node    3 =   234 MB
* Maximum dynamic memory allocated : Node    4 =   239 MB
* Maximum dynamic memory allocated : Node    5 =    88 MB
* Maximum dynamic memory allocated : Node    6 =    89 MB
* Maximum dynamic memory allocated : Node    7 =   218 MB

* Maximum memory occured during matrixMtoO                    

timer: CPU execution times:
timer:  Routine       Calls   Time/call    Tot.time        %
timer:  siesta            1  150192.654  150192.654   100.00
timer:  Setup             1       4.050       4.050     0.00
timer:  bands             3     244.334     733.002     0.49
timer:  writewave         1       0.046       0.046     0.00
timer:  KSV_init          1       0.008       0.008     0.00
timer:  IterMD            1  149450.426  149450.426    99.51
timer:  hsparse           1       0.513       0.513     0.00
timer:  overlap           1       7.218       7.218     0.00
timer:  IterSCF          44    3391.645  149232.369    99.36
timer:  kinefsm           2       3.757       7.515     0.01
timer:  nlefsm            2      20.847      41.694     0.03
timer:  DHSCF            45     110.575    4975.869     3.31
timer:  DHSCF1            1       0.993       0.993     0.00
timer:  DHSCF2            1      43.100      43.100     0.03
timer:  REORD           362       0.005       1.794     0.00
timer:  POISON           46       0.880      40.465     0.03
timer:  DHSCF3           45     108.618    4887.829     3.25
timer:  rhoofd           45      25.196    1133.798     0.75
timer:  cellXC           45       3.273     147.266     0.10
timer:  vmat             45      51.319    2309.351     1.54
timer:  MolMec            2       0.000       0.000     0.00
timer:  diagon           44    3280.016  144320.721    96.09
timer:  c-eigval      10285       6.043   62149.356    41.38
timer:  c-buildHS     10285       0.054     550.855     0.37
timer:  cdiag         20449       6.167  126100.665    83.96
timer:  cdiag1        20449       0.387    7919.886     5.27
timer:  cdiag2        20449       1.768   36157.516    24.07
timer:  cdiag3        20449       3.742   76519.239    50.95
timer:  cdiag4        20449       0.154    3139.949     2.09
timer:  c-eigvec      10164       6.391   64957.384    43.25
timer:  c-buildD      10164       1.761   17895.067    11.91
timer:  DHSCF4            1      43.082      43.082     0.03
timer:  dfscf             1      40.238      40.238     0.03
timer:  overfsm           1       0.471       0.471     0.00
timer:  optical           1       4.557       4.557     0.00
  

elaps: ELAPSED times:
elaps:  Routine       Calls   Time/call    Tot.time        %
elaps:  siesta            1   18809.502   18809.502   100.00
elaps:  Setup             1       0.530       0.530     0.00
elaps:  bands             3      30.618      91.853     0.49
elaps:  writewave         1       0.006       0.006     0.00
elaps:  KSV_init          1       0.001       0.001     0.00
elaps:  IterMD            1   18716.520   18716.520    99.51
elaps:  hsparse           1       0.067       0.067     0.00
elaps:  overlap           1       0.903       0.903     0.00
elaps:  IterSCF          44     424.758   18689.352    99.36
elaps:  kinefsm           2       0.473       0.946     0.01
elaps:  nlefsm            2       2.769       5.538     0.03
elaps:  DHSCF            45      13.966     628.468     3.34
elaps:  DHSCF1            1       0.126       0.126     0.00
elaps:  DHSCF2            1       5.396       5.396     0.03
elaps:  REORD           362       0.001       0.243     0.00
elaps:  POISON           46       0.111       5.096     0.03
elaps:  DHSCF3           45      13.603     612.149     3.25
elaps:  rhoofd           45       6.633     298.485     1.59
elaps:  cellXC           45       0.410      18.428     0.10
elaps:  vmat             45       6.427     289.224     1.54
elaps:  MolMec            2       0.000       0.000     0.00
elaps:  diagon           44     410.769   18073.815    96.09
elaps:  c-eigval      10285       0.757    7783.090    41.38
elaps:  c-buildHS     10285       0.007      73.392     0.39
elaps:  cdiag         20449       0.770   15746.918    83.72
elaps:  cdiag1        20449       0.049     998.799     5.31
elaps:  cdiag2        20449       0.221    4529.035    24.08
elaps:  cdiag3        20449       0.469    9595.333    51.01
elaps:  cdiag4        20449       0.019     380.087     2.02
elaps:  c-eigvec      10164       0.796    8094.990    43.04
elaps:  c-buildD      10164       0.224    2280.551    12.12
elaps:  DHSCF4            1      10.694      10.694     0.06
elaps:  dfscf             1      10.133      10.133     0.05
elaps:  overfsm           1       0.058       0.058     0.00
elaps:  optical           1       0.001       0.001     0.00
  
>> End of run:  21-APR-2016   0:19:09
