Siesta Version:                                        siesta-3.2-pl-3
Architecture  : x86_64-unknown-linux-gnu--unknown
Compiler flags: mpiifort -g -O2 -fPIC -xSSE4.1 -fp-model source -shared-intel 
PARALLEL version

* Running on   12 nodes in parallel
>> Start of run:   6-MAY-2016  14:47:54

                           ***********************       
                           *  WELCOME TO SIESTA  *       
                           ***********************       

reinit: Reading from standard input
************************** Dump of input data file ****************************
#(1) General system descriptors
SystemName            GRP_doping    # Descriptive name of the system
SystemLabel           GRP_doping    # Short name for naming files
%include STRUCT.fdf
%include KPT.fdf
%include BASIS.fdf
#%include TS.fdf # for transiesta calculation
#(4) DFT, Grid, SCF
XC.functional         GGA           # LDA or GGA (default = LDA)
XC.authors            PBE           # CA (Ceperley-Aldr) = PZ
                                    #    (Perdew-Zunger) - LDA - Default
                                    # PW92 (Perdew-Wang-92) - LDA
                                    # PBE (Perdew-Burke-Ernzerhof) - GGA
MeshCutoff            200.000000    Ry      # Default: 50.0 Ry ~ 0.444 Bohr
                                    #         100.0 Ry ~ 0.314 Bohr
MaxSCFIterations      500           # Default: 50
DM.MixingWeight       0.05          # Default: 0.25
DM.NumberPulay        10            # Default: 0
DM.PulayOnFile        F             # SystemLabel.P1, SystemLabel.P2
DM.Tolerance          1.d-4         # Default: 1.d-4
DM.UseSaveDM          .true.        # because of the bug
SCFMustConverge       .true.
NeglNonOverlapInt     F             # Default: F
#(5) Eigenvalue problem: order-N or diagonalization
SolutionMethod        Diagon        # or Transiesta
ElectronicTemperature 300.0 K       # Default: 300.0 K
#(6) Molecular dynamics and relaxations
#MD.TypeOfRun          CG            # Type of dynamics:
#MD.VariableCell       F
#MD.NumCGsteps         0           # 0 for single-point / 100 for gopt
#MD.MaxCGDispl         0.2 Bohr      # Default: 0.2 Bohr
#MD.MaxForceTol        0.02 eV/Ang   # Default: 0.04 eV/Ang
#MD.MaxStressTol       1.0 GPa       # Default: 1.0 GPa
# Geometry Constraints
#%block GeometryConstraints
#	position from 1 to 44
#%endblock GeometryConstraints
BandLinesScale   pi/a
%block BandLines
 1   0.00000000  0.00000000  0.00000000
50   0.00000000  0.07809418  0.00000000
50   0.04509075  0.07809242  0.00000000
20   0.00000000  0.00000000  0.00000000
%endblock BandLines
************************** End of input data file *****************************

reinit: -----------------------------------------------------------------------
reinit: System Name: GRP_doping
reinit: -----------------------------------------------------------------------
reinit: System Label: GRP_doping                                                  
reinit: -----------------------------------------------------------------------

initatom: Reading input for the pseudopotentials and atomic orbitals ----------
 Species number:            1  Label: N Atomic number:           7
 Species number:            2  Label: C Atomic number:           6
Ground state valence configuration:   2s02  2p03
Reading pseudopotential information in formatted form from N.psf

Valence configuration for pseudopotential generation:
2s( 2.00) rc: 1.48
2p( 3.00) rc: 1.48
3d( 0.00) rc: 1.48
4f( 0.00) rc: 1.48
Ground state valence configuration:   2s02  2p02
Reading pseudopotential information in formatted form from C.psf

Valence configuration for pseudopotential generation:
2s( 2.00) rc: 1.54
2p( 2.00) rc: 1.54
3d( 0.00) rc: 1.54
4f( 0.00) rc: 1.54
For N, standard SIESTA heuristics set lmxkb to 3
 (one more than the basis l, including polarization orbitals).
Use PS.lmax or PS.KBprojectors blocks to override.
For C, standard SIESTA heuristics set lmxkb to 3
 (one more than the basis l, including polarization orbitals).
Use PS.lmax or PS.KBprojectors blocks to override.

<basis_specs>
===============================================================================
N                    Z=   7    Mass=  14.010        Charge= 0.17977+309
Lmxo=1 Lmxkb= 3    BasisType=split      Semic=F
L=0  Nsemic=0  Cnfigmx=2
          n=1  nzeta=2  polorb=0
            splnorm:   0.15000    
               vcte:    0.0000    
               rinn:    0.0000    
                rcs:    0.0000      0.0000    
            lambdas:    1.0000      1.0000    
L=1  Nsemic=0  Cnfigmx=2
          n=1  nzeta=2  polorb=1
            splnorm:   0.15000    
               vcte:    0.0000    
               rinn:    0.0000    
                rcs:    0.0000      0.0000    
            lambdas:    1.0000      1.0000    
-------------------------------------------------------------------------------
L=0  Nkbl=1  erefs: 0.17977+309
L=1  Nkbl=1  erefs: 0.17977+309
L=2  Nkbl=1  erefs: 0.17977+309
L=3  Nkbl=1  erefs: 0.17977+309
===============================================================================
</basis_specs>

atom: Called for N                     (Z =   7)

read_vps: Pseudopotential generation method:
read_vps: ATM3      Troullier-Martins                       
Total valence charge:    5.00000

read_vps: Pseudopotential includes a core correction:
read_vps: Pseudo-core for xc-correction

xc_check: Exchange-correlation functional:
xc_check: GGA Perdew, Burke & Ernzerhof 1996
V l=0 = -2*Zval/r beyond r=  1.4606
V l=1 = -2*Zval/r beyond r=  1.4606
V l=2 = -2*Zval/r beyond r=  1.4606
V l=3 = -2*Zval/r beyond r=  1.4606
All V_l potentials equal beyond r=  1.4606
This should be close to max(r_c) in ps generation
All pots = -2*Zval/r beyond r=  1.4606

VLOCAL1: 99.0% of the norm of Vloc inside     20.347 Ry
VLOCAL1: 99.9% of the norm of Vloc inside     46.372 Ry
atom: Maximum radius for 4*pi*r*r*local-pseudopot. charge    1.76189
atom: Maximum radius for r*vlocal+2*Zval:    1.53550
GHOST: No ghost state for L =  0
GHOST: No ghost state for L =  1
GHOST: No ghost state for L =  2
GHOST: No ghost state for L =  3

KBgen: Kleinman-Bylander projectors: 
   l= 0   rc=  1.634559   el= -1.363963   Ekb=  5.296955   kbcos=  0.335621
   l= 1   rc=  1.614250   el= -0.521451   Ekb= -5.259161   kbcos= -0.433408
   l= 2   rc=  1.718383   el=  0.001991   Ekb= -1.271464   kbcos= -0.007566
   l= 3   rc=  1.761893   el=  0.003093   Ekb= -0.494769   kbcos= -0.001015

KBgen: Total number of  Kleinman-Bylander projectors:   16
atom: -------------------------------------------------------------------------

atom: SANKEY-TYPE ORBITALS:
atom: Selected multiple-zeta basis: split     

SPLIT: Orbitals with angular momentum L= 0

SPLIT: Basis orbitals for state 2s

SPLIT: PAO cut-off radius determined from an
SPLIT: energy shift=  0.007350 Ry

   izeta = 1
                 lambda =    1.000000
                     rc =    4.071465
                 energy =   -1.356470
                kinetic =    1.176977
    potential(screened) =   -2.533447
       potential(ionic) =   -8.057990

   izeta = 2
                 rmatch =    2.905100
              splitnorm =    0.150000
                 energy =   -1.158343
                kinetic =    1.813009
    potential(screened) =   -2.971352
       potential(ionic) =   -8.901931

SPLIT: Orbitals with angular momentum L= 1

SPLIT: Basis orbitals for state 2p

SPLIT: PAO cut-off radius determined from an
SPLIT: energy shift=  0.007350 Ry

   izeta = 1
                 lambda =    1.000000
                     rc =    4.972977
                 energy =   -0.513884
                kinetic =    3.441732
    potential(screened) =   -3.955616
       potential(ionic) =   -9.287901

   izeta = 2
                 rmatch =    3.054066
              splitnorm =    0.150000
                 energy =   -0.318226
                kinetic =    5.125348
    potential(screened) =   -5.443573
       potential(ionic) =  -11.380999

POLgen: Perturbative polarization orbital with L=  2

POLgen: Polarization orbital for state 2p

   izeta = 1
                     rc =    4.972977
                 energy =    1.607437
                kinetic =    3.268125
    potential(screened) =   -1.660688
       potential(ionic) =   -5.973652
atom: Total number of Sankey-type orbitals: 13

atm_pop: Valence configuration (for local Pseudopot. screening):
 2s( 2.00)                                                            
 2p( 3.00)                                                            
Vna: chval, zval:    5.00000   5.00000

Vna:  Cut-off radius for the neutral-atom potential:   4.972977
comcore: Pseudo-core radius Rcore=  1.554824

atom: _________________________________________________________________________

<basis_specs>
===============================================================================
C                    Z=   6    Mass=  12.010        Charge= 0.17977+309
Lmxo=1 Lmxkb= 3    BasisType=split      Semic=F
L=0  Nsemic=0  Cnfigmx=2
          n=1  nzeta=2  polorb=0
            splnorm:   0.15000    
               vcte:    0.0000    
               rinn:    0.0000    
                rcs:    0.0000      0.0000    
            lambdas:    1.0000      1.0000    
L=1  Nsemic=0  Cnfigmx=2
          n=1  nzeta=2  polorb=1
            splnorm:   0.15000    
               vcte:    0.0000    
               rinn:    0.0000    
                rcs:    0.0000      0.0000    
            lambdas:    1.0000      1.0000    
-------------------------------------------------------------------------------
L=0  Nkbl=1  erefs: 0.17977+309
L=1  Nkbl=1  erefs: 0.17977+309
L=2  Nkbl=1  erefs: 0.17977+309
L=3  Nkbl=1  erefs: 0.17977+309
===============================================================================
</basis_specs>

atom: Called for C                     (Z =   6)

read_vps: Pseudopotential generation method:
read_vps: ATM3      Troullier-Martins                       
Total valence charge:    4.00000

read_vps: Pseudopotential includes a core correction:
read_vps: Pseudo-core for xc-correction

xc_check: Exchange-correlation functional:
xc_check: GGA Perdew, Burke & Ernzerhof 1996
V l=0 = -2*Zval/r beyond r=  1.5227
V l=1 = -2*Zval/r beyond r=  1.5227
V l=2 = -2*Zval/r beyond r=  1.5227
V l=3 = -2*Zval/r beyond r=  1.5038
All V_l potentials equal beyond r=  1.5227
This should be close to max(r_c) in ps generation
All pots = -2*Zval/r beyond r=  1.5227

VLOCAL1: 99.0% of the norm of Vloc inside     18.722 Ry
VLOCAL1: 99.9% of the norm of Vloc inside     42.668 Ry
atom: Maximum radius for 4*pi*r*r*local-pseudopot. charge    1.83678
atom: Maximum radius for r*vlocal+2*Zval:    1.58088
GHOST: No ghost state for L =  0
GHOST: No ghost state for L =  1
GHOST: No ghost state for L =  2
GHOST: No ghost state for L =  3

KBgen: Kleinman-Bylander projectors: 
   l= 0   rc=  1.704034   el= -1.009801   Ekb=  5.335044   kbcos=  0.316824
   l= 1   rc=  1.704034   el= -0.388707   Ekb= -3.785862   kbcos= -0.366464
   l= 2   rc=  1.791422   el=  0.001971   Ekb= -0.970471   kbcos= -0.009212
   l= 3   rc=  1.859892   el=  0.003065   Ekb= -0.399525   kbcos= -0.001223

KBgen: Total number of  Kleinman-Bylander projectors:   16
atom: -------------------------------------------------------------------------

atom: SANKEY-TYPE ORBITALS:
atom: Selected multiple-zeta basis: split     

SPLIT: Orbitals with angular momentum L= 0

SPLIT: Basis orbitals for state 2s

SPLIT: PAO cut-off radius determined from an
SPLIT: energy shift=  0.007350 Ry

   izeta = 1
                 lambda =    1.000000
                     rc =    4.632753
                 energy =   -1.002270
                kinetic =    0.855760
    potential(screened) =   -1.858031
       potential(ionic) =   -5.417575

   izeta = 2
                 rmatch =    3.431921
              splitnorm =    0.150000
                 energy =   -0.867111
                kinetic =    1.300804
    potential(screened) =   -2.167915
       potential(ionic) =   -5.962684

SPLIT: Orbitals with angular momentum L= 1

SPLIT: Basis orbitals for state 2p

SPLIT: PAO cut-off radius determined from an
SPLIT: energy shift=  0.007350 Ry

   izeta = 1
                 lambda =    1.000000
                     rc =    5.658549
                 energy =   -0.381140
                kinetic =    2.399701
    potential(screened) =   -2.780841
       potential(ionic) =   -6.206085

   izeta = 2
                 rmatch =    3.653288
              splitnorm =    0.150000
                 energy =   -0.249149
                kinetic =    3.542762
    potential(screened) =   -3.791911
       potential(ionic) =   -7.581078

POLgen: Perturbative polarization orbital with L=  2

POLgen: Polarization orbital for state 2p

   izeta = 1
                     rc =    5.658549
                 energy =    1.109913
                kinetic =    2.304789
    potential(screened) =   -1.194876
       potential(ionic) =   -4.013592
atom: Total number of Sankey-type orbitals: 13

atm_pop: Valence configuration (for local Pseudopot. screening):
 2s( 2.00)                                                            
 2p( 2.00)                                                            
Vna: chval, zval:    4.00000   4.00000

Vna:  Cut-off radius for the neutral-atom potential:   5.658549
comcore: Pseudo-core radius Rcore=  1.791422

atom: _________________________________________________________________________

prinput: Basis input ----------------------------------------------------------

PAO.BasisType split     

%block ChemicalSpeciesLabel
    1    7 N                       # Species index, atomic number, species label
    2    6 C                       # Species index, atomic number, species label
%endblock ChemicalSpeciesLabel

%block PAO.Basis                 # Define Basis set
N                     2                    # Species label, number of l-shells
 n=2   0   2                         # n, l, Nzeta 
   4.071      2.905   
   1.000      1.000   
 n=2   1   2 P   1                   # n, l, Nzeta, Polarization, NzetaPol
   4.973      3.054   
   1.000      1.000   
C                     2                    # Species label, number of l-shells
 n=2   0   2                         # n, l, Nzeta 
   4.633      3.432   
   1.000      1.000   
 n=2   1   2 P   1                   # n, l, Nzeta, Polarization, NzetaPol
   5.659      3.653   
   1.000      1.000   
%endblock PAO.Basis

prinput: ----------------------------------------------------------------------

coor:   Atomic-coordinates input format  =     Fractional

siesta: Atomic coordinates (Bohr) and species
siesta:     -4.68258  34.85847   0.00000  1        1
siesta:      4.63094  18.72698   0.00000  1        2
siesta:     -2.35420  17.38257   0.00000  1        3
siesta:     -0.02582  21.41544   0.00000  1        4
siesta:      2.30256  25.44831   0.00000  1        5
siesta:     -4.68258  18.72698   0.00000  1        6
siesta:     -2.35420  22.75985   0.00000  1        7
siesta:     -7.01096  25.44831   0.00000  1        8
siesta:     -9.33934  26.79272   0.00000  1        9
siesta:      4.63094  29.48119   0.00000  1       10
siesta:     -0.02582  26.79272   0.00000  1       11
siesta:     -4.68258  29.48119   0.00000  1       12
siesta:      2.30256  30.82560   0.00000  1       13
siesta:     -2.35420  33.51406   0.00000  1       14
siesta:     -7.01096  30.82560   0.00000  1       15
siesta:     -0.02582   2.59549   0.00000  2       16
siesta:     -0.02582   5.28395   0.00000  2       17
siesta:     -2.35420  38.89134   0.00000  2       18
siesta:     -2.35420  41.57980   0.00000  2       19
siesta:      2.30256  38.89134   0.00000  2       20
siesta:      2.30256  41.57980   0.00000  2       21
siesta:      4.63094  34.85847   0.00000  2       22
siesta:      4.63094  37.54693   0.00000  2       23
siesta:      6.95932  30.82560   0.00000  2       24
siesta:      6.95932  33.51406   0.00000  2       25
siesta:      9.28770  26.79272   0.00000  2       26
siesta:      9.28770  29.48119   0.00000  2       27
siesta:     -4.68258  37.54693   0.00000  2       28
siesta:      2.30256   6.62836   0.00000  2       29
siesta:      2.30256   9.31683   0.00000  2       30
siesta:      4.63094  10.66124   0.00000  2       31
siesta:      4.63094  13.34970   0.00000  2       32
siesta:      6.95932  14.69411   0.00000  2       33
siesta:      6.95932  17.38257   0.00000  2       34
siesta:      9.28770  18.72698   0.00000  2       35
siesta:      9.28770  21.41544   0.00000  2       36
siesta:     11.61608  22.75985   0.00000  2       37
siesta:     11.61608  25.44831   0.00000  2       38
siesta:     -2.35420   6.62836   0.00000  2       39
siesta:     -2.35420   9.31683   0.00000  2       40
siesta:     -0.02582  10.66124   0.00000  2       41
siesta:     -0.02582  13.34970   0.00000  2       42
siesta:      2.30256  14.69411   0.00000  2       43
siesta:      2.30256  17.38257   0.00000  2       44
siesta:      4.63094  21.41544   0.00000  2       45
siesta:      6.95932  22.75985   0.00000  2       46
siesta:      6.95932  25.44831   0.00000  2       47
siesta:     -4.68258  10.66124   0.00000  2       48
siesta:     -4.68258  13.34970   0.00000  2       49
siesta:     -2.35420  14.69411   0.00000  2       50
siesta:     -0.02582  18.72698   0.00000  2       51
siesta:      2.30256  22.75985   0.00000  2       52
siesta:     -7.01096  14.69411   0.00000  2       53
siesta:     -7.01096  17.38257   0.00000  2       54
siesta:     -4.68258  21.41544   0.00000  2       55
siesta:     -2.35420  25.44831   0.00000  2       56
siesta:     -9.33934  18.72698   0.00000  2       57
siesta:     -9.33934  21.41544   0.00000  2       58
siesta:     -7.01096  22.75985   0.00000  2       59
siesta:    -11.66772  22.75985   0.00000  2       60
siesta:    -11.66772  25.44831   0.00000  2       61
siesta:     -9.33934  29.48119   0.00000  2       62
siesta:      4.63094  26.79272   0.00000  2       63
siesta:     -0.02582  29.48119   0.00000  2       64
siesta:     -4.68258  26.79272   0.00000  2       65
siesta:      2.30256  33.51406   0.00000  2       66
siesta:     -2.35420  30.82560   0.00000  2       67
siesta:     -7.01096  33.51406   0.00000  2       68
siesta:     -0.02582  34.85847   0.00000  2       69
siesta:     -0.02582  37.54693   0.00000  2       70
siesta:     -0.02582  42.92421   0.00000  2       71
siesta:     -0.02582  45.61267   0.00000  2       72

siesta: System type = slab      

initatomlists: Number of atoms, orbitals, and projectors:     72   936  1152

siesta: ******************** Simulation parameters ****************************
siesta:
siesta: The following are some of the parameters of the simulation.
siesta: A complete list of the parameters used, including default values,
siesta: can be found in file out.fdf
siesta:
redata: Non-Collinear-spin run           =     F
redata: SpinPolarized (Up/Down) run      =     F
redata: Number of spin components        =     1
redata: Long output                      =     F
redata: Number of Atomic Species         =        2
redata: Charge density info will appear in .RHO file
redata: Write Mulliken Pop.              =     NO
redata: Mesh Cutoff                      =   200.0000  Ry
redata: Net charge of the system         =     0.0000 |e|
redata: Max. number of SCF Iter          =      500
redata: SCF convergence failure will abort job
redata: Performing Pulay mixing using    =    10 iterations
redata: Mix DM in first SCF step ?       =     F
redata: Write Pulay info on disk?        =     F
redata: Discard 1st Pulay DM after  kick =     F
redata: New DM Mixing Weight             =     0.0500
redata: New DM Occupancy tolerance       = 0.000000000001
redata: No kicks to SCF
redata: DM Mixing Weight for Kicks       =     0.5000
redata: DM Tolerance for SCF             =     0.000100
redata: Require Energy convergence for SCF =     F
redata: DM Energy tolerance for SCF      =     0.000100 eV
redata: Require Harris convergence for SCF =     F
redata: DM Harris energy tolerance for SCF =     0.000100 eV
redata: Using Saved Data (generic)   =     F
redata: Use continuation files for DM    =     T
redata: Neglect nonoverlap interactions  =     F
redata: Method of Calculation            =     Diagonalization
redata: Divide and Conquer               =     T
redata: Electronic Temperature           =     0.0019  Ry
redata: Fix the spin of the system       =     F
redata: Dynamics option                  =     Verlet MD run
redata: Initial MD time step             =        1
redata:   Final MD time step             =        1
redata: Length of MD time step           =     1.0000  fs
redata: Initial Temperature of MD run    =     0.0000  K
redata: Perform a MD quench              =     F
redata: ***********************************************************************
Total number of electrons:   303.000000
Total ionic charge:   303.000000

* ProcessorY, Blocksize:    3  24

k-point displ. along   1 input, could be:     0.50    0.00
k-point displ. along   2 input, could be:     0.50    0.00
 Kpoints in:          231 . Kpoints trimmed:          231

siesta: k-grid: Number of k-points =   231
siesta: k-grid: Cutoff (effective) =     5.000 Ang
siesta: k-grid: Supercell and displacements
siesta: k-grid:   21   0   0      0.500
siesta: k-grid:    0  21   0      0.500
siesta: k-grid:    0   0   1      0.000
Naive supercell factors:     2    2    2

superc: Internal auxiliary supercell:     2 x     2 x     2  =       8
superc: Number of atoms, orbitals, and projectors:    576   7488   9216

* Maximum dynamic memory allocated =     4 MB

siesta:                 ==============================
                            Begin MD step =      1
                        ==============================

superc: Internal auxiliary supercell:     2 x     2 x     2  =       8
superc: Number of atoms, orbitals, and projectors:    576   7488   9216

outcell: Unit cell vectors (Ang):
       12.804619    7.392750    0.000000
        0.000000   14.785500    0.000000
        0.000000    0.000000   10.000000

outcell: Cell vector modules (Ang)   :   14.785500   14.785500   10.000000
outcell: Cell angles (23,13,12) (deg):     90.0000     90.0000     60.0000
outcell: Cell volume (Ang**3)        :   1893.2269
New_DM. Step:     1
Initializing Density Matrix...

InitMesh: MESH =   120 x   120 x    90 =     1296000
InitMesh: Mesh cutoff (required, used) =   200.000   223.865 Ry

* Maximum dynamic memory allocated =   134 MB

stepf: Fermi-Dirac step function

siesta: Program's energy decomposition (eV):
siesta: Ebs     =     -6114.793525
siesta: Eions   =     20814.213734
siesta: Ena     =      4867.888886
siesta: Ekin    =      7637.016727
siesta: Enl     =       202.894274
siesta: DEna    =        -0.000015
siesta: DUscf   =         0.000000
siesta: DUext   =         0.000000
siesta: Exc     =     -4538.145977
siesta: eta*DQ  =         0.000000
siesta: Emadel  =         0.000000
siesta: Emeta   =         0.000000
siesta: Emolmec =         0.000000
siesta: Ekinion =         0.000000
siesta: Eharris =    -12301.364548
siesta: Etot    =    -12644.559838
siesta: FreeEng =    -12644.559838

siesta: iscf   Eharris(eV)      E_KS(eV)   FreeEng(eV)   dDmax  Ef(eV)
siesta:    1   -12301.3645   -12644.5598   -12644.5598  6.3305 -6.9613
timer: Routine,Calls,Time,% = IterSCF        1    3022.711  99.59
elaps: Routine,Calls,Wall,% = IterSCF        1     252.493  99.59
siesta:    2   -17788.7365   -11532.4107   -11532.4756 16.7965 -6.6072
siesta:    3   -12244.0794   -12452.7448   -12452.7888  2.6062 -4.7729
siesta:    4   -12205.2270   -12325.1219   -12325.1373  1.3560 -4.1930
siesta:    5   -12159.5367   -12262.2397   -12262.3200  0.9520 -3.8964
siesta:    6   -12150.5094   -12209.7400   -12209.8085  0.8298 -3.6372
siesta:    7   -12141.8463   -12193.4297   -12193.4815  0.7526 -3.6951
siesta:    8   -12138.3167   -12185.2729   -12185.3237  0.6908 -3.7990
siesta:    9   -12136.7702   -12171.2104   -12171.2622  0.5855 -3.8167
siesta:   10   -12136.8383   -12147.5758   -12147.6172  0.3795 -3.8314
siesta:   11   -12136.3254   -12138.4262   -12138.4867  0.2978 -3.7625
siesta:   12   -12136.1706   -12123.9602   -12123.9996  0.2079 -3.6597
siesta:   13   -12136.0043   -12119.0693   -12119.1269  0.2463 -3.6904
siesta:   14   -12135.5712   -12121.4466   -12121.5062  0.2167 -3.6697
siesta:   15   -12135.1923   -12123.1563   -12123.2245  0.1408 -3.6615
siesta:   16   -12134.9937   -12125.6270   -12125.6859  0.0868 -3.7103
siesta:   17   -12134.9244   -12126.5403   -12126.5907  0.0789 -3.7144
siesta:   18   -12134.8863   -12128.0075   -12128.0648  0.0577 -3.7319
siesta:   19   -12134.8747   -12130.0305   -12130.0864  0.0403 -3.7394
siesta:   20   -12134.8642   -12132.3538   -12132.4085  0.0192 -3.7402
siesta:   21   -12134.8581   -12133.6384   -12133.6916  0.0212 -3.7366
siesta:   22   -12134.8531   -12133.8416   -12133.8957  0.0091 -3.7356
siesta:   23   -12134.8509   -12134.5886   -12134.6418  0.0072 -3.7351
siesta:   24   -12134.8506   -12135.0436   -12135.0972  0.0088 -3.7349
siesta:   25   -12134.8501   -12135.1433   -12135.1967  0.0073 -3.7340
siesta:   26   -12134.8502   -12135.1722   -12135.2260  0.0027 -3.7305
siesta:   27   -12134.8500   -12135.0851   -12135.1386  0.0021 -3.7302
siesta:   28   -12134.8500   -12135.0596   -12135.1130  0.0017 -3.7299
siesta:   29   -12134.8499   -12134.9942   -12135.0475  0.0012 -3.7300
siesta:   30   -12134.8499   -12134.9460   -12134.9994  0.0006 -3.7301
siesta:   31   -12134.8499   -12134.9268   -12134.9802  0.0004 -3.7302
siesta:   32   -12134.8499   -12134.8857   -12134.9391  0.0003 -3.7303
siesta:   33   -12134.8499   -12134.8759   -12134.9292  0.0002 -3.7303
siesta:   34   -12134.8499   -12134.8616   -12134.9150  0.0001 -3.7303
siesta:   35   -12134.8499   -12134.8596   -12134.9130  0.0001 -3.7303

siesta: E_KS(eV) =           -12134.8593

siesta: E_KS - E_eggbox =    -12134.8593

siesta: Atomic forces (eV/Ang):
----------------------------------------
   Tot   -0.001055   -0.144933    0.000000
----------------------------------------
   Max  681.118742
   Res  165.963805    sqrt( Sum f_i^2 / 3N )
----------------------------------------
   Max  681.118742    constrained

Stress-tensor-Voigt (kbar):     -706.61    -2911.79       -0.08        7.62        0.00        0.00
(Free)E + p*V (eV/cell)   -10709.6562
Target enthalpy (eV/cell)   -12134.9127

siesta: Stress tensor (static) (eV/Ang**3):
        -0.441025    0.004753    0.000000
         0.004754   -1.817379    0.000000
         0.000000    0.000000   -0.000051

siesta: Pressure (static):       1206.16146044  kBar

siesta: Stress tensor (total) (eV/Ang**3):
        -0.441025    0.004753    0.000000
         0.004754   -1.817379    0.000000
         0.000000    0.000000   -0.000051

siesta: Pressure (total):       1206.16146044  kBar

siesta: Temp_ion =       0.000 K

* Maximum dynamic memory allocated =   145 MB
Computing bands...

siesta: Program's energy decomposition (eV):
siesta: Ebs     =     -4903.076282
siesta: Eions   =     20814.213734
siesta: Ena     =      4867.888886
siesta: Ekin    =     10610.148518
siesta: Enl     =     -1433.381179
siesta: DEna    =      -765.520213
siesta: DUscf   =       105.360856
siesta: DUext   =         0.000000
siesta: Exc     =     -4705.142468
siesta: eta*DQ  =         0.000000
siesta: Emadel  =         0.000000
siesta: Emeta   =         0.000000
siesta: Emolmec =         0.000000
siesta: Ekinion =         0.000000
siesta: Eharris =    -12134.849920
siesta: Etot    =    -12134.859334
siesta: FreeEng =    -12134.912695

siesta: Final energy (eV):
siesta:  Band Struct. =   -4903.076282
siesta:       Kinetic =   10610.148518
siesta:       Hartree =   34315.807617
siesta:    Ext. field =       0.000000
siesta:   Exch.-corr. =   -4705.142468
siesta:  Ion-electron =  -78799.579461
siesta:       Ion-ion =   26443.906461
siesta:       Ekinion =       0.000000
siesta:         Total =  -12134.859334

siesta: Atomic forces (eV/Ang):
siesta:      1  -31.550253   11.747966    0.000000
siesta:      2   -1.537949    3.855603    0.000000
siesta:      3  -28.913541  -10.052868    0.000000
siesta:      4    0.774996   -0.363445    0.000000
siesta:      5    1.042587    0.111156    0.000000
siesta:      6   -1.551434    5.832654    0.000000
siesta:      7   -0.364600   -0.890443    0.000000
siesta:      8    1.821215   -1.110718    0.000000
siesta:      9   -1.391771    3.817224    0.000000
siesta:     10    0.499373   -5.994384    0.000000
siesta:     11   -0.769451    0.768769    0.000000
siesta:     12    1.974665   -3.914063    0.000000
siesta:     13   28.875290    7.708944    0.000000
siesta:     14   -1.501909 -681.118742    0.000000
siesta:     15   -1.387211    1.889438    0.000000
siesta:     16    9.615695  549.632904    0.000000
siesta:     17   -0.858353 -122.504956    0.000000
siesta:     18    0.397790  127.631877    0.000000
siesta:     19  -20.118550 -549.685329    0.000000
siesta:     20   -1.334654  128.387123    0.000000
siesta:     21   17.732573 -549.884980    0.000000
siesta:     22   26.130635    5.899146    0.000000
siesta:     23   33.050142 -550.106173    0.000000
siesta:     24    2.403937    0.628272    0.000000
siesta:     25   -2.541068    0.473350    0.000000
siesta:     26    1.968345    2.273793    0.000000
siesta:     27   -1.438735    0.634326    0.000000
siesta:     28  -25.103111 -550.492069    0.000000
siesta:     29   16.001177  550.756093    0.000000
siesta:     30   -1.268259 -126.803564    0.000000
siesta:     31   34.383932  549.556690    0.000000
siesta:     32   26.066810   -6.819852    0.000000
siesta:     33   -2.922967   -0.999335    0.000000
siesta:     34    2.290619    0.143091    0.000000
siesta:     35   -1.896485   -0.898172    0.000000
siesta:     36    1.609830   -1.899654    0.000000
siesta:     37   -0.218068    7.047385    0.000000
siesta:     38   -0.416385   -6.755573    0.000000
siesta:     39  -31.301613  650.641590    0.000000
siesta:     40   -0.999323 -118.411995    0.000000
siesta:     41   -3.873965  546.556227    0.000000
siesta:     42   -1.648258 -128.528469    0.000000
siesta:     43   20.925447  559.975238    0.000000
siesta:     44   24.703749   -8.063422    0.000000
siesta:     45   -0.728337   -1.008288    0.000000
siesta:     46   -0.095060    0.417486    0.000000
siesta:     47   -0.876556   -0.685140    0.000000
siesta:     48  -34.834480  551.872491    0.000000
siesta:     49  -26.706634   -6.581139    0.000000
siesta:     50  -11.771301  556.751926    0.000000
siesta:     51   14.680191  577.270890    0.000000
siesta:     52   -0.093212   -0.314323    0.000000
siesta:     53    2.521039   -0.592753    0.000000
siesta:     54   -1.959898   -0.245551    0.000000
siesta:     55   -0.108802   -0.748928    0.000000
siesta:     56   -0.782201    0.908429    0.000000
siesta:     57    1.925419   -0.219223    0.000000
siesta:     58   -1.083142   -1.896480    0.000000
siesta:     59    0.590514    0.588950    0.000000
siesta:     60    0.044574    6.379943    0.000000
siesta:     61    1.172011   -4.180943    0.000000
siesta:     62   -0.415011   -1.262276    0.000000
siesta:     63   -0.564236    1.333934    0.000000
siesta:     64  -12.808369 -581.841001    0.000000
siesta:     65    0.199495    0.070948    0.000000
siesta:     66   10.731317 -554.066018    0.000000
siesta:     67  -22.780929    7.939362    0.000000
siesta:     68    0.630339   -2.183640    0.000000
siesta:     69    5.161441  129.336785    0.000000
siesta:     70    4.263695 -544.633818    0.000000
siesta:     71   -2.069156  125.620734    0.000000
siesta:     72  -11.604660 -548.847940    0.000000
siesta: ----------------------------------------
siesta:    Tot   -0.001055   -0.144933    0.000000

siesta: Stress tensor (static) (eV/Ang**3):
siesta:    -0.441025    0.004753    0.000000
siesta:     0.004754   -1.817379    0.000000
siesta:     0.000000    0.000000   -0.000051

siesta: Cell volume =       1893.226884 Ang**3

siesta: Pressure (static):
siesta:                Solid            Molecule  Units
siesta:           0.00819916          0.12949498  Ry/Bohr**3
siesta:           0.75281863         11.88978896  eV/Ang**3
siesta:        1206.16146044      19049.74795894  kBar
(Free)E+ p_basis*V_orbitals  =      -12106.319531
(Free)Eharris+ p_basis*V_orbitals  =      -12106.309805

siesta: Electric dipole (a.u.)  =    0.000000    0.000000    0.000000
siesta: Electric dipole (Debye) =    0.000000    0.000000    0.000000

* Maximum dynamic memory allocated : Node    0 =   145 MB
* Maximum dynamic memory allocated : Node    1 =    58 MB
* Maximum dynamic memory allocated : Node    2 =    60 MB
* Maximum dynamic memory allocated : Node    3 =   133 MB
* Maximum dynamic memory allocated : Node    4 =   145 MB
* Maximum dynamic memory allocated : Node    5 =    54 MB
* Maximum dynamic memory allocated : Node    6 =    54 MB
* Maximum dynamic memory allocated : Node    7 =   137 MB
* Maximum dynamic memory allocated : Node    8 =   127 MB
* Maximum dynamic memory allocated : Node    9 =    52 MB
* Maximum dynamic memory allocated : Node   10 =    54 MB
* Maximum dynamic memory allocated : Node   11 =   123 MB

* Maximum memory occured during matrixMtoO                    

timer: CPU execution times:
timer:  Routine       Calls   Time/call    Tot.time        %
timer:  siesta            1  103333.062  103333.062   100.00
timer:  Setup             1       3.442       3.442     0.00
timer:  bands             3     226.517     679.551     0.66
timer:  writewave         1       0.023       0.023     0.00
timer:  KSV_init          1       0.006       0.006     0.00
timer:  IterMD            1  102643.057  102643.057    99.33
timer:  hsparse           1       0.160       0.160     0.00
timer:  overlap           1       7.155       7.155     0.01
timer:  IterSCF          35    2929.098  102518.444    99.21
timer:  kinefsm           2       3.624       7.247     0.01
timer:  nlefsm            2      18.365      36.730     0.04
timer:  DHSCF            36      62.390    2246.055     2.17
timer:  DHSCF1            1       0.902       0.902     0.00
timer:  DHSCF2            1      24.785      24.785     0.02
timer:  REORD           290       0.002       0.657     0.00
timer:  POISON           37       0.450      16.657     0.02
timer:  DHSCF3           36      61.093    2199.344     2.13
timer:  rhoofd           36      12.313     443.250     0.43
timer:  cellXC           36       2.416      86.983     0.08
timer:  vmat             36      28.749    1034.958     1.00
timer:  MolMec            2       0.000       0.000     0.00
timer:  diagon           35    2865.472  100291.520    97.06
timer:  c-eigval       8206       5.599   45944.309    44.46
timer:  c-buildHS      8206       0.033     267.680     0.26
timer:  cdiag         16291       5.697   92805.031    89.81
timer:  cdiag1        16291       0.260    4234.149     4.10
timer:  cdiag2        16291       1.840   29971.024    29.00
timer:  cdiag3        16291       3.393   55270.101    53.49
timer:  cdiag4        16291       0.089    1449.919     1.40
timer:  c-eigvec       8085       5.856   47348.345    45.82
timer:  c-buildD       8085       0.944    7634.080     7.39
timer:  DHSCF4            1      20.776      20.776     0.02
timer:  dfscf             1      19.354      19.354     0.02
timer:  overfsm           1       0.283       0.283     0.00
timer:  optical           1       6.398       6.398     0.01
  

elaps: ELAPSED times:
elaps:  Routine       Calls   Time/call    Tot.time        %
elaps:  siesta            1    8631.278    8631.278   100.00
elaps:  Setup             1       0.285       0.285     0.00
elaps:  bands             3      18.936      56.808     0.66
elaps:  writewave         1       0.002       0.002     0.00
elaps:  KSV_init          1       0.000       0.000     0.00
elaps:  IterMD            1    8573.645    8573.645    99.33
elaps:  hsparse           1       0.016       0.016     0.00
elaps:  overlap           1       0.709       0.709     0.01
elaps:  IterSCF          35     244.664    8563.236    99.21
elaps:  kinefsm           2       0.362       0.723     0.01
elaps:  nlefsm            2       1.494       2.987     0.03
elaps:  DHSCF            36       5.259     189.310     2.19
elaps:  DHSCF1            1       0.077       0.077     0.00
elaps:  DHSCF2            1       2.069       2.069     0.02
elaps:  REORD           290       0.000       0.086     0.00
elaps:  POISON           37       0.038       1.411     0.02
elaps:  DHSCF3           36       5.104     183.728     2.13
elaps:  rhoofd           36       2.171      78.168     0.91
elaps:  cellXC           36       0.201       7.248     0.08
elaps:  vmat             36       2.402      86.473     1.00
elaps:  MolMec            2       0.000       0.000     0.00
elaps:  diagon           35     239.355    8377.412    97.06
elaps:  c-eigval       8206       0.468    3837.625    44.46
elaps:  c-buildHS      8206       0.003      28.124     0.33
elaps:  cdiag         16291       0.472    7683.207    89.02
elaps:  cdiag1        16291       0.021     345.949     4.01
elaps:  cdiag2        16291       0.154    2505.657    29.03
elaps:  cdiag3        16291       0.284    4623.832    53.57
elaps:  cdiag4        16291       0.007     116.648     1.35
elaps:  c-eigvec       8085       0.482    3897.472    45.16
elaps:  c-buildD       8085       0.086     694.930     8.05
elaps:  DHSCF4            1       3.393       3.393     0.04
elaps:  dfscf             1       3.205       3.205     0.04
elaps:  overfsm           1       0.029       0.029     0.00
elaps:  optical           1       0.000       0.000     0.00
  
>> End of run:   6-MAY-2016  17:11:46
