Siesta Version:                                        siesta-3.2-pl-3
Architecture  : x86_64-unknown-linux-gnu--unknown
Compiler flags: mpiifort -g -O2 -fPIC -xSSE4.1 -fp-model source -shared-intel 
PARALLEL version

* Running on    8 nodes in parallel
>> Start of run:  22-APR-2016  13:57:10

                           ***********************       
                           *  WELCOME TO SIESTA  *       
                           ***********************       

reinit: Reading from standard input
************************** Dump of input data file ****************************
#(1) General system descriptors
SystemName            GRP_doping    # Descriptive name of the system
SystemLabel           GRP_doping    # Short name for naming files
%include STRUCT.fdf
%include KPT.fdf
%include BASIS.fdf
#%include TS.fdf # for transiesta calculation
#(4) DFT, Grid, SCF
XC.functional         GGA           # LDA or GGA (default = LDA)
XC.authors            PBE           # CA (Ceperley-Aldr) = PZ
                                    #    (Perdew-Zunger) - LDA - Default
                                    # PW92 (Perdew-Wang-92) - LDA
                                    # PBE (Perdew-Burke-Ernzerhof) - GGA
MeshCutoff            200.000000    Ry      # Default: 50.0 Ry ~ 0.444 Bohr
                                    #         100.0 Ry ~ 0.314 Bohr
MaxSCFIterations      500           # Default: 50
DM.MixingWeight       0.05          # Default: 0.25
DM.NumberPulay        10            # Default: 0
DM.PulayOnFile        F             # SystemLabel.P1, SystemLabel.P2
DM.Tolerance          1.d-4         # Default: 1.d-4
DM.UseSaveDM          .true.        # because of the bug
SCFMustConverge       .true.
NeglNonOverlapInt     F             # Default: F
#(5) Eigenvalue problem: order-N or diagonalization
SolutionMethod        Diagon        # or Transiesta
ElectronicTemperature 300.0 K       # Default: 300.0 K
#(6) Molecular dynamics and relaxations
#MD.TypeOfRun          CG            # Type of dynamics:
#MD.VariableCell       F
#MD.NumCGsteps         0           # 0 for single-point / 100 for gopt
#MD.MaxCGDispl         0.2 Bohr      # Default: 0.2 Bohr
#MD.MaxForceTol        0.02 eV/Ang   # Default: 0.04 eV/Ang
#MD.MaxStressTol       1.0 GPa       # Default: 1.0 GPa
# Geometry Constraints
#%block GeometryConstraints
#	position from 1 to 44
#%endblock GeometryConstraints
BandLinesScale   pi/a
%block BandLines
 1   0.00000000  0.00000000  0.00000000
50   0.00000000  0.07809418  0.00000000
50   0.04509075  0.07809242  0.00000000
20   0.00000000  0.00000000  0.00000000
%endblock BandLines
************************** End of input data file *****************************

reinit: -----------------------------------------------------------------------
reinit: System Name: GRP_doping
reinit: -----------------------------------------------------------------------
reinit: System Label: GRP_doping                                                  
reinit: -----------------------------------------------------------------------

initatom: Reading input for the pseudopotentials and atomic orbitals ----------
 Species number:            1  Label: N Atomic number:           7
 Species number:            2  Label: C Atomic number:           6
Ground state valence configuration:   2s02  2p03
Reading pseudopotential information in formatted form from N.psf

Valence configuration for pseudopotential generation:
2s( 2.00) rc: 1.48
2p( 3.00) rc: 1.48
3d( 0.00) rc: 1.48
4f( 0.00) rc: 1.48
Ground state valence configuration:   2s02  2p02
Reading pseudopotential information in formatted form from C.psf

Valence configuration for pseudopotential generation:
2s( 2.00) rc: 1.54
2p( 2.00) rc: 1.54
3d( 0.00) rc: 1.54
4f( 0.00) rc: 1.54
For N, standard SIESTA heuristics set lmxkb to 3
 (one more than the basis l, including polarization orbitals).
Use PS.lmax or PS.KBprojectors blocks to override.
For C, standard SIESTA heuristics set lmxkb to 3
 (one more than the basis l, including polarization orbitals).
Use PS.lmax or PS.KBprojectors blocks to override.

<basis_specs>
===============================================================================
N                    Z=   7    Mass=  14.010        Charge= 0.17977+309
Lmxo=1 Lmxkb= 3    BasisType=split      Semic=F
L=0  Nsemic=0  Cnfigmx=2
          n=1  nzeta=2  polorb=0
            splnorm:   0.15000    
               vcte:    0.0000    
               rinn:    0.0000    
                rcs:    0.0000      0.0000    
            lambdas:    1.0000      1.0000    
L=1  Nsemic=0  Cnfigmx=2
          n=1  nzeta=2  polorb=1
            splnorm:   0.15000    
               vcte:    0.0000    
               rinn:    0.0000    
                rcs:    0.0000      0.0000    
            lambdas:    1.0000      1.0000    
-------------------------------------------------------------------------------
L=0  Nkbl=1  erefs: 0.17977+309
L=1  Nkbl=1  erefs: 0.17977+309
L=2  Nkbl=1  erefs: 0.17977+309
L=3  Nkbl=1  erefs: 0.17977+309
===============================================================================
</basis_specs>

atom: Called for N                     (Z =   7)

read_vps: Pseudopotential generation method:
read_vps: ATM3      Troullier-Martins                       
Total valence charge:    5.00000

read_vps: Pseudopotential includes a core correction:
read_vps: Pseudo-core for xc-correction

xc_check: Exchange-correlation functional:
xc_check: GGA Perdew, Burke & Ernzerhof 1996
V l=0 = -2*Zval/r beyond r=  1.4606
V l=1 = -2*Zval/r beyond r=  1.4606
V l=2 = -2*Zval/r beyond r=  1.4606
V l=3 = -2*Zval/r beyond r=  1.4606
All V_l potentials equal beyond r=  1.4606
This should be close to max(r_c) in ps generation
All pots = -2*Zval/r beyond r=  1.4606

VLOCAL1: 99.0% of the norm of Vloc inside     20.347 Ry
VLOCAL1: 99.9% of the norm of Vloc inside     46.372 Ry
atom: Maximum radius for 4*pi*r*r*local-pseudopot. charge    1.76189
atom: Maximum radius for r*vlocal+2*Zval:    1.53550
GHOST: No ghost state for L =  0
GHOST: No ghost state for L =  1
GHOST: No ghost state for L =  2
GHOST: No ghost state for L =  3

KBgen: Kleinman-Bylander projectors: 
   l= 0   rc=  1.634559   el= -1.363963   Ekb=  5.296955   kbcos=  0.335621
   l= 1   rc=  1.614250   el= -0.521451   Ekb= -5.259161   kbcos= -0.433408
   l= 2   rc=  1.718383   el=  0.001991   Ekb= -1.271464   kbcos= -0.007566
   l= 3   rc=  1.761893   el=  0.003093   Ekb= -0.494769   kbcos= -0.001015

KBgen: Total number of  Kleinman-Bylander projectors:   16
atom: -------------------------------------------------------------------------

atom: SANKEY-TYPE ORBITALS:
atom: Selected multiple-zeta basis: split     

SPLIT: Orbitals with angular momentum L= 0

SPLIT: Basis orbitals for state 2s

SPLIT: PAO cut-off radius determined from an
SPLIT: energy shift=  0.007350 Ry

   izeta = 1
                 lambda =    1.000000
                     rc =    4.071465
                 energy =   -1.356470
                kinetic =    1.176977
    potential(screened) =   -2.533447
       potential(ionic) =   -8.057990

   izeta = 2
                 rmatch =    2.905100
              splitnorm =    0.150000
                 energy =   -1.158343
                kinetic =    1.813009
    potential(screened) =   -2.971352
       potential(ionic) =   -8.901931

SPLIT: Orbitals with angular momentum L= 1

SPLIT: Basis orbitals for state 2p

SPLIT: PAO cut-off radius determined from an
SPLIT: energy shift=  0.007350 Ry

   izeta = 1
                 lambda =    1.000000
                     rc =    4.972977
                 energy =   -0.513884
                kinetic =    3.441732
    potential(screened) =   -3.955616
       potential(ionic) =   -9.287901

   izeta = 2
                 rmatch =    3.054066
              splitnorm =    0.150000
                 energy =   -0.318226
                kinetic =    5.125348
    potential(screened) =   -5.443573
       potential(ionic) =  -11.380999

POLgen: Perturbative polarization orbital with L=  2

POLgen: Polarization orbital for state 2p

   izeta = 1
                     rc =    4.972977
                 energy =    1.607437
                kinetic =    3.268125
    potential(screened) =   -1.660688
       potential(ionic) =   -5.973652
atom: Total number of Sankey-type orbitals: 13

atm_pop: Valence configuration (for local Pseudopot. screening):
 2s( 2.00)                                                            
 2p( 3.00)                                                            
Vna: chval, zval:    5.00000   5.00000

Vna:  Cut-off radius for the neutral-atom potential:   4.972977
comcore: Pseudo-core radius Rcore=  1.554824

atom: _________________________________________________________________________

<basis_specs>
===============================================================================
C                    Z=   6    Mass=  12.010        Charge= 0.17977+309
Lmxo=1 Lmxkb= 3    BasisType=split      Semic=F
L=0  Nsemic=0  Cnfigmx=2
          n=1  nzeta=2  polorb=0
            splnorm:   0.15000    
               vcte:    0.0000    
               rinn:    0.0000    
                rcs:    0.0000      0.0000    
            lambdas:    1.0000      1.0000    
L=1  Nsemic=0  Cnfigmx=2
          n=1  nzeta=2  polorb=1
            splnorm:   0.15000    
               vcte:    0.0000    
               rinn:    0.0000    
                rcs:    0.0000      0.0000    
            lambdas:    1.0000      1.0000    
-------------------------------------------------------------------------------
L=0  Nkbl=1  erefs: 0.17977+309
L=1  Nkbl=1  erefs: 0.17977+309
L=2  Nkbl=1  erefs: 0.17977+309
L=3  Nkbl=1  erefs: 0.17977+309
===============================================================================
</basis_specs>

atom: Called for C                     (Z =   6)

read_vps: Pseudopotential generation method:
read_vps: ATM3      Troullier-Martins                       
Total valence charge:    4.00000

read_vps: Pseudopotential includes a core correction:
read_vps: Pseudo-core for xc-correction

xc_check: Exchange-correlation functional:
xc_check: GGA Perdew, Burke & Ernzerhof 1996
V l=0 = -2*Zval/r beyond r=  1.5227
V l=1 = -2*Zval/r beyond r=  1.5227
V l=2 = -2*Zval/r beyond r=  1.5227
V l=3 = -2*Zval/r beyond r=  1.5038
All V_l potentials equal beyond r=  1.5227
This should be close to max(r_c) in ps generation
All pots = -2*Zval/r beyond r=  1.5227

VLOCAL1: 99.0% of the norm of Vloc inside     18.722 Ry
VLOCAL1: 99.9% of the norm of Vloc inside     42.668 Ry
atom: Maximum radius for 4*pi*r*r*local-pseudopot. charge    1.83678
atom: Maximum radius for r*vlocal+2*Zval:    1.58088
GHOST: No ghost state for L =  0
GHOST: No ghost state for L =  1
GHOST: No ghost state for L =  2
GHOST: No ghost state for L =  3

KBgen: Kleinman-Bylander projectors: 
   l= 0   rc=  1.704034   el= -1.009801   Ekb=  5.335044   kbcos=  0.316824
   l= 1   rc=  1.704034   el= -0.388707   Ekb= -3.785862   kbcos= -0.366464
   l= 2   rc=  1.791422   el=  0.001971   Ekb= -0.970471   kbcos= -0.009212
   l= 3   rc=  1.859892   el=  0.003065   Ekb= -0.399525   kbcos= -0.001223

KBgen: Total number of  Kleinman-Bylander projectors:   16
atom: -------------------------------------------------------------------------

atom: SANKEY-TYPE ORBITALS:
atom: Selected multiple-zeta basis: split     

SPLIT: Orbitals with angular momentum L= 0

SPLIT: Basis orbitals for state 2s

SPLIT: PAO cut-off radius determined from an
SPLIT: energy shift=  0.007350 Ry

   izeta = 1
                 lambda =    1.000000
                     rc =    4.632753
                 energy =   -1.002270
                kinetic =    0.855760
    potential(screened) =   -1.858031
       potential(ionic) =   -5.417575

   izeta = 2
                 rmatch =    3.431921
              splitnorm =    0.150000
                 energy =   -0.867111
                kinetic =    1.300804
    potential(screened) =   -2.167915
       potential(ionic) =   -5.962684

SPLIT: Orbitals with angular momentum L= 1

SPLIT: Basis orbitals for state 2p

SPLIT: PAO cut-off radius determined from an
SPLIT: energy shift=  0.007350 Ry

   izeta = 1
                 lambda =    1.000000
                     rc =    5.658549
                 energy =   -0.381140
                kinetic =    2.399701
    potential(screened) =   -2.780841
       potential(ionic) =   -6.206085

   izeta = 2
                 rmatch =    3.653288
              splitnorm =    0.150000
                 energy =   -0.249149
                kinetic =    3.542762
    potential(screened) =   -3.791911
       potential(ionic) =   -7.581078

POLgen: Perturbative polarization orbital with L=  2

POLgen: Polarization orbital for state 2p

   izeta = 1
                     rc =    5.658549
                 energy =    1.109913
                kinetic =    2.304789
    potential(screened) =   -1.194876
       potential(ionic) =   -4.013592
atom: Total number of Sankey-type orbitals: 13

atm_pop: Valence configuration (for local Pseudopot. screening):
 2s( 2.00)                                                            
 2p( 2.00)                                                            
Vna: chval, zval:    4.00000   4.00000

Vna:  Cut-off radius for the neutral-atom potential:   5.658549
comcore: Pseudo-core radius Rcore=  1.791422

atom: _________________________________________________________________________

prinput: Basis input ----------------------------------------------------------

PAO.BasisType split     

%block ChemicalSpeciesLabel
    1    7 N                       # Species index, atomic number, species label
    2    6 C                       # Species index, atomic number, species label
%endblock ChemicalSpeciesLabel

%block PAO.Basis                 # Define Basis set
N                     2                    # Species label, number of l-shells
 n=2   0   2                         # n, l, Nzeta 
   4.071      2.905   
   1.000      1.000   
 n=2   1   2 P   1                   # n, l, Nzeta, Polarization, NzetaPol
   4.973      3.054   
   1.000      1.000   
C                     2                    # Species label, number of l-shells
 n=2   0   2                         # n, l, Nzeta 
   4.633      3.432   
   1.000      1.000   
 n=2   1   2 P   1                   # n, l, Nzeta, Polarization, NzetaPol
   5.659      3.653   
   1.000      1.000   
%endblock PAO.Basis

prinput: ----------------------------------------------------------------------

coor:   Atomic-coordinates input format  =     Fractional

siesta: Atomic coordinates (Bohr) and species
siesta:     -2.35420  38.89134   0.00000  1        1
siesta:      2.30256  38.89134   0.00000  1        2
siesta:      4.63094  34.85847   0.00000  1        3
siesta:      4.63094  37.54693   0.00000  1        4
siesta:     -4.68258  34.85847   0.00000  1        5
siesta:     -4.68258  37.54693   0.00000  1        6
siesta:     -7.01096  17.38257   0.00000  1        7
siesta:     -4.68258  18.72698   0.00000  1        8
siesta:     -4.68258  21.41544   0.00000  1        9
siesta:     -2.35420  22.75985   0.00000  1       10
siesta:     -2.35420  25.44831   0.00000  1       11
siesta:     -9.33934  18.72698   0.00000  1       12
siesta:     -9.33934  21.41544   0.00000  1       13
siesta:     -7.01096  25.44831   0.00000  1       14
siesta:    -11.66772  22.75985   0.00000  1       15
siesta:    -11.66772  25.44831   0.00000  1       16
siesta:     -9.33934  26.79272   0.00000  1       17
siesta:     -0.02582  29.48119   0.00000  1       18
siesta:     -4.68258  26.79272   0.00000  1       19
siesta:      2.30256  30.82560   0.00000  1       20
siesta:      2.30256  33.51406   0.00000  1       21
siesta:     -2.35420  30.82560   0.00000  1       22
siesta:     -2.35420  33.51406   0.00000  1       23
siesta:     -0.02582  37.54693   0.00000  1       24
siesta:     -0.02582  45.61267   0.00000  1       25
siesta:     -0.02582   2.59549   0.00000  2       26
siesta:     -0.02582   5.28395   0.00000  2       27
siesta:     -2.35420  41.57980   0.00000  2       28
siesta:      2.30256  41.57980   0.00000  2       29
siesta:      6.95932  30.82560   0.00000  2       30
siesta:      6.95932  33.51406   0.00000  2       31
siesta:      9.28770  26.79272   0.00000  2       32
siesta:      9.28770  29.48119   0.00000  2       33
siesta:      2.30256   6.62836   0.00000  2       34
siesta:      2.30256   9.31683   0.00000  2       35
siesta:      4.63094  10.66124   0.00000  2       36
siesta:      4.63094  13.34970   0.00000  2       37
siesta:      6.95932  14.69411   0.00000  2       38
siesta:      6.95932  17.38257   0.00000  2       39
siesta:      9.28770  18.72698   0.00000  2       40
siesta:      9.28770  21.41544   0.00000  2       41
siesta:     11.61608  22.75985   0.00000  2       42
siesta:     11.61608  25.44831   0.00000  2       43
siesta:     -2.35420   6.62836   0.00000  2       44
siesta:     -2.35420   9.31683   0.00000  2       45
siesta:     -0.02582  10.66124   0.00000  2       46
siesta:     -0.02582  13.34970   0.00000  2       47
siesta:      2.30256  14.69411   0.00000  2       48
siesta:      2.30256  17.38257   0.00000  2       49
siesta:      4.63094  18.72698   0.00000  2       50
siesta:      4.63094  21.41544   0.00000  2       51
siesta:      6.95932  22.75985   0.00000  2       52
siesta:      6.95932  25.44831   0.00000  2       53
siesta:     -4.68258  10.66124   0.00000  2       54
siesta:     -4.68258  13.34970   0.00000  2       55
siesta:     -2.35420  14.69411   0.00000  2       56
siesta:     -2.35420  17.38257   0.00000  2       57
siesta:     -0.02582  18.72698   0.00000  2       58
siesta:     -0.02582  21.41544   0.00000  2       59
siesta:      2.30256  22.75985   0.00000  2       60
siesta:      2.30256  25.44831   0.00000  2       61
siesta:     -7.01096  14.69411   0.00000  2       62
siesta:     -7.01096  22.75985   0.00000  2       63
siesta:     -9.33934  29.48119   0.00000  2       64
siesta:      4.63094  26.79272   0.00000  2       65
siesta:      4.63094  29.48119   0.00000  2       66
siesta:     -0.02582  26.79272   0.00000  2       67
siesta:     -4.68258  29.48119   0.00000  2       68
siesta:     -7.01096  30.82560   0.00000  2       69
siesta:     -7.01096  33.51406   0.00000  2       70
siesta:     -0.02582  34.85847   0.00000  2       71
siesta:     -0.02582  42.92421   0.00000  2       72

siesta: System type = slab      

initatomlists: Number of atoms, orbitals, and projectors:     72   936  1152

siesta: ******************** Simulation parameters ****************************
siesta:
siesta: The following are some of the parameters of the simulation.
siesta: A complete list of the parameters used, including default values,
siesta: can be found in file out.fdf
siesta:
redata: Non-Collinear-spin run           =     F
redata: SpinPolarized (Up/Down) run      =     F
redata: Number of spin components        =     1
redata: Long output                      =     F
redata: Number of Atomic Species         =        2
redata: Charge density info will appear in .RHO file
redata: Write Mulliken Pop.              =     NO
redata: Mesh Cutoff                      =   200.0000  Ry
redata: Net charge of the system         =     0.0000 |e|
redata: Max. number of SCF Iter          =      500
redata: SCF convergence failure will abort job
redata: Performing Pulay mixing using    =    10 iterations
redata: Mix DM in first SCF step ?       =     F
redata: Write Pulay info on disk?        =     F
redata: Discard 1st Pulay DM after  kick =     F
redata: New DM Mixing Weight             =     0.0500
redata: New DM Occupancy tolerance       = 0.000000000001
redata: No kicks to SCF
redata: DM Mixing Weight for Kicks       =     0.5000
redata: DM Tolerance for SCF             =     0.000100
redata: Require Energy convergence for SCF =     F
redata: DM Energy tolerance for SCF      =     0.000100 eV
redata: Require Harris convergence for SCF =     F
redata: DM Harris energy tolerance for SCF =     0.000100 eV
redata: Using Saved Data (generic)   =     F
redata: Use continuation files for DM    =     T
redata: Neglect nonoverlap interactions  =     F
redata: Method of Calculation            =     Diagonalization
redata: Divide and Conquer               =     T
redata: Electronic Temperature           =     0.0019  Ry
redata: Fix the spin of the system       =     F
redata: Dynamics option                  =     Verlet MD run
redata: Initial MD time step             =        1
redata:   Final MD time step             =        1
redata: Length of MD time step           =     1.0000  fs
redata: Initial Temperature of MD run    =     0.0000  K
redata: Perform a MD quench              =     F
redata: ***********************************************************************
Total number of electrons:   313.000000
Total ionic charge:   313.000000

* ProcessorY, Blocksize:    2  24

k-point displ. along   1 input, could be:     0.50    0.00
k-point displ. along   2 input, could be:     0.50    0.00
 Kpoints in:          231 . Kpoints trimmed:          231

siesta: k-grid: Number of k-points =   231
siesta: k-grid: Cutoff (effective) =     5.000 Ang
siesta: k-grid: Supercell and displacements
siesta: k-grid:   21   0   0      0.500
siesta: k-grid:    0  21   0      0.500
siesta: k-grid:    0   0   1      0.000
Naive supercell factors:     2    2    2

superc: Internal auxiliary supercell:     2 x     2 x     2  =       8
superc: Number of atoms, orbitals, and projectors:    576   7488   9216

* Maximum dynamic memory allocated =     4 MB

siesta:                 ==============================
                            Begin MD step =      1
                        ==============================

superc: Internal auxiliary supercell:     2 x     2 x     2  =       8
superc: Number of atoms, orbitals, and projectors:    576   7488   9216

outcell: Unit cell vectors (Ang):
       12.804619    7.392750    0.000000
        0.000000   14.785500    0.000000
        0.000000    0.000000   10.000000

outcell: Cell vector modules (Ang)   :   14.785500   14.785500   10.000000
outcell: Cell angles (23,13,12) (deg):     90.0000     90.0000     60.0000
outcell: Cell volume (Ang**3)        :   1893.2269
New_DM. Step:     1
Initializing Density Matrix...

InitMesh: MESH =   120 x   120 x    90 =     1296000
InitMesh: Mesh cutoff (required, used) =   200.000   223.865 Ry

* Maximum dynamic memory allocated =   178 MB

stepf: Fermi-Dirac step function

siesta: Program's energy decomposition (eV):
siesta: Ebs     =     -6419.710458
siesta: Eions   =     22421.682175
siesta: Ena     =      4997.932454
siesta: Ekin    =      8476.244847
siesta: Enl     =       -93.424858
siesta: DEna    =        -0.000015
siesta: DUscf   =         0.000000
siesta: DUext   =         0.000000
siesta: Exc     =     -4804.605364
siesta: eta*DQ  =         0.000000
siesta: Emadel  =         0.000000
siesta: Emeta   =         0.000000
siesta: Emolmec =         0.000000
siesta: Ekinion =         0.000000
siesta: Eharris =    -13461.489659
siesta: Etot    =    -13845.535111
siesta: FreeEng =    -13845.535111

siesta: iscf   Eharris(eV)      E_KS(eV)   FreeEng(eV)   dDmax  Ef(eV)
siesta:    1   -13461.4897   -13845.5351   -13845.5351  5.5150 -6.6225
timer: Routine,Calls,Time,% = IterSCF        1    4080.706  99.72
elaps: Routine,Calls,Wall,% = IterSCF        1     510.669  99.72
siesta:    2   -17775.7654   -12842.3438   -12842.3565 34.8033 -2.7909
siesta:    3   -13350.1402   -13690.9670   -13691.0173  2.6980 -4.9404
siesta:    4   -13329.2693   -13490.6034   -13490.6450  1.2755 -3.9722
siesta:    5   -13297.1827   -13407.8727   -13407.9146  1.0130 -3.4720
siesta:    6   -13291.9942   -13379.1040   -13379.1597  0.9314 -3.6628
siesta:    7   -13290.7655   -13372.7753   -13372.8495  0.8997 -3.6584
siesta:    8   -13288.9423   -13359.7531   -13359.8027  0.8151 -3.7502
siesta:    9   -13287.8001   -13350.3136   -13350.3709  0.7332 -3.7535
siesta:   10   -13287.9762   -13306.6238   -13306.6811  0.4689 -3.7258
siesta:   11   -13287.6063   -13297.4553   -13297.5140  0.3809 -3.7944
siesta:   12   -13287.6880   -13281.1812   -13281.2297  0.2165 -3.6485
siesta:   13   -13287.2570   -13273.9934   -13274.0527  0.1709 -3.6506
siesta:   14   -13286.8285   -13273.8181   -13273.8627  0.1275 -3.6614
siesta:   15   -13286.5332   -13273.6917   -13273.7341  0.0943 -3.6871
siesta:   16   -13286.4082   -13273.8895   -13273.9372  0.0822 -3.6957
siesta:   17   -13286.3453   -13273.8678   -13273.9169  0.0756 -3.6951
siesta:   18   -13286.3321   -13275.6773   -13275.7281  0.0595 -3.7043
siesta:   19   -13286.3199   -13279.0727   -13279.1236  0.0298 -3.7109
siesta:   20   -13286.3176   -13283.1507   -13283.2005  0.0186 -3.7233
siesta:   21   -13286.3150   -13284.1969   -13284.2471  0.0127 -3.7223
siesta:   22   -13286.3110   -13284.7019   -13284.7530  0.0103 -3.7221
siesta:   23   -13286.3092   -13284.8553   -13284.9068  0.0080 -3.7183
siesta:   24   -13286.3100   -13285.1395   -13285.1918  0.0059 -3.7181
siesta:   25   -13286.3096   -13285.8367   -13285.8882  0.0035 -3.7140
siesta:   26   -13286.3095   -13286.0623   -13286.1139  0.0034 -3.7143
siesta:   27   -13286.3094   -13286.1752   -13286.2268  0.0024 -3.7139
siesta:   28   -13286.3093   -13286.2287   -13286.2804  0.0015 -3.7142
siesta:   29   -13286.3093   -13286.2576   -13286.3093  0.0010 -3.7143
siesta:   30   -13286.3093   -13286.2616   -13286.3133  0.0008 -3.7143
siesta:   31   -13286.3093   -13286.2560   -13286.3078  0.0005 -3.7144
siesta:   32   -13286.3093   -13286.2586   -13286.3103  0.0004 -3.7145
siesta:   33   -13286.3093   -13286.2701   -13286.3218  0.0002 -3.7145
siesta:   34   -13286.3093   -13286.2810   -13286.3327  0.0002 -3.7146
siesta:   35   -13286.3093   -13286.2929   -13286.3446  0.0001 -3.7146
siesta:   36   -13286.3093   -13286.3049   -13286.3567  0.0001 -3.7146

siesta: E_KS(eV) =           -13286.3095

siesta: E_KS - E_eggbox =    -13286.3095

siesta: Atomic forces (eV/Ang):
----------------------------------------
   Tot   -0.248820   -0.467082    0.000000
----------------------------------------
   Max  692.506789
   Res  186.514590    sqrt( Sum f_i^2 / 3N )
----------------------------------------
   Max  692.506789    constrained

Stress-tensor-Voigt (kbar):     -644.85    -3358.25       -0.02       -2.48        0.00        0.00
(Free)E + p*V (eV/cell)   -11709.6039
Target enthalpy (eV/cell)   -13286.3612

siesta: Stress tensor (static) (eV/Ang**3):
        -0.402482   -0.001545    0.000000
        -0.001545   -2.096029    0.000000
         0.000000    0.000000   -0.000012

siesta: Pressure (static):       1334.37307897  kBar

siesta: Stress tensor (total) (eV/Ang**3):
        -0.402482   -0.001545    0.000000
        -0.001545   -2.096029    0.000000
         0.000000    0.000000   -0.000012

siesta: Pressure (total):       1334.37307897  kBar

siesta: Temp_ion =       0.000 K

* Maximum dynamic memory allocated =   195 MB
Computing bands...

siesta: Program's energy decomposition (eV):
siesta: Ebs     =     -5147.642555
siesta: Eions   =     22421.682175
siesta: Ena     =      4997.932454
siesta: Ekin    =     11675.337790
siesta: Enl     =     -1838.478047
siesta: DEna    =      -829.516590
siesta: DUscf   =       116.660083
siesta: DUext   =         0.000000
siesta: Exc     =     -4986.562973
siesta: eta*DQ  =         0.000000
siesta: Emadel  =         0.000000
siesta: Emeta   =         0.000000
siesta: Emolmec =         0.000000
siesta: Ekinion =         0.000000
siesta: Eharris =    -13286.309317
siesta: Etot    =    -13286.309458
siesta: FreeEng =    -13286.361171

siesta: Final energy (eV):
siesta:  Band Struct. =   -5147.642555
siesta:       Kinetic =   11675.337790
siesta:       Hartree =   37491.387952
siesta:    Ext. field =       0.000000
siesta:   Exch.-corr. =   -4986.562973
siesta:  Ion-electron =  -86127.627788
siesta:       Ion-ion =   28661.155561
siesta:       Ekinion =       0.000000
siesta:         Total =  -13286.309458

siesta: Atomic forces (eV/Ang):
siesta:      1    3.021319  129.086250    0.000000
siesta:      2   -2.721762  130.166910    0.000000
siesta:      3   33.843938    3.569680    0.000000
siesta:      4   24.869295 -656.906112    0.000000
siesta:      5  -33.068089    4.730038    0.000000
siesta:      6  -25.734995 -657.326417    0.000000
siesta:      7   -0.767418   -1.352803    0.000000
siesta:      8    1.242572    3.482706    0.000000
siesta:      9   -1.787179    2.609638    0.000000
siesta:     10   -2.000620   -1.593486    0.000000
siesta:     11   -2.178686    0.676542    0.000000
siesta:     12   -0.676183    0.273212    0.000000
siesta:     13    1.892015    0.468322    0.000000
siesta:     14    1.443815   -2.789318    0.000000
siesta:     15    1.152659    1.704308    0.000000
siesta:     16    1.399314   -3.103685    0.000000
siesta:     17   -0.389037    4.076730    0.000000
siesta:     18    1.062353 -692.506789    0.000000
siesta:     19    0.474950    0.177144    0.000000
siesta:     20   29.806940    8.328742    0.000000
siesta:     21   -3.380801 -674.929166    0.000000
siesta:     22  -30.514852    7.840137    0.000000
siesta:     23    4.002245 -674.595143    0.000000
siesta:     24   -0.733750 -671.218882    0.000000
siesta:     25   -0.291442 -647.725742    0.000000
siesta:     26   -1.042823  641.526271    0.000000
siesta:     27    0.055123 -121.272935    0.000000
siesta:     28  -15.940273 -545.393242    0.000000
siesta:     29    8.268049 -543.655367    0.000000
siesta:     30    0.588603    1.078892    0.000000
siesta:     31   -2.250560    1.662643    0.000000
siesta:     32    1.728902    2.866612    0.000000
siesta:     33   -0.911834   -0.392815    0.000000
siesta:     34   28.710373  654.731529    0.000000
siesta:     35    0.229367 -120.084150    0.000000
siesta:     36   23.936118  656.321899    0.000000
siesta:     37   27.650227   -1.612826    0.000000
siesta:     38   -2.585539   -1.907354    0.000000
siesta:     39    1.625930   -0.218774    0.000000
siesta:     40   -1.611365    0.237577    0.000000
siesta:     41    2.089225   -2.648633    0.000000
siesta:     42   -0.104292    8.181855    0.000000
siesta:     43   -0.054439   -8.083894    0.000000
siesta:     44  -29.289096  654.457675    0.000000
siesta:     45   -0.383887 -118.756855    0.000000
siesta:     46    0.570748  662.824472    0.000000
siesta:     47    0.472093 -120.589297    0.000000
siesta:     48   22.030875  561.460203    0.000000
siesta:     49   24.143779   -8.419488    0.000000
siesta:     50   -0.838720    3.668625    0.000000
siesta:     51    0.204787   -0.597487    0.000000
siesta:     52   -0.228948    0.848903    0.000000
siesta:     53   -0.083192   -0.879172    0.000000
siesta:     54  -23.966269  656.147773    0.000000
siesta:     55  -25.988623   -3.477424    0.000000
siesta:     56  -15.142330  565.253445    0.000000
siesta:     57  -22.983295   -9.027987    0.000000
siesta:     58   -1.511840  677.704639    0.000000
siesta:     59    0.086848   -0.071604    0.000000
siesta:     60   -0.045336    0.383775    0.000000
siesta:     61   -1.008366   -0.722771    0.000000
siesta:     62    1.096433    2.531701    0.000000
siesta:     63    0.791713   -0.049107    0.000000
siesta:     64   -1.693760   -2.926932    0.000000
siesta:     65   -0.044660    1.144728    0.000000
siesta:     66   -0.564771   -2.902165    0.000000
siesta:     67    0.767874    2.994009    0.000000
siesta:     68    1.142212   -2.883552    0.000000
siesta:     69    0.364183    0.514498    0.000000
siesta:     70    1.744377    0.690040    0.000000
siesta:     71    0.199675  125.766140    0.000000
siesta:     72   -0.438720  119.966032    0.000000
siesta: ----------------------------------------
siesta:    Tot   -0.248820   -0.467082    0.000000

siesta: Stress tensor (static) (eV/Ang**3):
siesta:    -0.402482   -0.001545    0.000000
siesta:    -0.001545   -2.096029    0.000000
siesta:     0.000000    0.000000   -0.000012

siesta: Cell volume =       1893.226884 Ang**3

siesta: Pressure (static):
siesta:                Solid            Molecule  Units
siesta:           0.00907070          0.14832606  Ry/Bohr**3
siesta:           0.83284117         13.61879476  eV/Ang**3
siesta:        1334.37307897      21819.95059416  kBar
(Free)E+ p_basis*V_orbitals  =      -13259.197644
(Free)Eharris+ p_basis*V_orbitals  =      -13259.202015

siesta: Electric dipole (a.u.)  =    0.000000    0.000000    0.000000
siesta: Electric dipole (Debye) =    0.000000    0.000000    0.000000

* Maximum dynamic memory allocated : Node    0 =   195 MB
* Maximum dynamic memory allocated : Node    1 =    70 MB
* Maximum dynamic memory allocated : Node    2 =    72 MB
* Maximum dynamic memory allocated : Node    3 =   185 MB
* Maximum dynamic memory allocated : Node    4 =   185 MB
* Maximum dynamic memory allocated : Node    5 =    70 MB
* Maximum dynamic memory allocated : Node    6 =    71 MB
* Maximum dynamic memory allocated : Node    7 =   171 MB

* Maximum memory occured during matrixMtoO                    

timer: CPU execution times:
timer:  Routine       Calls   Time/call    Tot.time        %
timer:  siesta            1  146798.716  146798.716   100.00
timer:  Setup             1       3.054       3.054     0.00
timer:  bands             3     268.794     806.381     0.55
timer:  writewave         1       0.021       0.021     0.00
timer:  KSV_init          1       0.000       0.000     0.00
timer:  IterMD            1  145983.325  145983.325    99.44
timer:  hsparse           1       0.233       0.233     0.00
timer:  overlap           1       7.706       7.706     0.01
timer:  IterSCF          36    4050.591  145821.293    99.33
timer:  kinefsm           2       3.953       7.905     0.01
timer:  nlefsm            2      18.360      36.719     0.03
timer:  DHSCF            37      81.561    3017.768     2.06
timer:  DHSCF1            1       0.758       0.758     0.00
timer:  DHSCF2            1      32.228      32.228     0.02
timer:  REORD           298       0.010       2.984     0.00
timer:  POISON           38       2.259      85.856     0.06
timer:  DHSCF3           37      79.839    2954.039     2.01
timer:  rhoofd           37      16.135     596.982     0.41
timer:  cellXC           37       3.464     128.179     0.09
timer:  vmat             37      38.123    1410.563     0.96
timer:  MolMec            2       0.000       0.000     0.00
timer:  diagon           36    3967.835  142842.043    97.30
timer:  c-eigval       8437       6.669   56266.568    38.33
timer:  c-buildHS      8437       0.112     944.930     0.64
timer:  cdiag         16753       6.868  115064.826    78.38
timer:  cdiag1        16753       0.428    7167.220     4.88
timer:  cdiag2        16753       1.905   31915.614    21.74
timer:  cdiag3        16753       3.948   66146.275    45.06
timer:  cdiag4        16753       0.204    3425.623     2.33
timer:  c-eigvec       8316       7.243   60231.356    41.03
timer:  c-buildD       8316       3.259   27104.453    18.46
timer:  DHSCF4            1      28.775      28.775     0.02
timer:  dfscf             1      27.012      27.012     0.02
timer:  overfsm           1       0.395       0.395     0.00
timer:  optical           1       5.199       5.199     0.00
  

elaps: ELAPSED times:
elaps:  Routine       Calls   Time/call    Tot.time        %
elaps:  siesta            1   18369.483   18369.483   100.00
elaps:  Setup             1       0.381       0.381     0.00
elaps:  bands             3      33.652     100.955     0.55
elaps:  writewave         1       0.002       0.002     0.00
elaps:  KSV_init          1       0.000       0.000     0.00
elaps:  IterMD            1   18267.463   18267.463    99.44
elaps:  hsparse           1       0.031       0.031     0.00
elaps:  overlap           1       0.967       0.967     0.01
elaps:  IterSCF          36     506.866   18247.194    99.33
elaps:  kinefsm           2       0.498       0.996     0.01
elaps:  nlefsm            2       2.393       4.786     0.03
elaps:  DHSCF            37      10.306     381.333     2.08
elaps:  DHSCF1            1       0.099       0.099     0.00
elaps:  DHSCF2            1       4.028       4.028     0.02
elaps:  REORD           298       0.001       0.378     0.00
elaps:  POISON           38       0.283      10.770     0.06
elaps:  DHSCF3           37       9.989     369.582     2.01
elaps:  rhoofd           37       4.411     163.225     0.89
elaps:  cellXC           37       0.432      16.001     0.09
elaps:  vmat             37       4.769     176.466     0.96
elaps:  MolMec            2       0.000       0.000     0.00
elaps:  diagon           36     496.518   17874.632    97.31
elaps:  c-eigval       8437       0.834    7039.972    38.32
elaps:  c-buildHS      8437       0.015     129.235     0.70
elaps:  cdiag         16753       0.856   14340.989    78.07
elaps:  cdiag1        16753       0.053     885.085     4.82
elaps:  cdiag2        16753       0.238    3993.500    21.74
elaps:  cdiag3        16753       0.495    8287.472    45.12
elaps:  cdiag4        16753       0.026     431.912     2.35
elaps:  c-eigvec       8316       0.904    7518.209    40.93
elaps:  c-buildD       8316       0.410    3410.629    18.57
elaps:  DHSCF4            1       7.358       7.358     0.04
elaps:  dfscf             1       6.984       6.984     0.04
elaps:  overfsm           1       0.050       0.050     0.00
elaps:  optical           1       0.000       0.000     0.00
  
>> End of run:  22-APR-2016  19:03:19
