Siesta Version:                                        siesta-3.2-pl-3
Architecture  : x86_64-unknown-linux-gnu--unknown
Compiler flags: mpiifort -g -O2 -fPIC -xSSE4.1 -fp-model source -shared-intel 
PARALLEL version

* Running on    8 nodes in parallel
>> Start of run:  24-APR-2016  15:18:21

                           ***********************       
                           *  WELCOME TO SIESTA  *       
                           ***********************       

reinit: Reading from standard input
************************** Dump of input data file ****************************
#(1) General system descriptors
SystemName            GRP_doping    # Descriptive name of the system
SystemLabel           GRP_doping    # Short name for naming files
%include STRUCT.fdf
%include KPT.fdf
%include BASIS.fdf
#%include TS.fdf # for transiesta calculation
#(4) DFT, Grid, SCF
XC.functional         GGA           # LDA or GGA (default = LDA)
XC.authors            PBE           # CA (Ceperley-Aldr) = PZ
                                    #    (Perdew-Zunger) - LDA - Default
                                    # PW92 (Perdew-Wang-92) - LDA
                                    # PBE (Perdew-Burke-Ernzerhof) - GGA
MeshCutoff            200.000000    Ry      # Default: 50.0 Ry ~ 0.444 Bohr
                                    #         100.0 Ry ~ 0.314 Bohr
MaxSCFIterations      500           # Default: 50
DM.MixingWeight       0.05          # Default: 0.25
DM.NumberPulay        10            # Default: 0
DM.PulayOnFile        F             # SystemLabel.P1, SystemLabel.P2
DM.Tolerance          1.d-4         # Default: 1.d-4
DM.UseSaveDM          .true.        # because of the bug
SCFMustConverge       .true.
NeglNonOverlapInt     F             # Default: F
#(5) Eigenvalue problem: order-N or diagonalization
SolutionMethod        Diagon        # or Transiesta
ElectronicTemperature 300.0 K       # Default: 300.0 K
#(6) Molecular dynamics and relaxations
#MD.TypeOfRun          CG            # Type of dynamics:
#MD.VariableCell       F
#MD.NumCGsteps         0           # 0 for single-point / 100 for gopt
#MD.MaxCGDispl         0.2 Bohr      # Default: 0.2 Bohr
#MD.MaxForceTol        0.02 eV/Ang   # Default: 0.04 eV/Ang
#MD.MaxStressTol       1.0 GPa       # Default: 1.0 GPa
# Geometry Constraints
#%block GeometryConstraints
#	position from 1 to 44
#%endblock GeometryConstraints
BandLinesScale   pi/a
%block BandLines
 1   0.00000000  0.00000000  0.00000000
50   0.00000000  0.07809418  0.00000000
50   0.04509075  0.07809242  0.00000000
20   0.00000000  0.00000000  0.00000000
%endblock BandLines
************************** End of input data file *****************************

reinit: -----------------------------------------------------------------------
reinit: System Name: GRP_doping
reinit: -----------------------------------------------------------------------
reinit: System Label: GRP_doping                                                  
reinit: -----------------------------------------------------------------------

initatom: Reading input for the pseudopotentials and atomic orbitals ----------
 Species number:            1  Label: B Atomic number:           5
 Species number:            2  Label: C Atomic number:           6
Ground state valence configuration:   2s02  2p01
Reading pseudopotential information in formatted form from B.psf

Valence configuration for pseudopotential generation:
2s( 2.00) rc: 1.74
2p( 1.00) rc: 1.74
3d( 0.00) rc: 1.74
4f( 0.00) rc: 1.74
Ground state valence configuration:   2s02  2p02
Reading pseudopotential information in formatted form from C.psf

Valence configuration for pseudopotential generation:
2s( 2.00) rc: 1.54
2p( 2.00) rc: 1.54
3d( 0.00) rc: 1.54
4f( 0.00) rc: 1.54
For B, standard SIESTA heuristics set lmxkb to 3
 (one more than the basis l, including polarization orbitals).
Use PS.lmax or PS.KBprojectors blocks to override.
For C, standard SIESTA heuristics set lmxkb to 3
 (one more than the basis l, including polarization orbitals).
Use PS.lmax or PS.KBprojectors blocks to override.

<basis_specs>
===============================================================================
B                    Z=   5    Mass=  10.810        Charge= 0.17977+309
Lmxo=1 Lmxkb= 3    BasisType=split      Semic=F
L=0  Nsemic=0  Cnfigmx=2
          n=1  nzeta=2  polorb=0
            splnorm:   0.15000    
               vcte:    0.0000    
               rinn:    0.0000    
                rcs:    0.0000      0.0000    
            lambdas:    1.0000      1.0000    
L=1  Nsemic=0  Cnfigmx=2
          n=1  nzeta=2  polorb=1
            splnorm:   0.15000    
               vcte:    0.0000    
               rinn:    0.0000    
                rcs:    0.0000      0.0000    
            lambdas:    1.0000      1.0000    
-------------------------------------------------------------------------------
L=0  Nkbl=1  erefs: 0.17977+309
L=1  Nkbl=1  erefs: 0.17977+309
L=2  Nkbl=1  erefs: 0.17977+309
L=3  Nkbl=1  erefs: 0.17977+309
===============================================================================
</basis_specs>

atom: Called for B                     (Z =   5)

read_vps: Pseudopotential generation method:
read_vps: ATM3      Troullier-Martins                       
Total valence charge:    3.00000

read_vps: Pseudopotential includes a core correction:
read_vps: Pseudo-core for xc-correction

xc_check: Exchange-correlation functional:
xc_check: GGA Perdew, Burke & Ernzerhof 1996
V l=0 = -2*Zval/r beyond r=  1.7165
V l=1 = -2*Zval/r beyond r=  1.7165
V l=2 = -2*Zval/r beyond r=  1.7165
V l=3 = -2*Zval/r beyond r=  1.6951
All V_l potentials equal beyond r=  1.7165
This should be close to max(r_c) in ps generation
All pots = -2*Zval/r beyond r=  1.7165

VLOCAL1: 99.0% of the norm of Vloc inside     14.733 Ry
VLOCAL1: 99.9% of the norm of Vloc inside     33.577 Ry
atom: Maximum radius for 4*pi*r*r*local-pseudopot. charge    2.04484
atom: Maximum radius for r*vlocal+2*Zval:    1.75994
GHOST: No ghost state for L =  0
GHOST: No ghost state for L =  1
GHOST: No ghost state for L =  2
GHOST: No ghost state for L =  3

KBgen: Kleinman-Bylander projectors: 
   l= 0   rc=  1.897051   el= -0.693730   Ekb=  4.595746   kbcos=  0.286105
   l= 1   rc=  1.920920   el= -0.265236   Ekb= -2.350715   kbcos= -0.315747
   l= 2   rc=  2.044840   el=  0.002055   Ekb= -0.690767   kbcos= -0.013822
   l= 3   rc=  2.149707   el=  0.003188   Ekb= -0.315358   kbcos= -0.002055

KBgen: Total number of  Kleinman-Bylander projectors:   16
atom: -------------------------------------------------------------------------

atom: SANKEY-TYPE ORBITALS:
atom: Selected multiple-zeta basis: split     

SPLIT: Orbitals with angular momentum L= 0

SPLIT: Basis orbitals for state 2s

SPLIT: PAO cut-off radius determined from an
SPLIT: energy shift=  0.007350 Ry

   izeta = 1
                 lambda =    1.000000
                     rc =    5.422032
                 energy =   -0.686029
                kinetic =    0.576707
    potential(screened) =   -1.262736
       potential(ionic) =   -3.271094

   izeta = 2
                 rmatch =    4.222573
              splitnorm =    0.150000
                 energy =   -0.602132
                kinetic =    0.858975
    potential(screened) =   -1.461107
       potential(ionic) =   -3.582536

SPLIT: Orbitals with angular momentum L= 1

SPLIT: Basis orbitals for state 2p

SPLIT: PAO cut-off radius determined from an
SPLIT: energy shift=  0.007350 Ry

   izeta = 1
                 lambda =    1.000000
                     rc =    6.790259
                 energy =   -0.258578
                kinetic =    1.481412
    potential(screened) =   -1.739989
       potential(ionic) =   -3.657461

   izeta = 2
                 rmatch =    4.608740
              splitnorm =    0.150000
                 energy =   -0.173757
                kinetic =    2.186690
    potential(screened) =   -2.360447
       potential(ionic) =   -4.464260

POLgen: Perturbative polarization orbital with L=  2

POLgen: Polarization orbital for state 2p

   izeta = 1
                     rc =    6.790259
                 energy =    0.684082
                kinetic =    1.471481
    potential(screened) =   -0.787399
       potential(ionic) =   -2.406985
atom: Total number of Sankey-type orbitals: 13

atm_pop: Valence configuration (for local Pseudopot. screening):
 2s( 2.00)                                                            
 2p( 1.00)                                                            
Vna: chval, zval:    3.00000   3.00000

Vna:  Cut-off radius for the neutral-atom potential:   6.790259
comcore: Pseudo-core radius Rcore=  2.122997

atom: _________________________________________________________________________

<basis_specs>
===============================================================================
C                    Z=   6    Mass=  12.010        Charge= 0.17977+309
Lmxo=1 Lmxkb= 3    BasisType=split      Semic=F
L=0  Nsemic=0  Cnfigmx=2
          n=1  nzeta=2  polorb=0
            splnorm:   0.15000    
               vcte:    0.0000    
               rinn:    0.0000    
                rcs:    0.0000      0.0000    
            lambdas:    1.0000      1.0000    
L=1  Nsemic=0  Cnfigmx=2
          n=1  nzeta=2  polorb=1
            splnorm:   0.15000    
               vcte:    0.0000    
               rinn:    0.0000    
                rcs:    0.0000      0.0000    
            lambdas:    1.0000      1.0000    
-------------------------------------------------------------------------------
L=0  Nkbl=1  erefs: 0.17977+309
L=1  Nkbl=1  erefs: 0.17977+309
L=2  Nkbl=1  erefs: 0.17977+309
L=3  Nkbl=1  erefs: 0.17977+309
===============================================================================
</basis_specs>

atom: Called for C                     (Z =   6)

read_vps: Pseudopotential generation method:
read_vps: ATM3      Troullier-Martins                       
Total valence charge:    4.00000

read_vps: Pseudopotential includes a core correction:
read_vps: Pseudo-core for xc-correction

xc_check: Exchange-correlation functional:
xc_check: GGA Perdew, Burke & Ernzerhof 1996
V l=0 = -2*Zval/r beyond r=  1.5227
V l=1 = -2*Zval/r beyond r=  1.5227
V l=2 = -2*Zval/r beyond r=  1.5227
V l=3 = -2*Zval/r beyond r=  1.5038
All V_l potentials equal beyond r=  1.5227
This should be close to max(r_c) in ps generation
All pots = -2*Zval/r beyond r=  1.5227

VLOCAL1: 99.0% of the norm of Vloc inside     18.722 Ry
VLOCAL1: 99.9% of the norm of Vloc inside     42.668 Ry
atom: Maximum radius for 4*pi*r*r*local-pseudopot. charge    1.83678
atom: Maximum radius for r*vlocal+2*Zval:    1.58088
GHOST: No ghost state for L =  0
GHOST: No ghost state for L =  1
GHOST: No ghost state for L =  2
GHOST: No ghost state for L =  3

KBgen: Kleinman-Bylander projectors: 
   l= 0   rc=  1.704034   el= -1.009801   Ekb=  5.335044   kbcos=  0.316824
   l= 1   rc=  1.704034   el= -0.388707   Ekb= -3.785862   kbcos= -0.366464
   l= 2   rc=  1.791422   el=  0.001971   Ekb= -0.970471   kbcos= -0.009212
   l= 3   rc=  1.859892   el=  0.003065   Ekb= -0.399525   kbcos= -0.001223

KBgen: Total number of  Kleinman-Bylander projectors:   16
atom: -------------------------------------------------------------------------

atom: SANKEY-TYPE ORBITALS:
atom: Selected multiple-zeta basis: split     

SPLIT: Orbitals with angular momentum L= 0

SPLIT: Basis orbitals for state 2s

SPLIT: PAO cut-off radius determined from an
SPLIT: energy shift=  0.007350 Ry

   izeta = 1
                 lambda =    1.000000
                     rc =    4.632753
                 energy =   -1.002270
                kinetic =    0.855760
    potential(screened) =   -1.858031
       potential(ionic) =   -5.417575

   izeta = 2
                 rmatch =    3.431921
              splitnorm =    0.150000
                 energy =   -0.867111
                kinetic =    1.300804
    potential(screened) =   -2.167915
       potential(ionic) =   -5.962684

SPLIT: Orbitals with angular momentum L= 1

SPLIT: Basis orbitals for state 2p

SPLIT: PAO cut-off radius determined from an
SPLIT: energy shift=  0.007350 Ry

   izeta = 1
                 lambda =    1.000000
                     rc =    5.658549
                 energy =   -0.381140
                kinetic =    2.399701
    potential(screened) =   -2.780841
       potential(ionic) =   -6.206085

   izeta = 2
                 rmatch =    3.653288
              splitnorm =    0.150000
                 energy =   -0.249149
                kinetic =    3.542762
    potential(screened) =   -3.791911
       potential(ionic) =   -7.581078

POLgen: Perturbative polarization orbital with L=  2

POLgen: Polarization orbital for state 2p

   izeta = 1
                     rc =    5.658549
                 energy =    1.109913
                kinetic =    2.304789
    potential(screened) =   -1.194876
       potential(ionic) =   -4.013592
atom: Total number of Sankey-type orbitals: 13

atm_pop: Valence configuration (for local Pseudopot. screening):
 2s( 2.00)                                                            
 2p( 2.00)                                                            
Vna: chval, zval:    4.00000   4.00000

Vna:  Cut-off radius for the neutral-atom potential:   5.658549
comcore: Pseudo-core radius Rcore=  1.791422

atom: _________________________________________________________________________

prinput: Basis input ----------------------------------------------------------

PAO.BasisType split     

%block ChemicalSpeciesLabel
    1    5 B                       # Species index, atomic number, species label
    2    6 C                       # Species index, atomic number, species label
%endblock ChemicalSpeciesLabel

%block PAO.Basis                 # Define Basis set
B                     2                    # Species label, number of l-shells
 n=2   0   2                         # n, l, Nzeta 
   5.422      4.223   
   1.000      1.000   
 n=2   1   2 P   1                   # n, l, Nzeta, Polarization, NzetaPol
   6.790      4.609   
   1.000      1.000   
C                     2                    # Species label, number of l-shells
 n=2   0   2                         # n, l, Nzeta 
   4.633      3.432   
   1.000      1.000   
 n=2   1   2 P   1                   # n, l, Nzeta, Polarization, NzetaPol
   5.659      3.653   
   1.000      1.000   
%endblock PAO.Basis

prinput: ----------------------------------------------------------------------

coor:   Atomic-coordinates input format  =     Fractional

siesta: Atomic coordinates (Bohr) and species
siesta:     -4.68258  34.85847   0.00000  1        1
siesta:      4.63094  13.34970   0.00000  1        2
siesta:      6.95932  14.69411   0.00000  1        3
siesta:      6.95932  17.38257   0.00000  1        4
siesta:      2.30256  14.69411   0.00000  1        5
siesta:      2.30256  17.38257   0.00000  1        6
siesta:      4.63094  18.72698   0.00000  1        7
siesta:      4.63094  21.41544   0.00000  1        8
siesta:     -0.02582  18.72698   0.00000  1        9
siesta:     -0.02582  21.41544   0.00000  1       10
siesta:      2.30256  22.75985   0.00000  1       11
siesta:     -4.68258  21.41544   0.00000  1       12
siesta:     -2.35420  22.75985   0.00000  1       13
siesta:     -7.01096  22.75985   0.00000  1       14
siesta:     -7.01096  25.44831   0.00000  1       15
siesta:     -9.33934  26.79272   0.00000  1       16
siesta:     -9.33934  29.48119   0.00000  1       17
siesta:     -4.68258  26.79272   0.00000  1       18
siesta:     -4.68258  29.48119   0.00000  1       19
siesta:     -2.35420  30.82560   0.00000  1       20
siesta:     -2.35420  33.51406   0.00000  1       21
siesta:     -7.01096  30.82560   0.00000  1       22
siesta:     -7.01096  33.51406   0.00000  1       23
siesta:     -0.02582   2.59549   0.00000  2       24
siesta:     -0.02582   5.28395   0.00000  2       25
siesta:     -2.35420  38.89134   0.00000  2       26
siesta:     -2.35420  41.57980   0.00000  2       27
siesta:      2.30256  38.89134   0.00000  2       28
siesta:      2.30256  41.57980   0.00000  2       29
siesta:      4.63094  34.85847   0.00000  2       30
siesta:      4.63094  37.54693   0.00000  2       31
siesta:      6.95932  30.82560   0.00000  2       32
siesta:      6.95932  33.51406   0.00000  2       33
siesta:      9.28770  26.79272   0.00000  2       34
siesta:      9.28770  29.48119   0.00000  2       35
siesta:     -4.68258  37.54693   0.00000  2       36
siesta:      2.30256   6.62836   0.00000  2       37
siesta:      2.30256   9.31683   0.00000  2       38
siesta:      4.63094  10.66124   0.00000  2       39
siesta:      9.28770  18.72698   0.00000  2       40
siesta:      9.28770  21.41544   0.00000  2       41
siesta:     11.61608  22.75985   0.00000  2       42
siesta:     11.61608  25.44831   0.00000  2       43
siesta:     -2.35420   6.62836   0.00000  2       44
siesta:     -2.35420   9.31683   0.00000  2       45
siesta:     -0.02582  10.66124   0.00000  2       46
siesta:     -0.02582  13.34970   0.00000  2       47
siesta:      6.95932  22.75985   0.00000  2       48
siesta:      6.95932  25.44831   0.00000  2       49
siesta:     -4.68258  10.66124   0.00000  2       50
siesta:     -4.68258  13.34970   0.00000  2       51
siesta:     -2.35420  14.69411   0.00000  2       52
siesta:     -2.35420  17.38257   0.00000  2       53
siesta:      2.30256  25.44831   0.00000  2       54
siesta:     -7.01096  14.69411   0.00000  2       55
siesta:     -7.01096  17.38257   0.00000  2       56
siesta:     -4.68258  18.72698   0.00000  2       57
siesta:     -2.35420  25.44831   0.00000  2       58
siesta:     -9.33934  18.72698   0.00000  2       59
siesta:     -9.33934  21.41544   0.00000  2       60
siesta:    -11.66772  22.75985   0.00000  2       61
siesta:    -11.66772  25.44831   0.00000  2       62
siesta:      4.63094  26.79272   0.00000  2       63
siesta:      4.63094  29.48119   0.00000  2       64
siesta:     -0.02582  26.79272   0.00000  2       65
siesta:     -0.02582  29.48119   0.00000  2       66
siesta:      2.30256  30.82560   0.00000  2       67
siesta:      2.30256  33.51406   0.00000  2       68
siesta:     -0.02582  34.85847   0.00000  2       69
siesta:     -0.02582  37.54693   0.00000  2       70
siesta:     -0.02582  42.92421   0.00000  2       71
siesta:     -0.02582  45.61267   0.00000  2       72

siesta: System type = slab      

initatomlists: Number of atoms, orbitals, and projectors:     72   936  1152

siesta: ******************** Simulation parameters ****************************
siesta:
siesta: The following are some of the parameters of the simulation.
siesta: A complete list of the parameters used, including default values,
siesta: can be found in file out.fdf
siesta:
redata: Non-Collinear-spin run           =     F
redata: SpinPolarized (Up/Down) run      =     F
redata: Number of spin components        =     1
redata: Long output                      =     F
redata: Number of Atomic Species         =        2
redata: Charge density info will appear in .RHO file
redata: Write Mulliken Pop.              =     NO
redata: Mesh Cutoff                      =   200.0000  Ry
redata: Net charge of the system         =     0.0000 |e|
redata: Max. number of SCF Iter          =      500
redata: SCF convergence failure will abort job
redata: Performing Pulay mixing using    =    10 iterations
redata: Mix DM in first SCF step ?       =     F
redata: Write Pulay info on disk?        =     F
redata: Discard 1st Pulay DM after  kick =     F
redata: New DM Mixing Weight             =     0.0500
redata: New DM Occupancy tolerance       = 0.000000000001
redata: No kicks to SCF
redata: DM Mixing Weight for Kicks       =     0.5000
redata: DM Tolerance for SCF             =     0.000100
redata: Require Energy convergence for SCF =     F
redata: DM Energy tolerance for SCF      =     0.000100 eV
redata: Require Harris convergence for SCF =     F
redata: DM Harris energy tolerance for SCF =     0.000100 eV
redata: Using Saved Data (generic)   =     F
redata: Use continuation files for DM    =     T
redata: Neglect nonoverlap interactions  =     F
redata: Method of Calculation            =     Diagonalization
redata: Divide and Conquer               =     T
redata: Electronic Temperature           =     0.0019  Ry
redata: Fix the spin of the system       =     F
redata: Dynamics option                  =     Verlet MD run
redata: Initial MD time step             =        1
redata:   Final MD time step             =        1
redata: Length of MD time step           =     1.0000  fs
redata: Initial Temperature of MD run    =     0.0000  K
redata: Perform a MD quench              =     F
redata: ***********************************************************************
Total number of electrons:   265.000000
Total ionic charge:   265.000000

* ProcessorY, Blocksize:    2  24

k-point displ. along   1 input, could be:     0.50    0.00
k-point displ. along   2 input, could be:     0.50    0.00
 Kpoints in:          231 . Kpoints trimmed:          231

siesta: k-grid: Number of k-points =   231
siesta: k-grid: Cutoff (effective) =     5.000 Ang
siesta: k-grid: Supercell and displacements
siesta: k-grid:   21   0   0      0.500
siesta: k-grid:    0  21   0      0.500
siesta: k-grid:    0   0   1      0.000
Naive supercell factors:     2    2    2

superc: Internal auxiliary supercell:     2 x     2 x     2  =       8
superc: Number of atoms, orbitals, and projectors:    576   7488   9216

* Maximum dynamic memory allocated =     4 MB

siesta:                 ==============================
                            Begin MD step =      1
                        ==============================

superc: Internal auxiliary supercell:     2 x     2 x     2  =       8
superc: Number of atoms, orbitals, and projectors:    576   7488   9216

outcell: Unit cell vectors (Ang):
       12.804619    7.392750    0.000000
        0.000000   14.785500    0.000000
        0.000000    0.000000   10.000000

outcell: Cell vector modules (Ang)   :   14.785500   14.785500   10.000000
outcell: Cell angles (23,13,12) (deg):     90.0000     90.0000     60.0000
outcell: Cell volume (Ang**3)        :   1893.2269
New_DM. Step:     1
Initializing Density Matrix...

InitMesh: MESH =   120 x   120 x    90 =     1296000
InitMesh: Mesh cutoff (required, used) =   200.000   223.865 Ry

* Maximum dynamic memory allocated =   230 MB

stepf: Fermi-Dirac step function

siesta: Program's energy decomposition (eV):
siesta: Ebs     =     -5499.404561
siesta: Eions   =     15457.706713
siesta: Ena     =      4169.480172
siesta: Ekin    =      5165.204314
siesta: Enl     =       830.334330
siesta: DEna    =        -0.000007
siesta: DUscf   =         0.000000
siesta: DUext   =         0.000000
siesta: Exc     =     -4211.616874
siesta: eta*DQ  =         0.000000
siesta: Emadel  =         0.000000
siesta: Emeta   =         0.000000
siesta: Emolmec =         0.000000
siesta: Ekinion =         0.000000
siesta: Eharris =     -9232.122414
siesta: Etot    =     -9504.304778
siesta: FreeEng =     -9504.304778

siesta: iscf   Eharris(eV)      E_KS(eV)   FreeEng(eV)   dDmax  Ef(eV)
siesta:    1    -9232.1224    -9504.3048    -9504.3048  6.7513 -8.5517
timer: Routine,Calls,Time,% = IterSCF        1    4442.702  99.72
elaps: Routine,Calls,Wall,% = IterSCF        1     556.088  99.71
siesta:    2   -14383.8460    -8450.4387    -8450.4708 25.1669 -3.2308
siesta:    3    -9163.3947    -9386.5015    -9386.5364  4.2192 -7.2855
siesta:    4    -9143.6090    -9226.1975    -9226.2331  1.4383 -5.7186
siesta:    5    -9104.6973    -9168.9256    -9168.9783  1.0174 -5.7164
siesta:    6    -9083.5856    -9107.9503    -9107.9982  0.8154 -5.3478
siesta:    7    -9078.5507    -9094.4276    -9094.4647  0.7394 -5.2497
siesta:    8    -9075.2809    -9083.4533    -9083.4999  0.6399 -5.2230
siesta:    9    -9077.5945    -9065.1638    -9065.2323  0.5489 -5.2329
siesta:   10    -9074.8479    -9061.5287    -9061.6046  0.4414 -5.2436
siesta:   11    -9074.1939    -9057.4345    -9057.5331  0.3732 -5.2142
siesta:   12    -9074.5229    -9046.1658    -9046.2564  0.2160 -5.1375
siesta:   13    -9073.7925    -9040.4429    -9040.4941  0.1597 -5.1081
siesta:   14    -9072.7788    -9044.3179    -9044.3888  0.1428 -5.0938
siesta:   15    -9072.4439    -9045.7751    -9045.8649  0.1027 -5.0855
siesta:   16    -9072.1094    -9053.1715    -9053.2522  0.1319 -5.1226
siesta:   17    -9071.9464    -9059.6595    -9059.7446  0.1170 -5.1522
siesta:   18    -9071.9072    -9062.9668    -9063.0540  0.0847 -5.1669
siesta:   19    -9071.8732    -9067.9434    -9068.0290  0.0646 -5.1857
siesta:   20    -9071.8721    -9071.2364    -9071.3224  0.0538 -5.1839
siesta:   21    -9071.8526    -9072.2253    -9072.3121  0.0484 -5.1698
siesta:   22    -9071.8444    -9071.0012    -9071.0891  0.0184 -5.1588
siesta:   23    -9071.8421    -9071.4298    -9071.5169  0.0199 -5.1564
siesta:   24    -9071.8389    -9071.6920    -9071.7788  0.0115 -5.1523
siesta:   25    -9071.8391    -9072.0756    -9072.1630  0.0090 -5.1519
siesta:   26    -9071.8379    -9072.6210    -9072.7079  0.0053 -5.1526
siesta:   27    -9071.8376    -9072.4754    -9072.5631  0.0033 -5.1529
siesta:   28    -9071.8376    -9072.3446    -9072.4322  0.0019 -5.1528
siesta:   29    -9071.8377    -9072.2324    -9072.3199  0.0019 -5.1538
siesta:   30    -9071.8377    -9072.1020    -9072.1894  0.0010 -5.1542
siesta:   31    -9071.8376    -9072.0280    -9072.1155  0.0008 -5.1544
siesta:   32    -9071.8376    -9071.9730    -9072.0604  0.0006 -5.1544
siesta:   33    -9071.8375    -9071.9022    -9071.9897  0.0004 -5.1543
siesta:   34    -9071.8375    -9071.8625    -9071.9500  0.0003 -5.1544
siesta:   35    -9071.8375    -9071.8399    -9071.9274  0.0002 -5.1544
siesta:   36    -9071.8376    -9071.8387    -9071.9262  0.0001 -5.1544
siesta:   37    -9071.8376    -9071.8371    -9071.9246  0.0002 -5.1544
siesta:   38    -9071.8375    -9071.8349    -9071.9224  0.0001 -5.1545

siesta: E_KS(eV) =            -9071.8349

siesta: E_KS - E_eggbox =     -9071.8349

siesta: Atomic forces (eV/Ang):
----------------------------------------
   Tot   -0.136478    0.083294    0.000000
----------------------------------------
   Max  557.541429
   Res  148.554898    sqrt( Sum f_i^2 / 3N )
----------------------------------------
   Max  557.541429    constrained

Stress-tensor-Voigt (kbar):     -827.58    -2735.28       -0.74       -1.98        0.00        0.00
(Free)E + p*V (eV/cell)    -7668.2829
Target enthalpy (eV/cell)    -9071.9224

siesta: Stress tensor (static) (eV/Ang**3):
        -0.516528   -0.001236    0.000000
        -0.001236   -1.707210    0.000000
         0.000000    0.000000   -0.000463

siesta: Pressure (static):       1187.86745567  kBar

siesta: Stress tensor (total) (eV/Ang**3):
        -0.516528   -0.001236    0.000000
        -0.001236   -1.707210    0.000000
         0.000000    0.000000   -0.000463

siesta: Pressure (total):       1187.86745567  kBar

siesta: Temp_ion =       0.000 K

* Maximum dynamic memory allocated =   247 MB
Computing bands...

siesta: Program's energy decomposition (eV):
siesta: Ebs     =     -4130.594610
siesta: Eions   =     15457.706713
siesta: Ena     =      4169.480172
siesta: Ekin    =      8066.511755
siesta: Enl     =      -772.404496
siesta: DEna    =      -801.998813
siesta: DUscf   =       108.239296
siesta: DUext   =         0.000000
siesta: Exc     =     -4383.956059
siesta: eta*DQ  =         0.000000
siesta: Emadel  =         0.000000
siesta: Emeta   =         0.000000
siesta: Emolmec =         0.000000
siesta: Ekinion =         0.000000
siesta: Eharris =     -9071.837546
siesta: Etot    =     -9071.834858
siesta: FreeEng =     -9071.922354

siesta: Final energy (eV):
siesta:  Band Struct. =   -4130.594610
siesta:       Kinetic =    8066.511755
siesta:       Hartree =   26590.413998
siesta:    Ext. field =       0.000000
siesta:   Exch.-corr. =   -4383.956059
siesta:  Ion-electron =  -60985.845086
siesta:       Ion-ion =   21641.040533
siesta:       Ekinion =       0.000000
siesta:         Total =   -9071.834858

siesta: Atomic forces (eV/Ang):
siesta:      1  -17.365917    3.401152    0.000000
siesta:      2   16.085735   -3.683745    0.000000
siesta:      3    3.319190   -3.545576    0.000000
siesta:      4    9.169466   -0.262926    0.000000
siesta:      5   19.657688  401.334781    0.000000
siesta:      6   14.676250   -0.825389    0.000000
siesta:      7   -1.753228   -1.607447    0.000000
siesta:      8    3.888824    0.805116    0.000000
siesta:      9    0.547144  407.392795    0.000000
siesta:     10    0.298737   -4.193106    0.000000
siesta:     11   -1.894303    6.270125    0.000000
siesta:     12    1.764838   -6.040901    0.000000
siesta:     13   -0.257132    7.378258    0.000000
siesta:     14   -2.696713   -1.584416    0.000000
siesta:     15   -0.032267    1.749569    0.000000
siesta:     16   -8.112447   -1.626375    0.000000
siesta:     17   -3.535907    2.719110    0.000000
siesta:     18    4.029381   -3.369053    0.000000
siesta:     19    1.135214    2.758807    0.000000
siesta:     20  -14.751077    1.956389    0.000000
siesta:     21  -19.688339 -401.700935    0.000000
siesta:     22   -2.956829    3.595788    0.000000
siesta:     23   -3.753809    2.595956    0.000000
siesta:     24    7.612142  545.941387    0.000000
siesta:     25   -5.039168 -131.979690    0.000000
siesta:     26   -2.052941  125.870329    0.000000
siesta:     27  -20.030656 -551.792453    0.000000
siesta:     28    4.182812  125.210896    0.000000
siesta:     29   16.282123 -405.867683    0.000000
siesta:     30   26.627237    3.808043    0.000000
siesta:     31   35.110420 -554.883980    0.000000
siesta:     32    1.837014    0.236954    0.000000
siesta:     33   -2.567266    2.239448    0.000000
siesta:     34    2.495607    2.517862    0.000000
siesta:     35   -1.118153    0.354992    0.000000
siesta:     36  -28.307796 -549.509742    0.000000
siesta:     37   16.939792  548.185240    0.000000
siesta:     38    1.576443 -125.226640    0.000000
siesta:     39   27.590235  548.938791    0.000000
siesta:     40    0.048114    3.205007    0.000000
siesta:     41    3.304812   -2.606090    0.000000
siesta:     42    0.744551    6.937374    0.000000
siesta:     43   -0.315503   -7.114124    0.000000
siesta:     44  -16.082962  405.935425    0.000000
siesta:     45   -3.560210 -125.040160    0.000000
siesta:     46    6.423894  546.246430    0.000000
siesta:     47    6.825327 -117.808344    0.000000
siesta:     48    1.177084    3.225852    0.000000
siesta:     49    0.400841   -0.929378    0.000000
siesta:     50  -34.930794  554.997723    0.000000
siesta:     51  -25.704434   -4.594850    0.000000
siesta:     52  -23.186976  557.541429    0.000000
siesta:     53  -23.350637   -3.678621    0.000000
siesta:     54    0.389093    3.349191    0.000000
siesta:     55    2.023833   -1.580922    0.000000
siesta:     56   -1.882955   -1.548875    0.000000
siesta:     57    1.251517   -1.983378    0.000000
siesta:     58    4.374090    3.009388    0.000000
siesta:     59    1.244159    0.357691    0.000000
siesta:     60   -5.813320   -3.492787    0.000000
siesta:     61   -0.241932    6.212303    0.000000
siesta:     62   -3.272412   -7.614674    0.000000
siesta:     63   -0.059086    1.107178    0.000000
siesta:     64   -0.984151   -2.380422    0.000000
siesta:     65    0.041616   -1.438500    0.000000
siesta:     66   -5.918858 -557.459308    0.000000
siesta:     67   21.966650    7.451465    0.000000
siesta:     68   28.291839 -555.245518    0.000000
siesta:     69   -8.111580  120.101633    0.000000
siesta:     70   -6.132776 -546.660653    0.000000
siesta:     71    5.525079  127.302696    0.000000
siesta:     72   -3.532735 -403.282615    0.000000
siesta: ----------------------------------------
siesta:    Tot   -0.136478    0.083294    0.000000

siesta: Stress tensor (static) (eV/Ang**3):
siesta:    -0.516528   -0.001236    0.000000
siesta:    -0.001236   -1.707210    0.000000
siesta:     0.000000    0.000000   -0.000463

siesta: Cell volume =       1893.226884 Ang**3

siesta: Pressure (static):
siesta:                Solid            Molecule  Units
siesta:           0.00807480          0.11387151  Ry/Bohr**3
siesta:           0.74140054         10.45529491  eV/Ang**3
siesta:        1187.86745567      16751.41027582  kBar
(Free)E+ p_basis*V_orbitals  =       -9033.917808
(Free)Eharris+ p_basis*V_orbitals  =       -9033.920480

siesta: Electric dipole (a.u.)  =    0.000000    0.000000    0.000000
siesta: Electric dipole (Debye) =    0.000000    0.000000    0.000000

* Maximum dynamic memory allocated : Node    0 =   247 MB
* Maximum dynamic memory allocated : Node    1 =    85 MB
* Maximum dynamic memory allocated : Node    2 =    89 MB
* Maximum dynamic memory allocated : Node    3 =   235 MB
* Maximum dynamic memory allocated : Node    4 =   229 MB
* Maximum dynamic memory allocated : Node    5 =    83 MB
* Maximum dynamic memory allocated : Node    6 =    85 MB
* Maximum dynamic memory allocated : Node    7 =   209 MB

* Maximum memory occured during matrixMtoO                    

timer: CPU execution times:
timer:  Routine       Calls   Time/call    Tot.time        %
timer:  siesta            1  167661.212  167661.212   100.00
timer:  Setup             1       3.897       3.897     0.00
timer:  bands             3     268.907     806.721     0.48
timer:  writewave         1       0.044       0.044     0.00
timer:  KSV_init          1       0.005       0.005     0.00
timer:  IterMD            1  166844.883  166844.883    99.51
timer:  hsparse           1       0.394       0.394     0.00
timer:  overlap           1       7.804       7.804     0.00
timer:  IterSCF          38    4384.418  166607.886    99.37
timer:  kinefsm           2       4.047       8.093     0.00
timer:  nlefsm            2      21.498      42.997     0.03
timer:  DHSCF            39     130.767    5099.912     3.04
timer:  DHSCF1            1       0.994       0.994     0.00
timer:  DHSCF2            1      46.380      46.380     0.03
timer:  REORD           314       0.010       3.146     0.00
timer:  POISON           40       2.240      89.591     0.05
timer:  DHSCF3           39     128.358    5005.946     2.99
timer:  rhoofd           39      26.640    1038.967     0.62
timer:  cellXC           39       3.475     135.533     0.08
timer:  vmat             39      64.886    2530.547     1.51
timer:  MolMec            2       0.000       0.000     0.00
timer:  diagon           38    4251.936  161573.583    96.37
timer:  c-eigval       8899       6.672   59375.735    35.41
timer:  c-buildHS      8899       0.123    1096.793     0.65
timer:  cdiag         17677       6.885  121697.403    72.59
timer:  cdiag1        17677       0.427    7541.059     4.50
timer:  cdiag2        17677       1.905   33683.308    20.09
timer:  cdiag3        17677       3.939   69633.775    41.53
timer:  cdiag4        17677       0.226    4000.753     2.39
timer:  c-eigvec       8778       7.291   63998.403    38.17
timer:  c-buildD       8778       4.438   38956.834    23.24
timer:  DHSCF4            1      44.504      44.504     0.03
timer:  dfscf             1      41.814      41.814     0.02
timer:  overfsm           1       0.492       0.492     0.00
timer:  optical           1       5.012       5.012     0.00
  

elaps: ELAPSED times:
elaps:  Routine       Calls   Time/call    Tot.time        %
elaps:  siesta            1   20982.086   20982.086   100.00
elaps:  Setup             1       0.504       0.504     0.00
elaps:  bands             3      33.666     100.999     0.48
elaps:  writewave         1       0.006       0.006     0.00
elaps:  KSV_init          1       0.001       0.001     0.00
elaps:  IterMD            1   20879.921   20879.921    99.51
elaps:  hsparse           1       0.049       0.049     0.00
elaps:  overlap           1       0.980       0.980     0.00
elaps:  IterSCF          38     548.695   20850.412    99.37
elaps:  kinefsm           2       0.508       1.016     0.00
elaps:  nlefsm            2       2.783       5.566     0.03
elaps:  DHSCF            39      16.500     643.487     3.07
elaps:  DHSCF1            1       0.129       0.129     0.00
elaps:  DHSCF2            1       5.794       5.794     0.03
elaps:  REORD           314       0.001       0.416     0.00
elaps:  POISON           40       0.280      11.203     0.05
elaps:  DHSCF3           39      16.058     626.258     2.98
elaps:  rhoofd           39       7.113     277.407     1.32
elaps:  cellXC           39       0.434      16.929     0.08
elaps:  vmat             39       8.117     316.566     1.51
elaps:  MolMec            2       0.000       0.000     0.00
elaps:  diagon           38     532.123   20220.680    96.37
elaps:  c-eigval       8899       0.835    7429.039    35.41
elaps:  c-buildHS      8899       0.017     149.462     0.71
elaps:  cdiag         17677       0.853   15073.335    71.84
elaps:  cdiag1        17677       0.053     938.495     4.47
elaps:  cdiag2        17677       0.238    4214.641    20.09
elaps:  cdiag3        17677       0.494    8724.171    41.58
elaps:  cdiag4        17677       0.028     501.757     2.39
elaps:  c-eigvec       8778       0.899    7890.622    37.61
elaps:  c-buildD       8778       0.569    4993.570    23.80
elaps:  DHSCF4            1      11.021      11.021     0.05
elaps:  dfscf             1      10.486      10.486     0.05
elaps:  overfsm           1       0.061       0.061     0.00
elaps:  optical           1       0.001       0.001     0.00
  
>> End of run:  24-APR-2016  21:08:03
