Siesta Version:                                        siesta-3.2-pl-3
Architecture  : x86_64-unknown-linux-gnu--unknown
Compiler flags: mpiifort -g -O2 -fPIC -xSSE4.1 -fp-model source -shared-intel 
PARALLEL version

* Running on   12 nodes in parallel
>> Start of run:   2-MAY-2016  23:52:58

                           ***********************       
                           *  WELCOME TO SIESTA  *       
                           ***********************       

reinit: Reading from standard input
************************** Dump of input data file ****************************
#(1) General system descriptors
SystemName            GRP_doping    # Descriptive name of the system
SystemLabel           GRP_doping    # Short name for naming files
%include STRUCT.fdf
%include KPT.fdf
%include BASIS.fdf
#%include TS.fdf # for transiesta calculation
#(4) DFT, Grid, SCF
XC.functional         GGA           # LDA or GGA (default = LDA)
XC.authors            PBE           # CA (Ceperley-Aldr) = PZ
                                    #    (Perdew-Zunger) - LDA - Default
                                    # PW92 (Perdew-Wang-92) - LDA
                                    # PBE (Perdew-Burke-Ernzerhof) - GGA
MeshCutoff            200.000000    Ry      # Default: 50.0 Ry ~ 0.444 Bohr
                                    #         100.0 Ry ~ 0.314 Bohr
MaxSCFIterations      500           # Default: 50
DM.MixingWeight       0.05          # Default: 0.25
DM.NumberPulay        10            # Default: 0
DM.PulayOnFile        F             # SystemLabel.P1, SystemLabel.P2
DM.Tolerance          1.d-4         # Default: 1.d-4
DM.UseSaveDM          .true.        # because of the bug
SCFMustConverge       .true.
NeglNonOverlapInt     F             # Default: F
#(5) Eigenvalue problem: order-N or diagonalization
SolutionMethod        Diagon        # or Transiesta
ElectronicTemperature 300.0 K       # Default: 300.0 K
#(6) Molecular dynamics and relaxations
#MD.TypeOfRun          CG            # Type of dynamics:
#MD.VariableCell       F
#MD.NumCGsteps         0           # 0 for single-point / 100 for gopt
#MD.MaxCGDispl         0.2 Bohr      # Default: 0.2 Bohr
#MD.MaxForceTol        0.02 eV/Ang   # Default: 0.04 eV/Ang
#MD.MaxStressTol       1.0 GPa       # Default: 1.0 GPa
# Geometry Constraints
#%block GeometryConstraints
#	position from 1 to 44
#%endblock GeometryConstraints
BandLinesScale   pi/a
%block BandLines
 1   0.00000000  0.00000000  0.00000000
50   0.00000000  0.07809418  0.00000000
50   0.04509075  0.07809242  0.00000000
20   0.00000000  0.00000000  0.00000000
%endblock BandLines
************************** End of input data file *****************************

reinit: -----------------------------------------------------------------------
reinit: System Name: GRP_doping
reinit: -----------------------------------------------------------------------
reinit: System Label: GRP_doping                                                  
reinit: -----------------------------------------------------------------------

initatom: Reading input for the pseudopotentials and atomic orbitals ----------
 Species number:            1  Label: B Atomic number:           5
 Species number:            2  Label: C Atomic number:           6
Ground state valence configuration:   2s02  2p01
Reading pseudopotential information in formatted form from B.psf

Valence configuration for pseudopotential generation:
2s( 2.00) rc: 1.74
2p( 1.00) rc: 1.74
3d( 0.00) rc: 1.74
4f( 0.00) rc: 1.74
Ground state valence configuration:   2s02  2p02
Reading pseudopotential information in formatted form from C.psf

Valence configuration for pseudopotential generation:
2s( 2.00) rc: 1.54
2p( 2.00) rc: 1.54
3d( 0.00) rc: 1.54
4f( 0.00) rc: 1.54
For B, standard SIESTA heuristics set lmxkb to 3
 (one more than the basis l, including polarization orbitals).
Use PS.lmax or PS.KBprojectors blocks to override.
For C, standard SIESTA heuristics set lmxkb to 3
 (one more than the basis l, including polarization orbitals).
Use PS.lmax or PS.KBprojectors blocks to override.

<basis_specs>
===============================================================================
B                    Z=   5    Mass=  10.810        Charge= 0.17977+309
Lmxo=1 Lmxkb= 3    BasisType=split      Semic=F
L=0  Nsemic=0  Cnfigmx=2
          n=1  nzeta=2  polorb=0
            splnorm:   0.15000    
               vcte:    0.0000    
               rinn:    0.0000    
                rcs:    0.0000      0.0000    
            lambdas:    1.0000      1.0000    
L=1  Nsemic=0  Cnfigmx=2
          n=1  nzeta=2  polorb=1
            splnorm:   0.15000    
               vcte:    0.0000    
               rinn:    0.0000    
                rcs:    0.0000      0.0000    
            lambdas:    1.0000      1.0000    
-------------------------------------------------------------------------------
L=0  Nkbl=1  erefs: 0.17977+309
L=1  Nkbl=1  erefs: 0.17977+309
L=2  Nkbl=1  erefs: 0.17977+309
L=3  Nkbl=1  erefs: 0.17977+309
===============================================================================
</basis_specs>

atom: Called for B                     (Z =   5)

read_vps: Pseudopotential generation method:
read_vps: ATM3      Troullier-Martins                       
Total valence charge:    3.00000

read_vps: Pseudopotential includes a core correction:
read_vps: Pseudo-core for xc-correction

xc_check: Exchange-correlation functional:
xc_check: GGA Perdew, Burke & Ernzerhof 1996
V l=0 = -2*Zval/r beyond r=  1.7165
V l=1 = -2*Zval/r beyond r=  1.7165
V l=2 = -2*Zval/r beyond r=  1.7165
V l=3 = -2*Zval/r beyond r=  1.6951
All V_l potentials equal beyond r=  1.7165
This should be close to max(r_c) in ps generation
All pots = -2*Zval/r beyond r=  1.7165

VLOCAL1: 99.0% of the norm of Vloc inside     14.733 Ry
VLOCAL1: 99.9% of the norm of Vloc inside     33.577 Ry
atom: Maximum radius for 4*pi*r*r*local-pseudopot. charge    2.04484
atom: Maximum radius for r*vlocal+2*Zval:    1.75994
GHOST: No ghost state for L =  0
GHOST: No ghost state for L =  1
GHOST: No ghost state for L =  2
GHOST: No ghost state for L =  3

KBgen: Kleinman-Bylander projectors: 
   l= 0   rc=  1.897051   el= -0.693730   Ekb=  4.595746   kbcos=  0.286105
   l= 1   rc=  1.920920   el= -0.265236   Ekb= -2.350715   kbcos= -0.315747
   l= 2   rc=  2.044840   el=  0.002055   Ekb= -0.690767   kbcos= -0.013822
   l= 3   rc=  2.149707   el=  0.003188   Ekb= -0.315358   kbcos= -0.002055

KBgen: Total number of  Kleinman-Bylander projectors:   16
atom: -------------------------------------------------------------------------

atom: SANKEY-TYPE ORBITALS:
atom: Selected multiple-zeta basis: split     

SPLIT: Orbitals with angular momentum L= 0

SPLIT: Basis orbitals for state 2s

SPLIT: PAO cut-off radius determined from an
SPLIT: energy shift=  0.007350 Ry

   izeta = 1
                 lambda =    1.000000
                     rc =    5.422032
                 energy =   -0.686029
                kinetic =    0.576707
    potential(screened) =   -1.262736
       potential(ionic) =   -3.271094

   izeta = 2
                 rmatch =    4.222573
              splitnorm =    0.150000
                 energy =   -0.602132
                kinetic =    0.858975
    potential(screened) =   -1.461107
       potential(ionic) =   -3.582536

SPLIT: Orbitals with angular momentum L= 1

SPLIT: Basis orbitals for state 2p

SPLIT: PAO cut-off radius determined from an
SPLIT: energy shift=  0.007350 Ry

   izeta = 1
                 lambda =    1.000000
                     rc =    6.790259
                 energy =   -0.258578
                kinetic =    1.481412
    potential(screened) =   -1.739989
       potential(ionic) =   -3.657461

   izeta = 2
                 rmatch =    4.608740
              splitnorm =    0.150000
                 energy =   -0.173757
                kinetic =    2.186690
    potential(screened) =   -2.360447
       potential(ionic) =   -4.464260

POLgen: Perturbative polarization orbital with L=  2

POLgen: Polarization orbital for state 2p

   izeta = 1
                     rc =    6.790259
                 energy =    0.684082
                kinetic =    1.471481
    potential(screened) =   -0.787399
       potential(ionic) =   -2.406985
atom: Total number of Sankey-type orbitals: 13

atm_pop: Valence configuration (for local Pseudopot. screening):
 2s( 2.00)                                                            
 2p( 1.00)                                                            
Vna: chval, zval:    3.00000   3.00000

Vna:  Cut-off radius for the neutral-atom potential:   6.790259
comcore: Pseudo-core radius Rcore=  2.122997

atom: _________________________________________________________________________

<basis_specs>
===============================================================================
C                    Z=   6    Mass=  12.010        Charge= 0.17977+309
Lmxo=1 Lmxkb= 3    BasisType=split      Semic=F
L=0  Nsemic=0  Cnfigmx=2
          n=1  nzeta=2  polorb=0
            splnorm:   0.15000    
               vcte:    0.0000    
               rinn:    0.0000    
                rcs:    0.0000      0.0000    
            lambdas:    1.0000      1.0000    
L=1  Nsemic=0  Cnfigmx=2
          n=1  nzeta=2  polorb=1
            splnorm:   0.15000    
               vcte:    0.0000    
               rinn:    0.0000    
                rcs:    0.0000      0.0000    
            lambdas:    1.0000      1.0000    
-------------------------------------------------------------------------------
L=0  Nkbl=1  erefs: 0.17977+309
L=1  Nkbl=1  erefs: 0.17977+309
L=2  Nkbl=1  erefs: 0.17977+309
L=3  Nkbl=1  erefs: 0.17977+309
===============================================================================
</basis_specs>

atom: Called for C                     (Z =   6)

read_vps: Pseudopotential generation method:
read_vps: ATM3      Troullier-Martins                       
Total valence charge:    4.00000

read_vps: Pseudopotential includes a core correction:
read_vps: Pseudo-core for xc-correction

xc_check: Exchange-correlation functional:
xc_check: GGA Perdew, Burke & Ernzerhof 1996
V l=0 = -2*Zval/r beyond r=  1.5227
V l=1 = -2*Zval/r beyond r=  1.5227
V l=2 = -2*Zval/r beyond r=  1.5227
V l=3 = -2*Zval/r beyond r=  1.5038
All V_l potentials equal beyond r=  1.5227
This should be close to max(r_c) in ps generation
All pots = -2*Zval/r beyond r=  1.5227

VLOCAL1: 99.0% of the norm of Vloc inside     18.722 Ry
VLOCAL1: 99.9% of the norm of Vloc inside     42.668 Ry
atom: Maximum radius for 4*pi*r*r*local-pseudopot. charge    1.83678
atom: Maximum radius for r*vlocal+2*Zval:    1.58088
GHOST: No ghost state for L =  0
GHOST: No ghost state for L =  1
GHOST: No ghost state for L =  2
GHOST: No ghost state for L =  3

KBgen: Kleinman-Bylander projectors: 
   l= 0   rc=  1.704034   el= -1.009801   Ekb=  5.335044   kbcos=  0.316824
   l= 1   rc=  1.704034   el= -0.388707   Ekb= -3.785862   kbcos= -0.366464
   l= 2   rc=  1.791422   el=  0.001971   Ekb= -0.970471   kbcos= -0.009212
   l= 3   rc=  1.859892   el=  0.003065   Ekb= -0.399525   kbcos= -0.001223

KBgen: Total number of  Kleinman-Bylander projectors:   16
atom: -------------------------------------------------------------------------

atom: SANKEY-TYPE ORBITALS:
atom: Selected multiple-zeta basis: split     

SPLIT: Orbitals with angular momentum L= 0

SPLIT: Basis orbitals for state 2s

SPLIT: PAO cut-off radius determined from an
SPLIT: energy shift=  0.007350 Ry

   izeta = 1
                 lambda =    1.000000
                     rc =    4.632753
                 energy =   -1.002270
                kinetic =    0.855760
    potential(screened) =   -1.858031
       potential(ionic) =   -5.417575

   izeta = 2
                 rmatch =    3.431921
              splitnorm =    0.150000
                 energy =   -0.867111
                kinetic =    1.300804
    potential(screened) =   -2.167915
       potential(ionic) =   -5.962684

SPLIT: Orbitals with angular momentum L= 1

SPLIT: Basis orbitals for state 2p

SPLIT: PAO cut-off radius determined from an
SPLIT: energy shift=  0.007350 Ry

   izeta = 1
                 lambda =    1.000000
                     rc =    5.658549
                 energy =   -0.381140
                kinetic =    2.399701
    potential(screened) =   -2.780841
       potential(ionic) =   -6.206085

   izeta = 2
                 rmatch =    3.653288
              splitnorm =    0.150000
                 energy =   -0.249149
                kinetic =    3.542762
    potential(screened) =   -3.791911
       potential(ionic) =   -7.581078

POLgen: Perturbative polarization orbital with L=  2

POLgen: Polarization orbital for state 2p

   izeta = 1
                     rc =    5.658549
                 energy =    1.109913
                kinetic =    2.304789
    potential(screened) =   -1.194876
       potential(ionic) =   -4.013592
atom: Total number of Sankey-type orbitals: 13

atm_pop: Valence configuration (for local Pseudopot. screening):
 2s( 2.00)                                                            
 2p( 2.00)                                                            
Vna: chval, zval:    4.00000   4.00000

Vna:  Cut-off radius for the neutral-atom potential:   5.658549
comcore: Pseudo-core radius Rcore=  1.791422

atom: _________________________________________________________________________

prinput: Basis input ----------------------------------------------------------

PAO.BasisType split     

%block ChemicalSpeciesLabel
    1    5 B                       # Species index, atomic number, species label
    2    6 C                       # Species index, atomic number, species label
%endblock ChemicalSpeciesLabel

%block PAO.Basis                 # Define Basis set
B                     2                    # Species label, number of l-shells
 n=2   0   2                         # n, l, Nzeta 
   5.422      4.223   
   1.000      1.000   
 n=2   1   2 P   1                   # n, l, Nzeta, Polarization, NzetaPol
   6.790      4.609   
   1.000      1.000   
C                     2                    # Species label, number of l-shells
 n=2   0   2                         # n, l, Nzeta 
   4.633      3.432   
   1.000      1.000   
 n=2   1   2 P   1                   # n, l, Nzeta, Polarization, NzetaPol
   5.659      3.653   
   1.000      1.000   
%endblock PAO.Basis

prinput: ----------------------------------------------------------------------

coor:   Atomic-coordinates input format  =     Fractional

siesta: Atomic coordinates (Bohr) and species
siesta:      6.95932  17.38257   0.00000  1        1
siesta:     -0.02582  10.66124   0.00000  1        2
siesta:     -0.02582  13.34970   0.00000  1        3
siesta:      4.63094  18.72698   0.00000  1        4
siesta:      4.63094  21.41544   0.00000  1        5
siesta:      6.95932  22.75985   0.00000  1        6
siesta:      6.95932  25.44831   0.00000  1        7
siesta:      2.30256  22.75985   0.00000  1        8
siesta:      2.30256  25.44831   0.00000  1        9
siesta:     -2.35420  25.44831   0.00000  1       10
siesta:     -4.68258  26.79272   0.00000  1       11
siesta:     -4.68258  29.48119   0.00000  1       12
siesta:     -2.35420  30.82560   0.00000  1       13
siesta:     -2.35420  33.51406   0.00000  1       14
siesta:     -0.02582  34.85847   0.00000  1       15
siesta:     -0.02582  37.54693   0.00000  1       16
siesta:     -0.02582   2.59549   0.00000  2       17
siesta:     -0.02582   5.28395   0.00000  2       18
siesta:     -2.35420  38.89134   0.00000  2       19
siesta:     -2.35420  41.57980   0.00000  2       20
siesta:      2.30256  38.89134   0.00000  2       21
siesta:      2.30256  41.57980   0.00000  2       22
siesta:      4.63094  34.85847   0.00000  2       23
siesta:      4.63094  37.54693   0.00000  2       24
siesta:      6.95932  30.82560   0.00000  2       25
siesta:      6.95932  33.51406   0.00000  2       26
siesta:      9.28770  26.79272   0.00000  2       27
siesta:      9.28770  29.48119   0.00000  2       28
siesta:     -4.68258  34.85847   0.00000  2       29
siesta:     -4.68258  37.54693   0.00000  2       30
siesta:      2.30256   6.62836   0.00000  2       31
siesta:      2.30256   9.31683   0.00000  2       32
siesta:      4.63094  10.66124   0.00000  2       33
siesta:      4.63094  13.34970   0.00000  2       34
siesta:      6.95932  14.69411   0.00000  2       35
siesta:      9.28770  18.72698   0.00000  2       36
siesta:      9.28770  21.41544   0.00000  2       37
siesta:     11.61608  22.75985   0.00000  2       38
siesta:     11.61608  25.44831   0.00000  2       39
siesta:     -2.35420   6.62836   0.00000  2       40
siesta:     -2.35420   9.31683   0.00000  2       41
siesta:      2.30256  14.69411   0.00000  2       42
siesta:      2.30256  17.38257   0.00000  2       43
siesta:     -4.68258  10.66124   0.00000  2       44
siesta:     -4.68258  13.34970   0.00000  2       45
siesta:     -2.35420  14.69411   0.00000  2       46
siesta:     -2.35420  17.38257   0.00000  2       47
siesta:     -0.02582  18.72698   0.00000  2       48
siesta:     -0.02582  21.41544   0.00000  2       49
siesta:     -7.01096  14.69411   0.00000  2       50
siesta:     -7.01096  17.38257   0.00000  2       51
siesta:     -4.68258  18.72698   0.00000  2       52
siesta:     -4.68258  21.41544   0.00000  2       53
siesta:     -2.35420  22.75985   0.00000  2       54
siesta:     -9.33934  18.72698   0.00000  2       55
siesta:     -9.33934  21.41544   0.00000  2       56
siesta:     -7.01096  22.75985   0.00000  2       57
siesta:     -7.01096  25.44831   0.00000  2       58
siesta:    -11.66772  22.75985   0.00000  2       59
siesta:    -11.66772  25.44831   0.00000  2       60
siesta:     -9.33934  26.79272   0.00000  2       61
siesta:     -9.33934  29.48119   0.00000  2       62
siesta:      4.63094  26.79272   0.00000  2       63
siesta:      4.63094  29.48119   0.00000  2       64
siesta:     -0.02582  26.79272   0.00000  2       65
siesta:     -0.02582  29.48119   0.00000  2       66
siesta:      2.30256  30.82560   0.00000  2       67
siesta:      2.30256  33.51406   0.00000  2       68
siesta:     -7.01096  30.82560   0.00000  2       69
siesta:     -7.01096  33.51406   0.00000  2       70
siesta:     -0.02582  42.92421   0.00000  2       71
siesta:     -0.02582  45.61267   0.00000  2       72

siesta: System type = slab      

initatomlists: Number of atoms, orbitals, and projectors:     72   936  1152

siesta: ******************** Simulation parameters ****************************
siesta:
siesta: The following are some of the parameters of the simulation.
siesta: A complete list of the parameters used, including default values,
siesta: can be found in file out.fdf
siesta:
redata: Non-Collinear-spin run           =     F
redata: SpinPolarized (Up/Down) run      =     F
redata: Number of spin components        =     1
redata: Long output                      =     F
redata: Number of Atomic Species         =        2
redata: Charge density info will appear in .RHO file
redata: Write Mulliken Pop.              =     NO
redata: Mesh Cutoff                      =   200.0000  Ry
redata: Net charge of the system         =     0.0000 |e|
redata: Max. number of SCF Iter          =      500
redata: SCF convergence failure will abort job
redata: Performing Pulay mixing using    =    10 iterations
redata: Mix DM in first SCF step ?       =     F
redata: Write Pulay info on disk?        =     F
redata: Discard 1st Pulay DM after  kick =     F
redata: New DM Mixing Weight             =     0.0500
redata: New DM Occupancy tolerance       = 0.000000000001
redata: No kicks to SCF
redata: DM Mixing Weight for Kicks       =     0.5000
redata: DM Tolerance for SCF             =     0.000100
redata: Require Energy convergence for SCF =     F
redata: DM Energy tolerance for SCF      =     0.000100 eV
redata: Require Harris convergence for SCF =     F
redata: DM Harris energy tolerance for SCF =     0.000100 eV
redata: Using Saved Data (generic)   =     F
redata: Use continuation files for DM    =     T
redata: Neglect nonoverlap interactions  =     F
redata: Method of Calculation            =     Diagonalization
redata: Divide and Conquer               =     T
redata: Electronic Temperature           =     0.0019  Ry
redata: Fix the spin of the system       =     F
redata: Dynamics option                  =     Verlet MD run
redata: Initial MD time step             =        1
redata:   Final MD time step             =        1
redata: Length of MD time step           =     1.0000  fs
redata: Initial Temperature of MD run    =     0.0000  K
redata: Perform a MD quench              =     F
redata: ***********************************************************************
Total number of electrons:   272.000000
Total ionic charge:   272.000000

* ProcessorY, Blocksize:    3  24

k-point displ. along   1 input, could be:     0.50    0.00
k-point displ. along   2 input, could be:     0.50    0.00
 Kpoints in:          231 . Kpoints trimmed:          231

siesta: k-grid: Number of k-points =   231
siesta: k-grid: Cutoff (effective) =     5.000 Ang
siesta: k-grid: Supercell and displacements
siesta: k-grid:   21   0   0      0.500
siesta: k-grid:    0  21   0      0.500
siesta: k-grid:    0   0   1      0.000
Naive supercell factors:     2    2    2

superc: Internal auxiliary supercell:     2 x     2 x     2  =       8
superc: Number of atoms, orbitals, and projectors:    576   7488   9216

* Maximum dynamic memory allocated =     4 MB

siesta:                 ==============================
                            Begin MD step =      1
                        ==============================

superc: Internal auxiliary supercell:     2 x     2 x     2  =       8
superc: Number of atoms, orbitals, and projectors:    576   7488   9216

outcell: Unit cell vectors (Ang):
       12.804619    7.392750    0.000000
        0.000000   14.785500    0.000000
        0.000000    0.000000   10.000000

outcell: Cell vector modules (Ang)   :   14.785500   14.785500   10.000000
outcell: Cell angles (23,13,12) (deg):     90.0000     90.0000     60.0000
outcell: Cell volume (Ang**3)        :   1893.2269
New_DM. Step:     1
Initializing Density Matrix...

InitMesh: MESH =   120 x   120 x    90 =     1296000
InitMesh: Mesh cutoff (required, used) =   200.000   223.865 Ry

* Maximum dynamic memory allocated =   156 MB

stepf: Fermi-Dirac step function

siesta: Program's energy decomposition (eV):
siesta: Ebs     =     -5606.326783
siesta: Eions   =     16354.103692
siesta: Ena     =      4339.417605
siesta: Ekin    =      5534.369168
siesta: Enl     =       773.096205
siesta: DEna    =        -0.000010
siesta: DUscf   =         0.000000
siesta: DUext   =         0.000000
siesta: Exc     =     -4191.154066
siesta: eta*DQ  =         0.000000
siesta: Emadel  =         0.000000
siesta: Emeta   =         0.000000
siesta: Emolmec =         0.000000
siesta: Ekinion =         0.000000
siesta: Eharris =     -9649.018649
siesta: Etot    =     -9898.374789
siesta: FreeEng =     -9898.374789

siesta: iscf   Eharris(eV)      E_KS(eV)   FreeEng(eV)   dDmax  Ef(eV)
siesta:    1    -9649.0186    -9898.3748    -9898.3748  7.6652 -8.3076
timer: Routine,Calls,Time,% = IterSCF        1    3038.161  99.59
elaps: Routine,Calls,Wall,% = IterSCF        1     253.783  99.59
siesta:    2   -14747.8456    -8842.6329    -8842.6810 18.8894 -3.6107
siesta:    3    -9613.3624    -9748.3043    -9748.3217  2.2596 -6.3933
siesta:    4    -9569.2153    -9651.0153    -9651.0635  1.3235 -5.8085
siesta:    5    -9522.2479    -9567.1542    -9567.1573  1.1527 -5.4814
siesta:    6    -9506.2057    -9525.2760    -9525.3079  1.1407 -5.2988
siesta:    7    -9497.2741    -9497.1722    -9497.2282  0.6361 -5.2659
siesta:    8    -9495.3561    -9491.2254    -9491.2881  0.6374 -5.2684
siesta:    9    -9492.4931    -9477.3596    -9477.4212  0.4554 -5.1851
siesta:   10    -9493.7589    -9466.5879    -9466.6251  0.3522 -5.0195
siesta:   11    -9492.1379    -9466.5814    -9466.6481  0.2919 -5.0313
siesta:   12    -9491.9138    -9465.9790    -9466.0479  0.2219 -5.0123
siesta:   13    -9491.5071    -9466.7418    -9466.7805  0.2003 -5.0140
siesta:   14    -9490.7351    -9472.9544    -9473.0153  0.2000 -5.0587
siesta:   15    -9490.3296    -9478.3357    -9478.4001  0.1466 -5.0938
siesta:   16    -9490.2700    -9482.1911    -9482.2573  0.0921 -5.1081
siesta:   17    -9490.2178    -9483.6617    -9483.7324  0.0495 -5.0976
siesta:   18    -9490.2008    -9484.3790    -9484.4395  0.0382 -5.0967
siesta:   19    -9490.1855    -9485.7584    -9485.8218  0.0299 -5.0959
siesta:   20    -9490.1740    -9488.1719    -9488.2338  0.0238 -5.0987
siesta:   21    -9490.1685    -9489.1000    -9489.1639  0.0216 -5.1002
siesta:   22    -9490.1665    -9489.6178    -9489.6827  0.0149 -5.0997
siesta:   23    -9490.1675    -9490.0846    -9490.1506  0.0083 -5.0979
siesta:   24    -9490.1669    -9490.2494    -9490.3147  0.0035 -5.0966
siesta:   25    -9490.1663    -9490.2997    -9490.3649  0.0025 -5.0959
siesta:   26    -9490.1659    -9490.3306    -9490.3961  0.0022 -5.0956
siesta:   27    -9490.1659    -9490.3130    -9490.3788  0.0019 -5.0958
siesta:   28    -9490.1659    -9490.2592    -9490.3250  0.0015 -5.0959
siesta:   29    -9490.1658    -9490.2233    -9490.2891  0.0010 -5.0957
siesta:   30    -9490.1658    -9490.1992    -9490.2650  0.0006 -5.0957
siesta:   31    -9490.1658    -9490.1875    -9490.2533  0.0004 -5.0957
siesta:   32    -9490.1658    -9490.1726    -9490.2384  0.0003 -5.0957
siesta:   33    -9490.1658    -9490.1577    -9490.2235  0.0002 -5.0957
siesta:   34    -9490.1658    -9490.1525    -9490.2183  0.0001 -5.0957
siesta:   35    -9490.1658    -9490.1533    -9490.2191  0.0001 -5.0957
siesta:   36    -9490.1658    -9490.1568    -9490.2226  0.0001 -5.0957
siesta:   37    -9490.1658    -9490.1607    -9490.2265  0.0000 -5.0957

siesta: E_KS(eV) =            -9490.1630

siesta: E_KS - E_eggbox =     -9490.1630

siesta: Atomic forces (eV/Ang):
----------------------------------------
   Tot   -0.091379   -0.013568    0.000000
----------------------------------------
   Max  561.452067
   Res  150.096091    sqrt( Sum f_i^2 / 3N )
----------------------------------------
   Max  561.452067    constrained

Stress-tensor-Voigt (kbar):     -760.85    -2666.11       -0.54       -6.65        0.00        0.00
(Free)E + p*V (eV/cell)    -8140.1959
Target enthalpy (eV/cell)    -9490.2288

siesta: Stress tensor (static) (eV/Ang**3):
        -0.474883   -0.004153    0.000000
        -0.004154   -1.664037    0.000000
         0.000000    0.000000   -0.000337

siesta: Pressure (static):       1142.50155030  kBar

siesta: Stress tensor (total) (eV/Ang**3):
        -0.474883   -0.004153    0.000000
        -0.004154   -1.664037    0.000000
         0.000000    0.000000   -0.000337

siesta: Pressure (total):       1142.50155030  kBar

siesta: Temp_ion =       0.000 K

* Maximum dynamic memory allocated =   169 MB
Computing bands...

siesta: Program's energy decomposition (eV):
siesta: Ebs     =     -4263.728934
siesta: Eions   =     16354.103692
siesta: Ena     =      4339.417605
siesta: Ekin    =      8401.365152
siesta: Enl     =      -855.964030
siesta: DEna    =      -765.853303
siesta: DUscf   =       102.063048
siesta: DUext   =         0.000000
siesta: Exc     =     -4357.087820
siesta: eta*DQ  =         0.000000
siesta: Emadel  =         0.000000
siesta: Emeta   =         0.000000
siesta: Emolmec =         0.000000
siesta: Ekinion =         0.000000
siesta: Eharris =     -9490.165791
siesta: Etot    =     -9490.163039
siesta: FreeEng =     -9490.228825

siesta: Final energy (eV):
siesta:  Band Struct. =   -4263.728934
siesta:       Kinetic =    8401.365152
siesta:       Hartree =   27010.462972
siesta:    Ext. field =       0.000000
siesta:   Exch.-corr. =   -4357.087820
siesta:  Ion-electron =  -62151.096654
siesta:       Ion-ion =   21606.193310
siesta:       Ekinion =       0.000000
siesta:         Total =   -9490.163039

siesta: Atomic forces (eV/Ang):
siesta:      1    8.134225   -3.515953    0.000000
siesta:      2   -0.325266  282.880440    0.000000
siesta:      3   -1.524129 -112.016095    0.000000
siesta:      4   -5.822480   -2.967993    0.000000
siesta:      5    0.663040    1.837597    0.000000
siesta:      6    3.059823   -2.509888    0.000000
siesta:      7   -1.207136    4.652916    0.000000
siesta:      8   -4.601746   -4.680493    0.000000
siesta:      9   -0.037179    5.443769    0.000000
siesta:     10    4.422580   -0.286338    0.000000
siesta:     11   -4.140863   -2.094032    0.000000
siesta:     12   -0.678587    3.265610    0.000000
siesta:     13  -15.464300    2.062708    0.000000
siesta:     14  -15.827313 -398.906238    0.000000
siesta:     15   -0.338281  104.364781    0.000000
siesta:     16   -0.324405 -282.919543    0.000000
siesta:     17    6.951977  548.992503    0.000000
siesta:     18   -9.389728 -132.100609    0.000000
siesta:     19    7.657664  125.231515    0.000000
siesta:     20  -23.500969 -548.608044    0.000000
siesta:     21   -7.307436  123.824304    0.000000
siesta:     22   23.613905 -550.580426    0.000000
siesta:     23   26.193588    4.686125    0.000000
siesta:     24   32.594453 -546.177545    0.000000
siesta:     25    1.645115    1.094788    0.000000
siesta:     26   -2.552160    1.870158    0.000000
siesta:     27    7.266893    3.981516    0.000000
siesta:     28   -1.474833   -0.657539    0.000000
siesta:     29  -25.594103    0.137552    0.000000
siesta:     30  -30.287367 -548.511729    0.000000
siesta:     31   21.708470  550.297041    0.000000
siesta:     32   -7.977076 -124.745355    0.000000
siesta:     33   36.551861  547.578820    0.000000
siesta:     34   26.933537   -6.836327    0.000000
siesta:     35   -4.269959   -4.648318    0.000000
siesta:     36    0.817121    2.757367    0.000000
siesta:     37    7.248868   -4.069071    0.000000
siesta:     38   -0.464749    6.149355    0.000000
siesta:     39   -0.241551   -6.140056    0.000000
siesta:     40  -16.334750  406.221533    0.000000
siesta:     41    7.094156 -118.346624    0.000000
siesta:     42   12.629490  553.187524    0.000000
siesta:     43   20.750589   -6.296911    0.000000
siesta:     44  -35.528660  548.000556    0.000000
siesta:     45  -26.749298   -5.651637    0.000000
siesta:     46  -15.458463  549.288763    0.000000
siesta:     47  -22.326419   -6.696080    0.000000
siesta:     48    0.722289  561.452067    0.000000
siesta:     49   -2.940262   -1.006882    0.000000
siesta:     50    2.731888   -1.974795    0.000000
siesta:     51   -1.697098   -0.240975    0.000000
siesta:     52    0.782407    2.088221    0.000000
siesta:     53    0.377915   -0.650457    0.000000
siesta:     54    0.299628   -4.875638    0.000000
siesta:     55    0.889782   -0.434576    0.000000
siesta:     56   -2.393105   -1.924807    0.000000
siesta:     57   -0.583175    1.020806    0.000000
siesta:     58   -1.928414   -2.412093    0.000000
siesta:     59    0.295192    7.071837    0.000000
siesta:     60    0.359073   -7.042523    0.000000
siesta:     61   -2.738961    1.360828    0.000000
siesta:     62    1.949820    0.923562    0.000000
siesta:     63    0.365520    4.041084    0.000000
siesta:     64   -0.776722   -2.346916    0.000000
siesta:     65   -0.014375    2.753076    0.000000
siesta:     66   -6.039495 -559.329678    0.000000
siesta:     67   22.127791    7.845883    0.000000
siesta:     68   15.614124 -549.314301    0.000000
siesta:     69   -7.806140    1.933381    0.000000
siesta:     70    2.942607    1.960877    0.000000
siesta:     71    3.405691  132.944238    0.000000
siesta:     72   -2.225510 -551.700181    0.000000
siesta: ----------------------------------------
siesta:    Tot   -0.091379   -0.013568    0.000000

siesta: Stress tensor (static) (eV/Ang**3):
siesta:    -0.474883   -0.004153    0.000000
siesta:    -0.004154   -1.664037    0.000000
siesta:     0.000000    0.000000   -0.000337

siesta: Cell volume =       1893.226884 Ang**3

siesta: Pressure (static):
siesta:                Solid            Molecule  Units
siesta:           0.00776641          0.11442471  Ry/Bohr**3
siesta:           0.71308567         10.50608790  eV/Ang**3
siesta:        1142.50155030      16832.79049162  kBar
(Free)E+ p_basis*V_orbitals  =       -9454.435953
(Free)Eharris+ p_basis*V_orbitals  =       -9454.441071

siesta: Electric dipole (a.u.)  =    0.000000    0.000000    0.000000
siesta: Electric dipole (Debye) =    0.000000    0.000000    0.000000

* Maximum dynamic memory allocated : Node    0 =   169 MB
* Maximum dynamic memory allocated : Node    1 =    67 MB
* Maximum dynamic memory allocated : Node    2 =    68 MB
* Maximum dynamic memory allocated : Node    3 =   154 MB
* Maximum dynamic memory allocated : Node    4 =   168 MB
* Maximum dynamic memory allocated : Node    5 =    62 MB
* Maximum dynamic memory allocated : Node    6 =    63 MB
* Maximum dynamic memory allocated : Node    7 =   157 MB
* Maximum dynamic memory allocated : Node    8 =   149 MB
* Maximum dynamic memory allocated : Node    9 =    59 MB
* Maximum dynamic memory allocated : Node   10 =    62 MB
* Maximum dynamic memory allocated : Node   11 =   143 MB

* Maximum memory occured during matrixMtoO                    

timer: CPU execution times:
timer:  Routine       Calls   Time/call    Tot.time        %
timer:  siesta            1  109942.136  109942.136   100.00
timer:  Setup             1       3.356       3.356     0.00
timer:  bands             3     226.796     680.387     0.62
timer:  writewave         1       0.024       0.024     0.00
timer:  KSV_init          1       0.002       0.002     0.00
timer:  IterMD            1  109251.415  109251.415    99.37
timer:  hsparse           1       0.276       0.276     0.00
timer:  overlap           1       7.412       7.412     0.01
timer:  IterSCF          37    2948.497  109094.386    99.23
timer:  kinefsm           2       3.776       7.552     0.01
timer:  nlefsm            2      20.328      40.655     0.04
timer:  DHSCF            38      80.948    3076.005     2.80
timer:  DHSCF1            1       1.194       1.194     0.00
timer:  DHSCF2            1      33.124      33.124     0.03
timer:  REORD           306       0.002       0.749     0.00
timer:  POISON           39       0.448      17.483     0.02
timer:  DHSCF3           38      79.300    3013.419     2.74
timer:  rhoofd           38      17.269     656.222     0.60
timer:  cellXC           38       2.431      92.375     0.08
timer:  vmat             38      37.846    1438.157     1.31
timer:  MolMec            2       0.000       0.000     0.00
timer:  diagon           37    2866.405  106056.990    96.47
timer:  c-eigval       8668       5.592   48467.270    44.08
timer:  c-buildHS      8668       0.036     308.940     0.28
timer:  cdiag         17215       5.691   97966.089    89.11
timer:  cdiag1        17215       0.263    4520.286     4.11
timer:  cdiag2        17215       1.832   31543.574    28.69
timer:  cdiag3        17215       3.384   58249.719    52.98
timer:  cdiag4        17215       0.087    1492.531     1.36
timer:  c-eigvec       8547       5.858   50068.958    45.54
timer:  c-buildD       8547       0.954    8154.119     7.42
timer:  DHSCF4            1      28.033      28.033     0.03
timer:  dfscf             1      25.926      25.926     0.02
timer:  overfsm           1       0.323       0.323     0.00
timer:  optical           1       6.367       6.367     0.01
  

elaps: ELAPSED times:
elaps:  Routine       Calls   Time/call    Tot.time        %
elaps:  siesta            1    9183.420    9183.420   100.00
elaps:  Setup             1       0.281       0.281     0.00
elaps:  bands             3      18.960      56.880     0.62
elaps:  writewave         1       0.002       0.002     0.00
elaps:  KSV_init          1       0.000       0.000     0.00
elaps:  IterMD            1    9125.724    9125.724    99.37
elaps:  hsparse           1       0.028       0.028     0.00
elaps:  overlap           1       0.716       0.716     0.01
elaps:  IterSCF          37     246.287    9112.607    99.23
elaps:  kinefsm           2       0.370       0.739     0.01
elaps:  nlefsm            2       1.838       3.676     0.04
elaps:  DHSCF            38       6.821     259.194     2.82
elaps:  DHSCF1            1       0.101       0.101     0.00
elaps:  DHSCF2            1       2.766       2.766     0.03
elaps:  REORD           306       0.000       0.091     0.00
elaps:  POISON           39       0.038       1.475     0.02
elaps:  DHSCF3           38       6.626     251.772     2.74
elaps:  rhoofd           38       3.023     114.870     1.25
elaps:  cellXC           38       0.203       7.696     0.08
elaps:  vmat             38       3.163     120.186     1.31
elaps:  MolMec            2       0.000       0.000     0.00
elaps:  diagon           37     239.436    8859.146    96.47
elaps:  c-eigval       8668       0.467    4048.379    44.08
elaps:  c-buildHS      8668       0.004      33.505     0.36
elaps:  cdiag         17215       0.470    8091.326    88.11
elaps:  cdiag1        17215       0.022     370.484     4.03
elaps:  cdiag2        17215       0.153    2637.212    28.72
elaps:  cdiag3        17215       0.283    4872.789    53.06
elaps:  cdiag4        17215       0.007     119.256     1.30
elaps:  c-eigvec       8547       0.480    4104.630    44.70
elaps:  c-buildD       8547       0.089     758.588     8.26
elaps:  DHSCF4            1       4.518       4.518     0.05
elaps:  dfscf             1       4.259       4.259     0.05
elaps:  overfsm           1       0.036       0.036     0.00
elaps:  optical           1       0.000       0.000     0.00
  
>> End of run:   3-MAY-2016   2:26:02
