Siesta Version:                                        siesta-3.2-pl-3
Architecture  : x86_64-unknown-linux-gnu--unknown
Compiler flags: mpiifort -g -O2 -fPIC -xSSE4.1 -fp-model source -shared-intel 
PARALLEL version

* Running on   12 nodes in parallel
>> Start of run:   4-MAY-2016   4:26:53

                           ***********************       
                           *  WELCOME TO SIESTA  *       
                           ***********************       

reinit: Reading from standard input
************************** Dump of input data file ****************************
#(1) General system descriptors
SystemName            GRP_doping    # Descriptive name of the system
SystemLabel           GRP_doping    # Short name for naming files
%include STRUCT.fdf
%include KPT.fdf
%include BASIS.fdf
#%include TS.fdf # for transiesta calculation
#(4) DFT, Grid, SCF
XC.functional         GGA           # LDA or GGA (default = LDA)
XC.authors            PBE           # CA (Ceperley-Aldr) = PZ
                                    #    (Perdew-Zunger) - LDA - Default
                                    # PW92 (Perdew-Wang-92) - LDA
                                    # PBE (Perdew-Burke-Ernzerhof) - GGA
MeshCutoff            200.000000    Ry      # Default: 50.0 Ry ~ 0.444 Bohr
                                    #         100.0 Ry ~ 0.314 Bohr
MaxSCFIterations      500           # Default: 50
DM.MixingWeight       0.05          # Default: 0.25
DM.NumberPulay        10            # Default: 0
DM.PulayOnFile        F             # SystemLabel.P1, SystemLabel.P2
DM.Tolerance          1.d-4         # Default: 1.d-4
DM.UseSaveDM          .true.        # because of the bug
SCFMustConverge       .true.
NeglNonOverlapInt     F             # Default: F
#(5) Eigenvalue problem: order-N or diagonalization
SolutionMethod        Diagon        # or Transiesta
ElectronicTemperature 300.0 K       # Default: 300.0 K
#(6) Molecular dynamics and relaxations
#MD.TypeOfRun          CG            # Type of dynamics:
#MD.VariableCell       F
#MD.NumCGsteps         0           # 0 for single-point / 100 for gopt
#MD.MaxCGDispl         0.2 Bohr      # Default: 0.2 Bohr
#MD.MaxForceTol        0.02 eV/Ang   # Default: 0.04 eV/Ang
#MD.MaxStressTol       1.0 GPa       # Default: 1.0 GPa
# Geometry Constraints
#%block GeometryConstraints
#	position from 1 to 44
#%endblock GeometryConstraints
BandLinesScale   pi/a
%block BandLines
 1   0.00000000  0.00000000  0.00000000
50   0.00000000  0.07809418  0.00000000
50   0.04509075  0.07809242  0.00000000
20   0.00000000  0.00000000  0.00000000
%endblock BandLines
************************** End of input data file *****************************

reinit: -----------------------------------------------------------------------
reinit: System Name: GRP_doping
reinit: -----------------------------------------------------------------------
reinit: System Label: GRP_doping                                                  
reinit: -----------------------------------------------------------------------

initatom: Reading input for the pseudopotentials and atomic orbitals ----------
 Species number:            1  Label: B Atomic number:           5
 Species number:            2  Label: C Atomic number:           6
Ground state valence configuration:   2s02  2p01
Reading pseudopotential information in formatted form from B.psf

Valence configuration for pseudopotential generation:
2s( 2.00) rc: 1.74
2p( 1.00) rc: 1.74
3d( 0.00) rc: 1.74
4f( 0.00) rc: 1.74
Ground state valence configuration:   2s02  2p02
Reading pseudopotential information in formatted form from C.psf

Valence configuration for pseudopotential generation:
2s( 2.00) rc: 1.54
2p( 2.00) rc: 1.54
3d( 0.00) rc: 1.54
4f( 0.00) rc: 1.54
For B, standard SIESTA heuristics set lmxkb to 3
 (one more than the basis l, including polarization orbitals).
Use PS.lmax or PS.KBprojectors blocks to override.
For C, standard SIESTA heuristics set lmxkb to 3
 (one more than the basis l, including polarization orbitals).
Use PS.lmax or PS.KBprojectors blocks to override.

<basis_specs>
===============================================================================
B                    Z=   5    Mass=  10.810        Charge= 0.17977+309
Lmxo=1 Lmxkb= 3    BasisType=split      Semic=F
L=0  Nsemic=0  Cnfigmx=2
          n=1  nzeta=2  polorb=0
            splnorm:   0.15000    
               vcte:    0.0000    
               rinn:    0.0000    
                rcs:    0.0000      0.0000    
            lambdas:    1.0000      1.0000    
L=1  Nsemic=0  Cnfigmx=2
          n=1  nzeta=2  polorb=1
            splnorm:   0.15000    
               vcte:    0.0000    
               rinn:    0.0000    
                rcs:    0.0000      0.0000    
            lambdas:    1.0000      1.0000    
-------------------------------------------------------------------------------
L=0  Nkbl=1  erefs: 0.17977+309
L=1  Nkbl=1  erefs: 0.17977+309
L=2  Nkbl=1  erefs: 0.17977+309
L=3  Nkbl=1  erefs: 0.17977+309
===============================================================================
</basis_specs>

atom: Called for B                     (Z =   5)

read_vps: Pseudopotential generation method:
read_vps: ATM3      Troullier-Martins                       
Total valence charge:    3.00000

read_vps: Pseudopotential includes a core correction:
read_vps: Pseudo-core for xc-correction

xc_check: Exchange-correlation functional:
xc_check: GGA Perdew, Burke & Ernzerhof 1996
V l=0 = -2*Zval/r beyond r=  1.7165
V l=1 = -2*Zval/r beyond r=  1.7165
V l=2 = -2*Zval/r beyond r=  1.7165
V l=3 = -2*Zval/r beyond r=  1.6951
All V_l potentials equal beyond r=  1.7165
This should be close to max(r_c) in ps generation
All pots = -2*Zval/r beyond r=  1.7165

VLOCAL1: 99.0% of the norm of Vloc inside     14.733 Ry
VLOCAL1: 99.9% of the norm of Vloc inside     33.577 Ry
atom: Maximum radius for 4*pi*r*r*local-pseudopot. charge    2.04484
atom: Maximum radius for r*vlocal+2*Zval:    1.75994
GHOST: No ghost state for L =  0
GHOST: No ghost state for L =  1
GHOST: No ghost state for L =  2
GHOST: No ghost state for L =  3

KBgen: Kleinman-Bylander projectors: 
   l= 0   rc=  1.897051   el= -0.693730   Ekb=  4.595746   kbcos=  0.286105
   l= 1   rc=  1.920920   el= -0.265236   Ekb= -2.350715   kbcos= -0.315747
   l= 2   rc=  2.044840   el=  0.002055   Ekb= -0.690767   kbcos= -0.013822
   l= 3   rc=  2.149707   el=  0.003188   Ekb= -0.315358   kbcos= -0.002055

KBgen: Total number of  Kleinman-Bylander projectors:   16
atom: -------------------------------------------------------------------------

atom: SANKEY-TYPE ORBITALS:
atom: Selected multiple-zeta basis: split     

SPLIT: Orbitals with angular momentum L= 0

SPLIT: Basis orbitals for state 2s

SPLIT: PAO cut-off radius determined from an
SPLIT: energy shift=  0.007350 Ry

   izeta = 1
                 lambda =    1.000000
                     rc =    5.422032
                 energy =   -0.686029
                kinetic =    0.576707
    potential(screened) =   -1.262736
       potential(ionic) =   -3.271094

   izeta = 2
                 rmatch =    4.222573
              splitnorm =    0.150000
                 energy =   -0.602132
                kinetic =    0.858975
    potential(screened) =   -1.461107
       potential(ionic) =   -3.582536

SPLIT: Orbitals with angular momentum L= 1

SPLIT: Basis orbitals for state 2p

SPLIT: PAO cut-off radius determined from an
SPLIT: energy shift=  0.007350 Ry

   izeta = 1
                 lambda =    1.000000
                     rc =    6.790259
                 energy =   -0.258578
                kinetic =    1.481412
    potential(screened) =   -1.739989
       potential(ionic) =   -3.657461

   izeta = 2
                 rmatch =    4.608740
              splitnorm =    0.150000
                 energy =   -0.173757
                kinetic =    2.186690
    potential(screened) =   -2.360447
       potential(ionic) =   -4.464260

POLgen: Perturbative polarization orbital with L=  2

POLgen: Polarization orbital for state 2p

   izeta = 1
                     rc =    6.790259
                 energy =    0.684082
                kinetic =    1.471481
    potential(screened) =   -0.787399
       potential(ionic) =   -2.406985
atom: Total number of Sankey-type orbitals: 13

atm_pop: Valence configuration (for local Pseudopot. screening):
 2s( 2.00)                                                            
 2p( 1.00)                                                            
Vna: chval, zval:    3.00000   3.00000

Vna:  Cut-off radius for the neutral-atom potential:   6.790259
comcore: Pseudo-core radius Rcore=  2.122997

atom: _________________________________________________________________________

<basis_specs>
===============================================================================
C                    Z=   6    Mass=  12.010        Charge= 0.17977+309
Lmxo=1 Lmxkb= 3    BasisType=split      Semic=F
L=0  Nsemic=0  Cnfigmx=2
          n=1  nzeta=2  polorb=0
            splnorm:   0.15000    
               vcte:    0.0000    
               rinn:    0.0000    
                rcs:    0.0000      0.0000    
            lambdas:    1.0000      1.0000    
L=1  Nsemic=0  Cnfigmx=2
          n=1  nzeta=2  polorb=1
            splnorm:   0.15000    
               vcte:    0.0000    
               rinn:    0.0000    
                rcs:    0.0000      0.0000    
            lambdas:    1.0000      1.0000    
-------------------------------------------------------------------------------
L=0  Nkbl=1  erefs: 0.17977+309
L=1  Nkbl=1  erefs: 0.17977+309
L=2  Nkbl=1  erefs: 0.17977+309
L=3  Nkbl=1  erefs: 0.17977+309
===============================================================================
</basis_specs>

atom: Called for C                     (Z =   6)

read_vps: Pseudopotential generation method:
read_vps: ATM3      Troullier-Martins                       
Total valence charge:    4.00000

read_vps: Pseudopotential includes a core correction:
read_vps: Pseudo-core for xc-correction

xc_check: Exchange-correlation functional:
xc_check: GGA Perdew, Burke & Ernzerhof 1996
V l=0 = -2*Zval/r beyond r=  1.5227
V l=1 = -2*Zval/r beyond r=  1.5227
V l=2 = -2*Zval/r beyond r=  1.5227
V l=3 = -2*Zval/r beyond r=  1.5038
All V_l potentials equal beyond r=  1.5227
This should be close to max(r_c) in ps generation
All pots = -2*Zval/r beyond r=  1.5227

VLOCAL1: 99.0% of the norm of Vloc inside     18.722 Ry
VLOCAL1: 99.9% of the norm of Vloc inside     42.668 Ry
atom: Maximum radius for 4*pi*r*r*local-pseudopot. charge    1.83678
atom: Maximum radius for r*vlocal+2*Zval:    1.58088
GHOST: No ghost state for L =  0
GHOST: No ghost state for L =  1
GHOST: No ghost state for L =  2
GHOST: No ghost state for L =  3

KBgen: Kleinman-Bylander projectors: 
   l= 0   rc=  1.704034   el= -1.009801   Ekb=  5.335044   kbcos=  0.316824
   l= 1   rc=  1.704034   el= -0.388707   Ekb= -3.785862   kbcos= -0.366464
   l= 2   rc=  1.791422   el=  0.001971   Ekb= -0.970471   kbcos= -0.009212
   l= 3   rc=  1.859892   el=  0.003065   Ekb= -0.399525   kbcos= -0.001223

KBgen: Total number of  Kleinman-Bylander projectors:   16
atom: -------------------------------------------------------------------------

atom: SANKEY-TYPE ORBITALS:
atom: Selected multiple-zeta basis: split     

SPLIT: Orbitals with angular momentum L= 0

SPLIT: Basis orbitals for state 2s

SPLIT: PAO cut-off radius determined from an
SPLIT: energy shift=  0.007350 Ry

   izeta = 1
                 lambda =    1.000000
                     rc =    4.632753
                 energy =   -1.002270
                kinetic =    0.855760
    potential(screened) =   -1.858031
       potential(ionic) =   -5.417575

   izeta = 2
                 rmatch =    3.431921
              splitnorm =    0.150000
                 energy =   -0.867111
                kinetic =    1.300804
    potential(screened) =   -2.167915
       potential(ionic) =   -5.962684

SPLIT: Orbitals with angular momentum L= 1

SPLIT: Basis orbitals for state 2p

SPLIT: PAO cut-off radius determined from an
SPLIT: energy shift=  0.007350 Ry

   izeta = 1
                 lambda =    1.000000
                     rc =    5.658549
                 energy =   -0.381140
                kinetic =    2.399701
    potential(screened) =   -2.780841
       potential(ionic) =   -6.206085

   izeta = 2
                 rmatch =    3.653288
              splitnorm =    0.150000
                 energy =   -0.249149
                kinetic =    3.542762
    potential(screened) =   -3.791911
       potential(ionic) =   -7.581078

POLgen: Perturbative polarization orbital with L=  2

POLgen: Polarization orbital for state 2p

   izeta = 1
                     rc =    5.658549
                 energy =    1.109913
                kinetic =    2.304789
    potential(screened) =   -1.194876
       potential(ionic) =   -4.013592
atom: Total number of Sankey-type orbitals: 13

atm_pop: Valence configuration (for local Pseudopot. screening):
 2s( 2.00)                                                            
 2p( 2.00)                                                            
Vna: chval, zval:    4.00000   4.00000

Vna:  Cut-off radius for the neutral-atom potential:   5.658549
comcore: Pseudo-core radius Rcore=  1.791422

atom: _________________________________________________________________________

prinput: Basis input ----------------------------------------------------------

PAO.BasisType split     

%block ChemicalSpeciesLabel
    1    5 B                       # Species index, atomic number, species label
    2    6 C                       # Species index, atomic number, species label
%endblock ChemicalSpeciesLabel

%block PAO.Basis                 # Define Basis set
B                     2                    # Species label, number of l-shells
 n=2   0   2                         # n, l, Nzeta 
   5.422      4.223   
   1.000      1.000   
 n=2   1   2 P   1                   # n, l, Nzeta, Polarization, NzetaPol
   6.790      4.609   
   1.000      1.000   
C                     2                    # Species label, number of l-shells
 n=2   0   2                         # n, l, Nzeta 
   4.633      3.432   
   1.000      1.000   
 n=2   1   2 P   1                   # n, l, Nzeta, Polarization, NzetaPol
   5.659      3.653   
   1.000      1.000   
%endblock PAO.Basis

prinput: ----------------------------------------------------------------------

coor:   Atomic-coordinates input format  =     Fractional

siesta: Atomic coordinates (Bohr) and species
siesta:     -4.68258  21.41544   0.00000  1        1
siesta:     -2.35420  25.44831   0.00000  1        2
siesta:     -7.01096  22.75985   0.00000  1        3
siesta:     -0.02582  29.48119   0.00000  1        4
siesta:     -4.68258  26.79272   0.00000  1        5
siesta:      2.30256  33.51406   0.00000  1        6
siesta:     -2.35420  30.82560   0.00000  1        7
siesta:     -0.02582  34.85847   0.00000  1        8
siesta:     -0.02582   2.59549   0.00000  2        9
siesta:     -0.02582   5.28395   0.00000  2       10
siesta:     -2.35420  38.89134   0.00000  2       11
siesta:     -2.35420  41.57980   0.00000  2       12
siesta:      2.30256  38.89134   0.00000  2       13
siesta:      2.30256  41.57980   0.00000  2       14
siesta:      4.63094  34.85847   0.00000  2       15
siesta:      4.63094  37.54693   0.00000  2       16
siesta:      6.95932  30.82560   0.00000  2       17
siesta:      6.95932  33.51406   0.00000  2       18
siesta:      9.28770  26.79272   0.00000  2       19
siesta:      9.28770  29.48119   0.00000  2       20
siesta:     -4.68258  34.85847   0.00000  2       21
siesta:     -4.68258  37.54693   0.00000  2       22
siesta:      2.30256   6.62836   0.00000  2       23
siesta:      2.30256   9.31683   0.00000  2       24
siesta:      4.63094  10.66124   0.00000  2       25
siesta:      4.63094  13.34970   0.00000  2       26
siesta:      6.95932  14.69411   0.00000  2       27
siesta:      6.95932  17.38257   0.00000  2       28
siesta:      9.28770  18.72698   0.00000  2       29
siesta:      9.28770  21.41544   0.00000  2       30
siesta:     11.61608  22.75985   0.00000  2       31
siesta:     11.61608  25.44831   0.00000  2       32
siesta:     -2.35420   6.62836   0.00000  2       33
siesta:     -2.35420   9.31683   0.00000  2       34
siesta:     -0.02582  10.66124   0.00000  2       35
siesta:     -0.02582  13.34970   0.00000  2       36
siesta:      2.30256  14.69411   0.00000  2       37
siesta:      2.30256  17.38257   0.00000  2       38
siesta:      4.63094  18.72698   0.00000  2       39
siesta:      4.63094  21.41544   0.00000  2       40
siesta:      6.95932  22.75985   0.00000  2       41
siesta:      6.95932  25.44831   0.00000  2       42
siesta:     -4.68258  10.66124   0.00000  2       43
siesta:     -4.68258  13.34970   0.00000  2       44
siesta:     -2.35420  14.69411   0.00000  2       45
siesta:     -2.35420  17.38257   0.00000  2       46
siesta:     -0.02582  18.72698   0.00000  2       47
siesta:     -0.02582  21.41544   0.00000  2       48
siesta:      2.30256  22.75985   0.00000  2       49
siesta:      2.30256  25.44831   0.00000  2       50
siesta:     -7.01096  14.69411   0.00000  2       51
siesta:     -7.01096  17.38257   0.00000  2       52
siesta:     -4.68258  18.72698   0.00000  2       53
siesta:     -2.35420  22.75985   0.00000  2       54
siesta:     -9.33934  18.72698   0.00000  2       55
siesta:     -9.33934  21.41544   0.00000  2       56
siesta:     -7.01096  25.44831   0.00000  2       57
siesta:    -11.66772  22.75985   0.00000  2       58
siesta:    -11.66772  25.44831   0.00000  2       59
siesta:     -9.33934  26.79272   0.00000  2       60
siesta:     -9.33934  29.48119   0.00000  2       61
siesta:      4.63094  26.79272   0.00000  2       62
siesta:      4.63094  29.48119   0.00000  2       63
siesta:     -0.02582  26.79272   0.00000  2       64
siesta:     -4.68258  29.48119   0.00000  2       65
siesta:      2.30256  30.82560   0.00000  2       66
siesta:     -2.35420  33.51406   0.00000  2       67
siesta:     -7.01096  30.82560   0.00000  2       68
siesta:     -7.01096  33.51406   0.00000  2       69
siesta:     -0.02582  37.54693   0.00000  2       70
siesta:     -0.02582  42.92421   0.00000  2       71
siesta:     -0.02582  45.61267   0.00000  2       72

siesta: System type = slab      

initatomlists: Number of atoms, orbitals, and projectors:     72   936  1152

siesta: ******************** Simulation parameters ****************************
siesta:
siesta: The following are some of the parameters of the simulation.
siesta: A complete list of the parameters used, including default values,
siesta: can be found in file out.fdf
siesta:
redata: Non-Collinear-spin run           =     F
redata: SpinPolarized (Up/Down) run      =     F
redata: Number of spin components        =     1
redata: Long output                      =     F
redata: Number of Atomic Species         =        2
redata: Charge density info will appear in .RHO file
redata: Write Mulliken Pop.              =     NO
redata: Mesh Cutoff                      =   200.0000  Ry
redata: Net charge of the system         =     0.0000 |e|
redata: Max. number of SCF Iter          =      500
redata: SCF convergence failure will abort job
redata: Performing Pulay mixing using    =    10 iterations
redata: Mix DM in first SCF step ?       =     F
redata: Write Pulay info on disk?        =     F
redata: Discard 1st Pulay DM after  kick =     F
redata: New DM Mixing Weight             =     0.0500
redata: New DM Occupancy tolerance       = 0.000000000001
redata: No kicks to SCF
redata: DM Mixing Weight for Kicks       =     0.5000
redata: DM Tolerance for SCF             =     0.000100
redata: Require Energy convergence for SCF =     F
redata: DM Energy tolerance for SCF      =     0.000100 eV
redata: Require Harris convergence for SCF =     F
redata: DM Harris energy tolerance for SCF =     0.000100 eV
redata: Using Saved Data (generic)   =     F
redata: Use continuation files for DM    =     T
redata: Neglect nonoverlap interactions  =     F
redata: Method of Calculation            =     Diagonalization
redata: Divide and Conquer               =     T
redata: Electronic Temperature           =     0.0019  Ry
redata: Fix the spin of the system       =     F
redata: Dynamics option                  =     Verlet MD run
redata: Initial MD time step             =        1
redata:   Final MD time step             =        1
redata: Length of MD time step           =     1.0000  fs
redata: Initial Temperature of MD run    =     0.0000  K
redata: Perform a MD quench              =     F
redata: ***********************************************************************
Total number of electrons:   280.000000
Total ionic charge:   280.000000

* ProcessorY, Blocksize:    3  24

k-point displ. along   1 input, could be:     0.50    0.00
k-point displ. along   2 input, could be:     0.50    0.00
 Kpoints in:          231 . Kpoints trimmed:          231

siesta: k-grid: Number of k-points =   231
siesta: k-grid: Cutoff (effective) =     5.000 Ang
siesta: k-grid: Supercell and displacements
siesta: k-grid:   21   0   0      0.500
siesta: k-grid:    0  21   0      0.500
siesta: k-grid:    0   0   1      0.000
Naive supercell factors:     2    2    2

superc: Internal auxiliary supercell:     2 x     2 x     2  =       8
superc: Number of atoms, orbitals, and projectors:    576   7488   9216

* Maximum dynamic memory allocated =     4 MB

siesta:                 ==============================
                            Begin MD step =      1
                        ==============================

superc: Internal auxiliary supercell:     2 x     2 x     2  =       8
superc: Number of atoms, orbitals, and projectors:    576   7488   9216

outcell: Unit cell vectors (Ang):
       12.804619    7.392750    0.000000
        0.000000   14.785500    0.000000
        0.000000    0.000000   10.000000

outcell: Cell vector modules (Ang)   :   14.785500   14.785500   10.000000
outcell: Cell angles (23,13,12) (deg):     90.0000     90.0000     60.0000
outcell: Cell volume (Ang**3)        :   1893.2269
New_DM. Step:     1
Initializing Density Matrix...

InitMesh: MESH =   120 x   120 x    90 =     1296000
InitMesh: Mesh cutoff (required, used) =   200.000   223.865 Ry

* Maximum dynamic memory allocated =   153 MB

stepf: Fermi-Dirac step function

siesta: Program's energy decomposition (eV):
siesta: Ebs     =     -5736.413513
siesta: Eions   =     17378.557381
siesta: Ena     =      4521.432106
siesta: Ekin    =      5956.271858
siesta: Enl     =       697.321546
siesta: DEna    =        -0.000012
siesta: DUscf   =         0.000000
siesta: DUext   =         0.000000
siesta: Exc     =     -4177.204250
siesta: eta*DQ  =         0.000000
siesta: Emadel  =         0.000000
siesta: Emeta   =         0.000000
siesta: Emolmec =         0.000000
siesta: Ekinion =         0.000000
siesta: Eharris =    -10102.500101
siesta: Etot    =    -10380.736134
siesta: FreeEng =    -10380.736134

siesta: iscf   Eharris(eV)      E_KS(eV)   FreeEng(eV)   dDmax  Ef(eV)
siesta:    1   -10102.5001   -10380.7361   -10380.7361  6.5578 -8.0233
timer: Routine,Calls,Time,% = IterSCF        1    3028.344  99.59
elaps: Routine,Calls,Wall,% = IterSCF        1     252.961  99.59
siesta:    2   -14261.7949    -9437.3499    -9437.4182 15.0076 -3.1278
siesta:    3   -10064.1013   -10207.7692   -10207.8238  2.8217 -6.2547
siesta:    4   -10035.5636   -10093.7741   -10093.7815  1.2577 -5.3244
siesta:    5    -9981.8943   -10040.1064   -10040.1087  1.1610 -5.2363
siesta:    6    -9967.4530    -9993.0354    -9993.0523  0.7775 -5.0345
siesta:    7    -9963.6351    -9984.0088    -9984.0753  0.7619 -5.0574
siesta:    8    -9959.1164    -9972.9942    -9973.0283  0.6901 -5.0527
siesta:    9    -9960.8057    -9947.7322    -9947.7608  0.5366 -4.9748
siesta:   10    -9958.6852    -9943.8224    -9943.8729  0.4443 -4.9476
siesta:   11    -9957.3254    -9942.2448    -9942.3233  0.3775 -4.9018
siesta:   12    -9956.8495    -9937.0326    -9937.1091  0.2152 -4.9082
siesta:   13    -9957.0745    -9932.1825    -9932.2383  0.1784 -4.8338
siesta:   14    -9956.4436    -9937.0457    -9937.0724  0.1403 -4.8343
siesta:   15    -9955.8162    -9939.3014    -9939.3138  0.1236 -4.8860
siesta:   16    -9955.6824    -9943.7250    -9943.7402  0.1236 -4.9004
siesta:   17    -9955.5215    -9945.7801    -9945.7910  0.1022 -4.9179
siesta:   18    -9955.4827    -9948.9374    -9948.9613  0.0572 -4.9400
siesta:   19    -9955.4571    -9952.6998    -9952.7267  0.0481 -4.9515
siesta:   20    -9955.4400    -9953.0534    -9953.0754  0.0440 -4.9466
siesta:   21    -9955.4143    -9953.8769    -9953.8986  0.0296 -4.9322
siesta:   22    -9955.4304    -9955.0801    -9955.1036  0.0287 -4.9268
siesta:   23    -9955.4222    -9955.4632    -9955.4804  0.0207 -4.9266
siesta:   24    -9955.4139    -9955.9313    -9955.9511  0.0110 -4.9301
siesta:   25    -9955.4106    -9956.0494    -9956.0714  0.0095 -4.9287
siesta:   26    -9955.4103    -9956.0748    -9956.0983  0.0061 -4.9275
siesta:   27    -9955.4100    -9956.0495    -9956.0718  0.0049 -4.9273
siesta:   28    -9955.4099    -9955.9071    -9955.9296  0.0038 -4.9291
siesta:   29    -9955.4093    -9955.8215    -9955.8439  0.0027 -4.9303
siesta:   30    -9955.4096    -9955.7314    -9955.7543  0.0030 -4.9301
siesta:   31    -9955.4093    -9955.6356    -9955.6583  0.0018 -4.9296
siesta:   32    -9955.4094    -9955.5225    -9955.5453  0.0009 -4.9290
siesta:   33    -9955.4093    -9955.4854    -9955.5081  0.0007 -4.9288
siesta:   34    -9955.4093    -9955.4487    -9955.4715  0.0005 -4.9287
siesta:   35    -9955.4092    -9955.4345    -9955.4573  0.0003 -4.9286
siesta:   36    -9955.4093    -9955.4185    -9955.4413  0.0002 -4.9285
siesta:   37    -9955.4093    -9955.4096    -9955.4324  0.0002 -4.9286
siesta:   38    -9955.4092    -9955.4055    -9955.4283  0.0001 -4.9286
siesta:   39    -9955.4092    -9955.4034    -9955.4262  0.0001 -4.9286

siesta: E_KS(eV) =            -9955.4021

siesta: E_KS - E_eggbox =     -9955.4021

siesta: Atomic forces (eV/Ang):
----------------------------------------
   Tot   -0.171853   -0.059708    0.000000
----------------------------------------
   Max  562.456245
   Res  153.037806    sqrt( Sum f_i^2 / 3N )
----------------------------------------
   Max  562.456245    constrained

Stress-tensor-Voigt (kbar):     -734.81    -2708.38       -0.39        9.02        0.00        0.00
(Free)E + p*V (eV/cell)    -8599.0614
Target enthalpy (eV/cell)    -9955.4250

siesta: Stress tensor (static) (eV/Ang**3):
        -0.458624    0.005630    0.000000
         0.005630   -1.690421    0.000000
         0.000000    0.000000   -0.000243

siesta: Pressure (static):       1147.85897879  kBar

siesta: Stress tensor (total) (eV/Ang**3):
        -0.458624    0.005630    0.000000
         0.005630   -1.690421    0.000000
         0.000000    0.000000   -0.000243

siesta: Pressure (total):       1147.85897879  kBar

siesta: Temp_ion =       0.000 K

* Maximum dynamic memory allocated =   166 MB
Computing bands...

siesta: Program's energy decomposition (eV):
siesta: Ebs     =     -4413.665352
siesta: Eions   =     17378.557381
siesta: Ena     =      4521.432106
siesta: Ekin    =      8859.290746
siesta: Enl     =      -941.204070
siesta: DEna    =      -772.688386
siesta: DUscf   =       102.634174
siesta: DUext   =         0.000000
siesta: Exc     =     -4346.309331
siesta: eta*DQ  =         0.000000
siesta: Emadel  =         0.000000
siesta: Emeta   =         0.000000
siesta: Emolmec =         0.000000
siesta: Ekinion =         0.000000
siesta: Eharris =     -9955.409249
siesta: Etot    =     -9955.402143
siesta: FreeEng =     -9955.424999

siesta: Final energy (eV):
siesta:  Band Struct. =   -4413.665352
siesta:       Kinetic =    8859.290746
siesta:       Hartree =   28883.620338
siesta:    Ext. field =       0.000000
siesta:   Exch.-corr. =   -4346.309331
siesta:  Ion-electron =  -66315.660794
siesta:       Ion-ion =   22963.656899
siesta:       Ekinion =       0.000000
siesta:         Total =   -9955.402143

siesta: Atomic forces (eV/Ang):
siesta:      1    3.934667   -2.013026    0.000000
siesta:      2    4.970804   -1.340671    0.000000
siesta:      3   -3.585587    2.691171    0.000000
siesta:      4    2.033628 -414.424279    0.000000
siesta:      5   -4.098555    2.181201    0.000000
siesta:      6   19.511802 -399.686616    0.000000
siesta:      7  -20.459232    1.255530    0.000000
siesta:      8    2.498868  107.449511    0.000000
siesta:      9    0.480519  407.666375    0.000000
siesta:     10    0.206838 -126.862379    0.000000
siesta:     11    2.171961  127.776639    0.000000
siesta:     12  -18.623925 -547.645103    0.000000
siesta:     13   -1.386650  125.576768    0.000000
siesta:     14   15.365569 -549.786400    0.000000
siesta:     15   25.516365   -0.967748    0.000000
siesta:     16   27.552149 -550.230205    0.000000
siesta:     17    2.272337   -0.286443    0.000000
siesta:     18   -2.289934    2.622545    0.000000
siesta:     19    2.521785    1.500993    0.000000
siesta:     20   -1.294098    0.739121    0.000000
siesta:     21  -26.067814    3.760620    0.000000
siesta:     22  -31.728352 -548.553513    0.000000
siesta:     23   15.278484  400.986839    0.000000
siesta:     24   -2.461959 -125.168733    0.000000
siesta:     25   36.923591  551.960844    0.000000
siesta:     26   26.981647   -6.866621    0.000000
siesta:     27   -2.393157   -1.483342    0.000000
siesta:     28    1.654615    0.016413    0.000000
siesta:     29   -0.833151   -0.553082    0.000000
siesta:     30    2.518768   -1.791068    0.000000
siesta:     31   -0.390224    7.095723    0.000000
siesta:     32   -0.449303   -7.105292    0.000000
siesta:     33  -22.609320  556.034324    0.000000
siesta:     34    2.152913 -130.389572    0.000000
siesta:     35   -4.079835  551.934595    0.000000
siesta:     36    0.964005 -130.139592    0.000000
siesta:     37   22.324334  558.217006    0.000000
siesta:     38   22.244245   -6.419889    0.000000
siesta:     39   -0.636092    2.767038    0.000000
siesta:     40    0.492769   -0.467537    0.000000
siesta:     41   -0.356639    0.491316    0.000000
siesta:     42   -0.372713   -0.496143    0.000000
siesta:     43  -34.802956  549.017077    0.000000
siesta:     44  -26.635320   -6.174958    0.000000
siesta:     45  -21.200580  556.502702    0.000000
siesta:     46  -22.654453   -6.295103    0.000000
siesta:     47    0.049644  562.456245    0.000000
siesta:     48   -0.089074    1.960932    0.000000
siesta:     49   -0.391621   -0.680951    0.000000
siesta:     50   -1.064627    0.480095    0.000000
siesta:     51    2.512891   -1.570236    0.000000
siesta:     52   -1.494846   -1.451375    0.000000
siesta:     53    1.062179   -2.038346    0.000000
siesta:     54    3.804128   -2.992701    0.000000
siesta:     55    1.293141    0.196735    0.000000
siesta:     56   -6.910928   -3.904421    0.000000
siesta:     57   -2.174099    1.086154    0.000000
siesta:     58    0.551382    6.952872    0.000000
siesta:     59    0.153822   -6.616197    0.000000
siesta:     60   -3.263410    1.298287    0.000000
siesta:     61    1.881527    0.850679    0.000000
siesta:     62    0.626805   -0.115382    0.000000
siesta:     63   -1.129939   -1.893021    0.000000
siesta:     64    3.222484   -1.138273    0.000000
siesta:     65    0.040519    1.655935    0.000000
siesta:     66   21.723460    1.352086    0.000000
siesta:     67  -15.158293 -550.972412    0.000000
siesta:     68   -3.626792    0.933063    0.000000
siesta:     69    2.284040    2.126002    0.000000
siesta:     70    4.313660 -541.996961    0.000000
siesta:     71    0.195317  129.404847    0.000000
siesta:     72    0.253963 -548.540393    0.000000
siesta: ----------------------------------------
siesta:    Tot   -0.171853   -0.059708    0.000000

siesta: Stress tensor (static) (eV/Ang**3):
siesta:    -0.458624    0.005630    0.000000
siesta:     0.005630   -1.690421    0.000000
siesta:     0.000000    0.000000   -0.000243

siesta: Cell volume =       1893.226884 Ang**3

siesta: Pressure (static):
siesta:                Solid            Molecule  Units
siesta:           0.00780283          0.11786861  Ry/Bohr**3
siesta:           0.71642948         10.82229538  eV/Ang**3
siesta:        1147.85897879      17339.41620153  kBar
(Free)E+ p_basis*V_orbitals  =       -9922.159753
(Free)Eharris+ p_basis*V_orbitals  =       -9922.165609

siesta: Electric dipole (a.u.)  =    0.000000    0.000000    0.000000
siesta: Electric dipole (Debye) =    0.000000    0.000000    0.000000

* Maximum dynamic memory allocated : Node    0 =   166 MB
* Maximum dynamic memory allocated : Node    1 =    66 MB
* Maximum dynamic memory allocated : Node    2 =    68 MB
* Maximum dynamic memory allocated : Node    3 =   152 MB
* Maximum dynamic memory allocated : Node    4 =   155 MB
* Maximum dynamic memory allocated : Node    5 =    57 MB
* Maximum dynamic memory allocated : Node    6 =    59 MB
* Maximum dynamic memory allocated : Node    7 =   147 MB
* Maximum dynamic memory allocated : Node    8 =   144 MB
* Maximum dynamic memory allocated : Node    9 =    58 MB
* Maximum dynamic memory allocated : Node   10 =    59 MB
* Maximum dynamic memory allocated : Node   11 =   138 MB

* Maximum memory occured during matrixMtoO                    

timer: CPU execution times:
timer:  Routine       Calls   Time/call    Tot.time        %
timer:  siesta            1  115186.305  115186.305   100.00
timer:  Setup             1       3.416       3.416     0.00
timer:  bands             3     225.075     675.224     0.59
timer:  writewave         1       0.024       0.024     0.00
timer:  KSV_init          1       0.004       0.004     0.00
timer:  IterMD            1  114500.641  114500.641    99.40
timer:  hsparse           1       0.280       0.280     0.00
timer:  overlap           1       6.018       6.018     0.01
timer:  IterSCF          39    2932.242  114357.452    99.28
timer:  kinefsm           2       3.068       6.136     0.01
timer:  nlefsm            2      19.724      39.448     0.03
timer:  DHSCF            40      72.316    2892.660     2.51
timer:  DHSCF1            1       1.193       1.193     0.00
timer:  DHSCF2            1      32.049      32.049     0.03
timer:  REORD           322       0.002       0.764     0.00
timer:  POISON           41       0.449      18.421     0.02
timer:  DHSCF3           40      70.833    2833.317     2.46
timer:  rhoofd           40      15.539     621.544     0.54
timer:  cellXC           40       2.435      97.400     0.08
timer:  vmat             40      33.565    1342.616     1.17
timer:  MolMec            2       0.000       0.000     0.00
timer:  diagon           39    2858.781  111492.441    96.79
timer:  c-eigval       9130       5.569   50846.156    44.14
timer:  c-buildHS      9130       0.035     317.622     0.28
timer:  cdiag         18139       5.668  102803.187    89.25
timer:  cdiag1        18139       0.260    4710.349     4.09
timer:  cdiag2        18139       1.830   33202.355    28.82
timer:  cdiag3        18139       3.368   61088.420    53.03
timer:  cdiag4        18139       0.088    1596.774     1.39
timer:  c-eigvec       9009       5.833   52547.854    45.62
timer:  c-buildD       9009       0.969    8725.702     7.58
timer:  DHSCF4            1      25.826      25.826     0.02
timer:  dfscf             1      23.771      23.771     0.02
timer:  overfsm           1       0.310       0.310     0.00
timer:  optical           1       6.415       6.415     0.01
  

elaps: ELAPSED times:
elaps:  Routine       Calls   Time/call    Tot.time        %
elaps:  siesta            1    9621.393    9621.393   100.00
elaps:  Setup             1       0.285       0.285     0.00
elaps:  bands             3      18.816      56.449     0.59
elaps:  writewave         1       0.002       0.002     0.00
elaps:  KSV_init          1       0.000       0.000     0.00
elaps:  IterMD            1    9564.121    9564.121    99.40
elaps:  hsparse           1       0.029       0.029     0.00
elaps:  overlap           1       0.717       0.717     0.01
elaps:  IterSCF          39     244.927    9552.161    99.28
elaps:  kinefsm           2       0.367       0.734     0.01
elaps:  nlefsm            2       1.703       3.406     0.04
elaps:  DHSCF            40       6.096     243.826     2.53
elaps:  DHSCF1            1       0.102       0.102     0.00
elaps:  DHSCF2            1       2.675       2.675     0.03
elaps:  REORD           322       0.000       0.095     0.00
elaps:  POISON           41       0.038       1.557     0.02
elaps:  DHSCF3           40       5.917     236.680     2.46
elaps:  rhoofd           40       2.862     114.481     1.19
elaps:  cellXC           40       0.203       8.117     0.08
elaps:  vmat             40       2.804     112.171     1.17
elaps:  MolMec            2       0.000       0.000     0.00
elaps:  diagon           39     238.797    9313.094    96.80
elaps:  c-eigval       9130       0.465    4247.062    44.14
elaps:  c-buildHS      9130       0.004      34.500     0.36
elaps:  cdiag         18139       0.468    8495.915    88.30
elaps:  cdiag1        18139       0.021     386.346     4.02
elaps:  cdiag2        18139       0.153    2775.873    28.85
elaps:  cdiag3        18139       0.282    5110.571    53.12
elaps:  cdiag4        18139       0.007     126.727     1.32
elaps:  c-eigvec       9009       0.479    4313.501    44.83
elaps:  c-buildD       9009       0.089     804.434     8.36
elaps:  DHSCF4            1       4.317       4.317     0.04
elaps:  dfscf             1       4.061       4.061     0.04
elaps:  overfsm           1       0.035       0.035     0.00
elaps:  optical           1       0.000       0.000     0.00
  
>> End of run:   4-MAY-2016   7:07:14
