Siesta Version:                                        siesta-3.2-pl-3
Architecture  : x86_64-unknown-linux-gnu--unknown
Compiler flags: mpiifort -g -O2 -fPIC -xSSE4.1 -fp-model source -shared-intel 
PARALLEL version

* Running on   12 nodes in parallel
>> Start of run:   7-MAY-2016  11:42:22

                           ***********************       
                           *  WELCOME TO SIESTA  *       
                           ***********************       

reinit: Reading from standard input
************************** Dump of input data file ****************************
#(1) General system descriptors
SystemName            GRP_doping    # Descriptive name of the system
SystemLabel           GRP_doping    # Short name for naming files
%include STRUCT.fdf
%include KPT.fdf
%include BASIS.fdf
#%include TS.fdf # for transiesta calculation
#(4) DFT, Grid, SCF
XC.functional         GGA           # LDA or GGA (default = LDA)
XC.authors            PBE           # CA (Ceperley-Aldr) = PZ
                                    #    (Perdew-Zunger) - LDA - Default
                                    # PW92 (Perdew-Wang-92) - LDA
                                    # PBE (Perdew-Burke-Ernzerhof) - GGA
MeshCutoff            200.000000    Ry      # Default: 50.0 Ry ~ 0.444 Bohr
                                    #         100.0 Ry ~ 0.314 Bohr
MaxSCFIterations      500           # Default: 50
DM.MixingWeight       0.05          # Default: 0.25
DM.NumberPulay        10            # Default: 0
DM.PulayOnFile        F             # SystemLabel.P1, SystemLabel.P2
DM.Tolerance          1.d-4         # Default: 1.d-4
DM.UseSaveDM          .true.        # because of the bug
SCFMustConverge       .true.
NeglNonOverlapInt     F             # Default: F
#(5) Eigenvalue problem: order-N or diagonalization
SolutionMethod        Diagon        # or Transiesta
ElectronicTemperature 300.0 K       # Default: 300.0 K
#(6) Molecular dynamics and relaxations
#MD.TypeOfRun          CG            # Type of dynamics:
#MD.VariableCell       F
#MD.NumCGsteps         0           # 0 for single-point / 100 for gopt
#MD.MaxCGDispl         0.2 Bohr      # Default: 0.2 Bohr
#MD.MaxForceTol        0.02 eV/Ang   # Default: 0.04 eV/Ang
#MD.MaxStressTol       1.0 GPa       # Default: 1.0 GPa
# Geometry Constraints
#%block GeometryConstraints
#	position from 1 to 44
#%endblock GeometryConstraints
BandLinesScale   pi/a
%block BandLines
 1   0.00000000  0.00000000  0.00000000
50   0.00000000  0.07809418  0.00000000
50   0.04509075  0.07809242  0.00000000
20   0.00000000  0.00000000  0.00000000
%endblock BandLines
************************** End of input data file *****************************

reinit: -----------------------------------------------------------------------
reinit: System Name: GRP_doping
reinit: -----------------------------------------------------------------------
reinit: System Label: GRP_doping                                                  
reinit: -----------------------------------------------------------------------

initatom: Reading input for the pseudopotentials and atomic orbitals ----------
 Species number:            1  Label: N Atomic number:           7
 Species number:            2  Label: C Atomic number:           6
Ground state valence configuration:   2s02  2p03
Reading pseudopotential information in formatted form from N.psf

Valence configuration for pseudopotential generation:
2s( 2.00) rc: 1.48
2p( 3.00) rc: 1.48
3d( 0.00) rc: 1.48
4f( 0.00) rc: 1.48
Ground state valence configuration:   2s02  2p02
Reading pseudopotential information in formatted form from C.psf

Valence configuration for pseudopotential generation:
2s( 2.00) rc: 1.54
2p( 2.00) rc: 1.54
3d( 0.00) rc: 1.54
4f( 0.00) rc: 1.54
For N, standard SIESTA heuristics set lmxkb to 3
 (one more than the basis l, including polarization orbitals).
Use PS.lmax or PS.KBprojectors blocks to override.
For C, standard SIESTA heuristics set lmxkb to 3
 (one more than the basis l, including polarization orbitals).
Use PS.lmax or PS.KBprojectors blocks to override.

<basis_specs>
===============================================================================
N                    Z=   7    Mass=  14.010        Charge= 0.17977+309
Lmxo=1 Lmxkb= 3    BasisType=split      Semic=F
L=0  Nsemic=0  Cnfigmx=2
          n=1  nzeta=2  polorb=0
            splnorm:   0.15000    
               vcte:    0.0000    
               rinn:    0.0000    
                rcs:    0.0000      0.0000    
            lambdas:    1.0000      1.0000    
L=1  Nsemic=0  Cnfigmx=2
          n=1  nzeta=2  polorb=1
            splnorm:   0.15000    
               vcte:    0.0000    
               rinn:    0.0000    
                rcs:    0.0000      0.0000    
            lambdas:    1.0000      1.0000    
-------------------------------------------------------------------------------
L=0  Nkbl=1  erefs: 0.17977+309
L=1  Nkbl=1  erefs: 0.17977+309
L=2  Nkbl=1  erefs: 0.17977+309
L=3  Nkbl=1  erefs: 0.17977+309
===============================================================================
</basis_specs>

atom: Called for N                     (Z =   7)

read_vps: Pseudopotential generation method:
read_vps: ATM3      Troullier-Martins                       
Total valence charge:    5.00000

read_vps: Pseudopotential includes a core correction:
read_vps: Pseudo-core for xc-correction

xc_check: Exchange-correlation functional:
xc_check: GGA Perdew, Burke & Ernzerhof 1996
V l=0 = -2*Zval/r beyond r=  1.4606
V l=1 = -2*Zval/r beyond r=  1.4606
V l=2 = -2*Zval/r beyond r=  1.4606
V l=3 = -2*Zval/r beyond r=  1.4606
All V_l potentials equal beyond r=  1.4606
This should be close to max(r_c) in ps generation
All pots = -2*Zval/r beyond r=  1.4606

VLOCAL1: 99.0% of the norm of Vloc inside     20.347 Ry
VLOCAL1: 99.9% of the norm of Vloc inside     46.372 Ry
atom: Maximum radius for 4*pi*r*r*local-pseudopot. charge    1.76189
atom: Maximum radius for r*vlocal+2*Zval:    1.53550
GHOST: No ghost state for L =  0
GHOST: No ghost state for L =  1
GHOST: No ghost state for L =  2
GHOST: No ghost state for L =  3

KBgen: Kleinman-Bylander projectors: 
   l= 0   rc=  1.634559   el= -1.363963   Ekb=  5.296955   kbcos=  0.335621
   l= 1   rc=  1.614250   el= -0.521451   Ekb= -5.259161   kbcos= -0.433408
   l= 2   rc=  1.718383   el=  0.001991   Ekb= -1.271464   kbcos= -0.007566
   l= 3   rc=  1.761893   el=  0.003093   Ekb= -0.494769   kbcos= -0.001015

KBgen: Total number of  Kleinman-Bylander projectors:   16
atom: -------------------------------------------------------------------------

atom: SANKEY-TYPE ORBITALS:
atom: Selected multiple-zeta basis: split     

SPLIT: Orbitals with angular momentum L= 0

SPLIT: Basis orbitals for state 2s

SPLIT: PAO cut-off radius determined from an
SPLIT: energy shift=  0.007350 Ry

   izeta = 1
                 lambda =    1.000000
                     rc =    4.071465
                 energy =   -1.356470
                kinetic =    1.176977
    potential(screened) =   -2.533447
       potential(ionic) =   -8.057990

   izeta = 2
                 rmatch =    2.905100
              splitnorm =    0.150000
                 energy =   -1.158343
                kinetic =    1.813009
    potential(screened) =   -2.971352
       potential(ionic) =   -8.901931

SPLIT: Orbitals with angular momentum L= 1

SPLIT: Basis orbitals for state 2p

SPLIT: PAO cut-off radius determined from an
SPLIT: energy shift=  0.007350 Ry

   izeta = 1
                 lambda =    1.000000
                     rc =    4.972977
                 energy =   -0.513884
                kinetic =    3.441732
    potential(screened) =   -3.955616
       potential(ionic) =   -9.287901

   izeta = 2
                 rmatch =    3.054066
              splitnorm =    0.150000
                 energy =   -0.318226
                kinetic =    5.125348
    potential(screened) =   -5.443573
       potential(ionic) =  -11.380999

POLgen: Perturbative polarization orbital with L=  2

POLgen: Polarization orbital for state 2p

   izeta = 1
                     rc =    4.972977
                 energy =    1.607437
                kinetic =    3.268125
    potential(screened) =   -1.660688
       potential(ionic) =   -5.973652
atom: Total number of Sankey-type orbitals: 13

atm_pop: Valence configuration (for local Pseudopot. screening):
 2s( 2.00)                                                            
 2p( 3.00)                                                            
Vna: chval, zval:    5.00000   5.00000

Vna:  Cut-off radius for the neutral-atom potential:   4.972977
comcore: Pseudo-core radius Rcore=  1.554824

atom: _________________________________________________________________________

<basis_specs>
===============================================================================
C                    Z=   6    Mass=  12.010        Charge= 0.17977+309
Lmxo=1 Lmxkb= 3    BasisType=split      Semic=F
L=0  Nsemic=0  Cnfigmx=2
          n=1  nzeta=2  polorb=0
            splnorm:   0.15000    
               vcte:    0.0000    
               rinn:    0.0000    
                rcs:    0.0000      0.0000    
            lambdas:    1.0000      1.0000    
L=1  Nsemic=0  Cnfigmx=2
          n=1  nzeta=2  polorb=1
            splnorm:   0.15000    
               vcte:    0.0000    
               rinn:    0.0000    
                rcs:    0.0000      0.0000    
            lambdas:    1.0000      1.0000    
-------------------------------------------------------------------------------
L=0  Nkbl=1  erefs: 0.17977+309
L=1  Nkbl=1  erefs: 0.17977+309
L=2  Nkbl=1  erefs: 0.17977+309
L=3  Nkbl=1  erefs: 0.17977+309
===============================================================================
</basis_specs>

atom: Called for C                     (Z =   6)

read_vps: Pseudopotential generation method:
read_vps: ATM3      Troullier-Martins                       
Total valence charge:    4.00000

read_vps: Pseudopotential includes a core correction:
read_vps: Pseudo-core for xc-correction

xc_check: Exchange-correlation functional:
xc_check: GGA Perdew, Burke & Ernzerhof 1996
V l=0 = -2*Zval/r beyond r=  1.5227
V l=1 = -2*Zval/r beyond r=  1.5227
V l=2 = -2*Zval/r beyond r=  1.5227
V l=3 = -2*Zval/r beyond r=  1.5038
All V_l potentials equal beyond r=  1.5227
This should be close to max(r_c) in ps generation
All pots = -2*Zval/r beyond r=  1.5227

VLOCAL1: 99.0% of the norm of Vloc inside     18.722 Ry
VLOCAL1: 99.9% of the norm of Vloc inside     42.668 Ry
atom: Maximum radius for 4*pi*r*r*local-pseudopot. charge    1.83678
atom: Maximum radius for r*vlocal+2*Zval:    1.58088
GHOST: No ghost state for L =  0
GHOST: No ghost state for L =  1
GHOST: No ghost state for L =  2
GHOST: No ghost state for L =  3

KBgen: Kleinman-Bylander projectors: 
   l= 0   rc=  1.704034   el= -1.009801   Ekb=  5.335044   kbcos=  0.316824
   l= 1   rc=  1.704034   el= -0.388707   Ekb= -3.785862   kbcos= -0.366464
   l= 2   rc=  1.791422   el=  0.001971   Ekb= -0.970471   kbcos= -0.009212
   l= 3   rc=  1.859892   el=  0.003065   Ekb= -0.399525   kbcos= -0.001223

KBgen: Total number of  Kleinman-Bylander projectors:   16
atom: -------------------------------------------------------------------------

atom: SANKEY-TYPE ORBITALS:
atom: Selected multiple-zeta basis: split     

SPLIT: Orbitals with angular momentum L= 0

SPLIT: Basis orbitals for state 2s

SPLIT: PAO cut-off radius determined from an
SPLIT: energy shift=  0.007350 Ry

   izeta = 1
                 lambda =    1.000000
                     rc =    4.632753
                 energy =   -1.002270
                kinetic =    0.855760
    potential(screened) =   -1.858031
       potential(ionic) =   -5.417575

   izeta = 2
                 rmatch =    3.431921
              splitnorm =    0.150000
                 energy =   -0.867111
                kinetic =    1.300804
    potential(screened) =   -2.167915
       potential(ionic) =   -5.962684

SPLIT: Orbitals with angular momentum L= 1

SPLIT: Basis orbitals for state 2p

SPLIT: PAO cut-off radius determined from an
SPLIT: energy shift=  0.007350 Ry

   izeta = 1
                 lambda =    1.000000
                     rc =    5.658549
                 energy =   -0.381140
                kinetic =    2.399701
    potential(screened) =   -2.780841
       potential(ionic) =   -6.206085

   izeta = 2
                 rmatch =    3.653288
              splitnorm =    0.150000
                 energy =   -0.249149
                kinetic =    3.542762
    potential(screened) =   -3.791911
       potential(ionic) =   -7.581078

POLgen: Perturbative polarization orbital with L=  2

POLgen: Polarization orbital for state 2p

   izeta = 1
                     rc =    5.658549
                 energy =    1.109913
                kinetic =    2.304789
    potential(screened) =   -1.194876
       potential(ionic) =   -4.013592
atom: Total number of Sankey-type orbitals: 13

atm_pop: Valence configuration (for local Pseudopot. screening):
 2s( 2.00)                                                            
 2p( 2.00)                                                            
Vna: chval, zval:    4.00000   4.00000

Vna:  Cut-off radius for the neutral-atom potential:   5.658549
comcore: Pseudo-core radius Rcore=  1.791422

atom: _________________________________________________________________________

prinput: Basis input ----------------------------------------------------------

PAO.BasisType split     

%block ChemicalSpeciesLabel
    1    7 N                       # Species index, atomic number, species label
    2    6 C                       # Species index, atomic number, species label
%endblock ChemicalSpeciesLabel

%block PAO.Basis                 # Define Basis set
N                     2                    # Species label, number of l-shells
 n=2   0   2                         # n, l, Nzeta 
   4.071      2.905   
   1.000      1.000   
 n=2   1   2 P   1                   # n, l, Nzeta, Polarization, NzetaPol
   4.973      3.054   
   1.000      1.000   
C                     2                    # Species label, number of l-shells
 n=2   0   2                         # n, l, Nzeta 
   4.633      3.432   
   1.000      1.000   
 n=2   1   2 P   1                   # n, l, Nzeta, Polarization, NzetaPol
   5.659      3.653   
   1.000      1.000   
%endblock PAO.Basis

prinput: ----------------------------------------------------------------------

coor:   Atomic-coordinates input format  =     Fractional

siesta: Atomic coordinates (Bohr) and species
siesta:     -2.35420  38.89134   0.00000  1        1
siesta:      2.30256  38.89134   0.00000  1        2
siesta:     -4.68258  37.54693   0.00000  1        3
siesta:      2.30256   6.62836   0.00000  1        4
siesta:      2.30256   9.31683   0.00000  1        5
siesta:     -2.35420   9.31683   0.00000  1        6
siesta:     -0.02582  10.66124   0.00000  1        7
siesta:     -0.02582  13.34970   0.00000  1        8
siesta:     -0.02582  34.85847   0.00000  1        9
siesta:     -0.02582  37.54693   0.00000  1       10
siesta:     -0.02582   2.59549   0.00000  2       11
siesta:     -0.02582   5.28395   0.00000  2       12
siesta:     -2.35420  41.57980   0.00000  2       13
siesta:      2.30256  41.57980   0.00000  2       14
siesta:      4.63094  34.85847   0.00000  2       15
siesta:      4.63094  37.54693   0.00000  2       16
siesta:      6.95932  30.82560   0.00000  2       17
siesta:      6.95932  33.51406   0.00000  2       18
siesta:      9.28770  26.79272   0.00000  2       19
siesta:      9.28770  29.48119   0.00000  2       20
siesta:     -4.68258  34.85847   0.00000  2       21
siesta:      4.63094  10.66124   0.00000  2       22
siesta:      4.63094  13.34970   0.00000  2       23
siesta:      6.95932  14.69411   0.00000  2       24
siesta:      6.95932  17.38257   0.00000  2       25
siesta:      9.28770  18.72698   0.00000  2       26
siesta:      9.28770  21.41544   0.00000  2       27
siesta:     11.61608  22.75985   0.00000  2       28
siesta:     11.61608  25.44831   0.00000  2       29
siesta:     -2.35420   6.62836   0.00000  2       30
siesta:      2.30256  14.69411   0.00000  2       31
siesta:      2.30256  17.38257   0.00000  2       32
siesta:      4.63094  18.72698   0.00000  2       33
siesta:      4.63094  21.41544   0.00000  2       34
siesta:      6.95932  22.75985   0.00000  2       35
siesta:      6.95932  25.44831   0.00000  2       36
siesta:     -4.68258  10.66124   0.00000  2       37
siesta:     -4.68258  13.34970   0.00000  2       38
siesta:     -2.35420  14.69411   0.00000  2       39
siesta:     -2.35420  17.38257   0.00000  2       40
siesta:     -0.02582  18.72698   0.00000  2       41
siesta:     -0.02582  21.41544   0.00000  2       42
siesta:      2.30256  22.75985   0.00000  2       43
siesta:      2.30256  25.44831   0.00000  2       44
siesta:     -7.01096  14.69411   0.00000  2       45
siesta:     -7.01096  17.38257   0.00000  2       46
siesta:     -4.68258  18.72698   0.00000  2       47
siesta:     -4.68258  21.41544   0.00000  2       48
siesta:     -2.35420  22.75985   0.00000  2       49
siesta:     -2.35420  25.44831   0.00000  2       50
siesta:     -9.33934  18.72698   0.00000  2       51
siesta:     -9.33934  21.41544   0.00000  2       52
siesta:     -7.01096  22.75985   0.00000  2       53
siesta:     -7.01096  25.44831   0.00000  2       54
siesta:    -11.66772  22.75985   0.00000  2       55
siesta:    -11.66772  25.44831   0.00000  2       56
siesta:     -9.33934  26.79272   0.00000  2       57
siesta:     -9.33934  29.48119   0.00000  2       58
siesta:      4.63094  26.79272   0.00000  2       59
siesta:      4.63094  29.48119   0.00000  2       60
siesta:     -0.02582  26.79272   0.00000  2       61
siesta:     -0.02582  29.48119   0.00000  2       62
siesta:     -4.68258  26.79272   0.00000  2       63
siesta:     -4.68258  29.48119   0.00000  2       64
siesta:      2.30256  30.82560   0.00000  2       65
siesta:      2.30256  33.51406   0.00000  2       66
siesta:     -2.35420  30.82560   0.00000  2       67
siesta:     -2.35420  33.51406   0.00000  2       68
siesta:     -7.01096  30.82560   0.00000  2       69
siesta:     -7.01096  33.51406   0.00000  2       70
siesta:     -0.02582  42.92421   0.00000  2       71
siesta:     -0.02582  45.61267   0.00000  2       72

siesta: System type = slab      

initatomlists: Number of atoms, orbitals, and projectors:     72   936  1152

siesta: ******************** Simulation parameters ****************************
siesta:
siesta: The following are some of the parameters of the simulation.
siesta: A complete list of the parameters used, including default values,
siesta: can be found in file out.fdf
siesta:
redata: Non-Collinear-spin run           =     F
redata: SpinPolarized (Up/Down) run      =     F
redata: Number of spin components        =     1
redata: Long output                      =     F
redata: Number of Atomic Species         =        2
redata: Charge density info will appear in .RHO file
redata: Write Mulliken Pop.              =     NO
redata: Mesh Cutoff                      =   200.0000  Ry
redata: Net charge of the system         =     0.0000 |e|
redata: Max. number of SCF Iter          =      500
redata: SCF convergence failure will abort job
redata: Performing Pulay mixing using    =    10 iterations
redata: Mix DM in first SCF step ?       =     F
redata: Write Pulay info on disk?        =     F
redata: Discard 1st Pulay DM after  kick =     F
redata: New DM Mixing Weight             =     0.0500
redata: New DM Occupancy tolerance       = 0.000000000001
redata: No kicks to SCF
redata: DM Mixing Weight for Kicks       =     0.5000
redata: DM Tolerance for SCF             =     0.000100
redata: Require Energy convergence for SCF =     F
redata: DM Energy tolerance for SCF      =     0.000100 eV
redata: Require Harris convergence for SCF =     F
redata: DM Harris energy tolerance for SCF =     0.000100 eV
redata: Using Saved Data (generic)   =     F
redata: Use continuation files for DM    =     T
redata: Neglect nonoverlap interactions  =     F
redata: Method of Calculation            =     Diagonalization
redata: Divide and Conquer               =     T
redata: Electronic Temperature           =     0.0019  Ry
redata: Fix the spin of the system       =     F
redata: Dynamics option                  =     Verlet MD run
redata: Initial MD time step             =        1
redata:   Final MD time step             =        1
redata: Length of MD time step           =     1.0000  fs
redata: Initial Temperature of MD run    =     0.0000  K
redata: Perform a MD quench              =     F
redata: ***********************************************************************
Total number of electrons:   298.000000
Total ionic charge:   298.000000

* ProcessorY, Blocksize:    3  24

k-point displ. along   1 input, could be:     0.50    0.00
k-point displ. along   2 input, could be:     0.50    0.00
 Kpoints in:          231 . Kpoints trimmed:          231

siesta: k-grid: Number of k-points =   231
siesta: k-grid: Cutoff (effective) =     5.000 Ang
siesta: k-grid: Supercell and displacements
siesta: k-grid:   21   0   0      0.500
siesta: k-grid:    0  21   0      0.500
siesta: k-grid:    0   0   1      0.000
Naive supercell factors:     2    2    2

superc: Internal auxiliary supercell:     2 x     2 x     2  =       8
superc: Number of atoms, orbitals, and projectors:    576   7488   9216

* Maximum dynamic memory allocated =     4 MB

siesta:                 ==============================
                            Begin MD step =      1
                        ==============================

superc: Internal auxiliary supercell:     2 x     2 x     2  =       8
superc: Number of atoms, orbitals, and projectors:    576   7488   9216

outcell: Unit cell vectors (Ang):
       12.804619    7.392750    0.000000
        0.000000   14.785500    0.000000
        0.000000    0.000000   10.000000

outcell: Cell vector modules (Ang)   :   14.785500   14.785500   10.000000
outcell: Cell angles (23,13,12) (deg):     90.0000     90.0000     60.0000
outcell: Cell volume (Ang**3)        :   1893.2269
New_DM. Step:     1
Initializing Density Matrix...

InitMesh: MESH =   120 x   120 x    90 =     1296000
InitMesh: Mesh cutoff (required, used) =   200.000   223.865 Ry

* Maximum dynamic memory allocated =   135 MB

stepf: Fermi-Dirac step function

siesta: Program's energy decomposition (eV):
siesta: Ebs     =     -6116.124574
siesta: Eions   =     20010.479513
siesta: Ena     =      4825.281224
siesta: Ekin    =      7217.402668
siesta: Enl     =       294.509367
siesta: DEna    =        -0.000015
siesta: DUscf   =         0.000000
siesta: DUext   =         0.000000
siesta: Exc     =     -4433.105155
siesta: eta*DQ  =         0.000000
siesta: Emadel  =         0.000000
siesta: Emeta   =         0.000000
siesta: Emolmec =         0.000000
siesta: Ekinion =         0.000000
siesta: Eharris =    -11687.467301
siesta: Etot    =    -12106.391424
siesta: FreeEng =    -12106.391424

siesta: iscf   Eharris(eV)      E_KS(eV)   FreeEng(eV)   dDmax  Ef(eV)
siesta:    1   -11687.4673   -12106.3914   -12106.3914  8.8606 -7.4011
timer: Routine,Calls,Time,% = IterSCF        1    3002.553  99.59
elaps: Routine,Calls,Wall,% = IterSCF        1     250.806  99.59
siesta:    2   -12648.4975   -11372.2682   -11372.2726  8.6388  0.0543
siesta:    3   -11619.4067   -11768.3044   -11768.3518  1.3093 -4.4013
siesta:    4   -11602.7211   -11762.9018   -11762.9044  1.2477 -4.5302
siesta:    5   -11576.9751   -11743.1200   -11743.1425  1.1354 -4.2502
siesta:    6   -11575.5494   -11736.6471   -11736.6484  1.1293 -4.2310
siesta:    7   -11570.0453   -11668.1038   -11668.1141  0.7598 -4.2841
siesta:    8   -11566.2720   -11653.6320   -11653.6339  0.7295 -4.4439
siesta:    9   -11560.9979   -11628.2829   -11628.3000  0.4842 -4.3389
siesta:   10   -11560.5773   -11621.8711   -11621.8722  0.4566 -4.3383
siesta:   11   -11559.8799   -11583.7829   -11583.7839  0.3852 -4.3239
siesta:   12   -11560.3618   -11565.5250   -11565.6017  0.2911 -4.2495
siesta:   13   -11559.7249   -11568.9633   -11569.0495  0.1709 -4.2435
siesta:   14   -11559.1204   -11569.0384   -11569.1374  0.1515 -4.2897
siesta:   15   -11559.0145   -11563.2783   -11563.3178  0.1489 -4.3153
siesta:   16   -11558.7169   -11559.8540   -11559.9116  0.1045 -4.3303
siesta:   17   -11558.6118   -11558.4666   -11558.5381  0.0897 -4.3234
siesta:   18   -11558.6020   -11556.6665   -11556.7234  0.0852 -4.3180
siesta:   19   -11558.5473   -11556.4244   -11556.4552  0.0519 -4.3272
siesta:   20   -11558.5249   -11556.5305   -11556.5803  0.0656 -4.3364
siesta:   21   -11558.4992   -11556.9099   -11556.9566  0.0582 -4.3469
siesta:   22   -11558.4952   -11556.5330   -11556.5890  0.0511 -4.3473
siesta:   23   -11558.4948   -11556.9150   -11556.9670  0.0259 -4.3514
siesta:   24   -11558.4924   -11556.9808   -11557.0326  0.0121 -4.3485
siesta:   25   -11558.4920   -11557.1314   -11557.1844  0.0137 -4.3451
siesta:   26   -11558.4853   -11557.0845   -11557.1361  0.0111 -4.3412
siesta:   27   -11558.4863   -11557.0606   -11557.1165  0.0101 -4.3411
siesta:   28   -11558.4870   -11557.3571   -11557.4116  0.0062 -4.3450
siesta:   29   -11558.4878   -11557.6208   -11557.6744  0.0038 -4.3467
siesta:   30   -11558.4867   -11558.1205   -11558.1733  0.0021 -4.3459
siesta:   31   -11558.4864   -11558.2593   -11558.3129  0.0016 -4.3457
siesta:   32   -11558.4863   -11558.3334   -11558.3871  0.0008 -4.3460
siesta:   33   -11558.4864   -11558.3864   -11558.4403  0.0008 -4.3464
siesta:   34   -11558.4864   -11558.4426   -11558.4963  0.0005 -4.3466
siesta:   35   -11558.4863   -11558.4634   -11558.5171  0.0004 -4.3466
siesta:   36   -11558.4863   -11558.4779   -11558.5317  0.0003 -4.3465
siesta:   37   -11558.4863   -11558.4773   -11558.5311  0.0003 -4.3465
siesta:   38   -11558.4863   -11558.4797   -11558.5335  0.0001 -4.3464
siesta:   39   -11558.4863   -11558.4795   -11558.5333  0.0001 -4.3464

siesta: E_KS(eV) =           -11558.4794

siesta: E_KS - E_eggbox =    -11558.4794

siesta: Atomic forces (eV/Ang):
----------------------------------------
   Tot   -0.403716   -0.015478    0.000000
----------------------------------------
   Max  763.570235
   Res  177.158006    sqrt( Sum f_i^2 / 3N )
----------------------------------------
   Max  763.570235    constrained

Stress-tensor-Voigt (kbar):     -600.59    -3205.56       -0.22       -6.19        0.00        0.00
(Free)E + p*V (eV/cell)   -10059.2702
Target enthalpy (eV/cell)   -11558.5332

siesta: Stress tensor (static) (eV/Ang**3):
        -0.374857   -0.003862    0.000000
        -0.003862   -2.000732    0.000000
         0.000000    0.000000   -0.000137

siesta: Pressure (static):       1268.79141753  kBar

siesta: Stress tensor (total) (eV/Ang**3):
        -0.374857   -0.003862    0.000000
        -0.003862   -2.000732    0.000000
         0.000000    0.000000   -0.000137

siesta: Pressure (total):       1268.79141753  kBar

siesta: Temp_ion =       0.000 K

* Maximum dynamic memory allocated =   148 MB
Computing bands...

siesta: Program's energy decomposition (eV):
siesta: Ebs     =     -4884.671009
siesta: Eions   =     20010.479513
siesta: Ena     =      4825.281224
siesta: Ekin    =     10384.567012
siesta: Enl     =     -1448.890676
siesta: DEna    =      -798.619985
siesta: DUscf   =        99.724454
siesta: DUext   =         0.000000
siesta: Exc     =     -4610.061897
siesta: eta*DQ  =         0.000000
siesta: Emadel  =         0.000000
siesta: Emeta   =         0.000000
siesta: Emolmec =         0.000000
siesta: Ekinion =         0.000000
siesta: Eharris =    -11558.486346
siesta: Etot    =    -11558.479382
siesta: FreeEng =    -11558.533171

siesta: Final energy (eV):
siesta:  Band Struct. =   -4884.671009
siesta:       Kinetic =   10384.567012
siesta:       Hartree =   35052.411915
siesta:    Ext. field =       0.000000
siesta:   Exch.-corr. =   -4610.061897
siesta:  Ion-electron =  -80133.921001
siesta:       Ion-ion =   27748.524589
siesta:       Ekinion =       0.000000
siesta:         Total =  -11558.479382

siesta: Atomic forces (eV/Ang):
siesta:      1   -6.410473  131.258293    0.000000
siesta:      2    6.553829  126.714480    0.000000
siesta:      3  -28.234555 -662.098845    0.000000
siesta:      4   14.865246  655.623587    0.000000
siesta:      5   10.739253 -116.110330    0.000000
siesta:      6   -2.449397 -131.109971    0.000000
siesta:      7   -0.974612  763.212507    0.000000
siesta:      8   -1.136923 -113.811169    0.000000
siesta:      9   -4.830218  113.735354    0.000000
siesta:     10   -2.271023 -763.570235    0.000000
siesta:     11   -0.025969  547.179359    0.000000
siesta:     12   -1.818161 -127.966308    0.000000
siesta:     13    4.868828 -544.067442    0.000000
siesta:     14   -9.095238 -544.672167    0.000000
siesta:     15   28.355493    1.669409    0.000000
siesta:     16   15.745044 -556.949618    0.000000
siesta:     17    1.845630   -0.007064    0.000000
siesta:     18   -3.621805    1.935022    0.000000
siesta:     19    2.559602    2.203654    0.000000
siesta:     20   -1.207084   -0.023217    0.000000
siesta:     21  -27.032534   -0.520832    0.000000
siesta:     22   22.807018  559.015020    0.000000
siesta:     23   30.011802    0.121075    0.000000
siesta:     24   -3.070959   -2.132700    0.000000
siesta:     25    1.821221    0.036579    0.000000
siesta:     26   -1.352741    0.098363    0.000000
siesta:     27    2.585692   -2.196306    0.000000
siesta:     28   -0.108187    7.541902    0.000000
siesta:     29   -0.096113   -7.527982    0.000000
siesta:     30    1.856702  547.237575    0.000000
siesta:     31   33.807548  562.964136    0.000000
siesta:     32   23.002798   -6.218728    0.000000
siesta:     33   -0.743817    2.981488    0.000000
siesta:     34    1.073396   -0.758087    0.000000
siesta:     35   -0.659854    0.157252    0.000000
siesta:     36   -0.673292   -0.165907    0.000000
siesta:     37  -15.728781  660.587531    0.000000
siesta:     38  -28.247539    0.743637    0.000000
siesta:     39  -30.302954  567.257166    0.000000
siesta:     40  -23.135723   -6.164678    0.000000
siesta:     41   -0.199470  561.579265    0.000000
siesta:     42    0.011976    2.216507    0.000000
siesta:     43   -1.043964   -0.332277    0.000000
siesta:     44   -1.077961    0.318901    0.000000
siesta:     45    2.903528   -2.063360    0.000000
siesta:     46   -1.551813   -0.041664    0.000000
siesta:     47    0.792403    3.180132    0.000000
siesta:     48   -1.097213   -0.814466    0.000000
siesta:     49    1.058472   -0.259059    0.000000
siesta:     50    1.068017    0.253645    0.000000
siesta:     51    1.186710   -0.044431    0.000000
siesta:     52   -2.608795   -2.205537    0.000000
siesta:     53    0.649009    0.192970    0.000000
siesta:     54    0.602974   -0.229911    0.000000
siesta:     55    0.155817    7.630010    0.000000
siesta:     56    0.212695   -7.508590    0.000000
siesta:     57   -2.513614    2.078590    0.000000
siesta:     58    0.987066    0.129191    0.000000
siesta:     59    1.187088    0.737968    0.000000
siesta:     60   -1.062446   -3.063801    0.000000
siesta:     61    0.028452   -2.259190    0.000000
siesta:     62    0.003245 -562.965649    0.000000
siesta:     63   -1.113119    0.828027    0.000000
siesta:     64    0.806827   -3.237619    0.000000
siesta:     65   23.746819    5.697907    0.000000
siesta:     66   14.329171 -683.796166    0.000000
siesta:     67  -23.086450    6.619214    0.000000
siesta:     68  -25.490300 -568.517663    0.000000
siesta:     69   -1.392457    0.119250    0.000000
siesta:     70    2.991208    2.539108    0.000000
siesta:     71   -0.396280  124.679346    0.000000
siesta:     72    0.237540 -547.677930    0.000000
siesta: ----------------------------------------
siesta:    Tot   -0.403716   -0.015478    0.000000

siesta: Stress tensor (static) (eV/Ang**3):
siesta:    -0.374857   -0.003862    0.000000
siesta:    -0.003862   -2.000732    0.000000
siesta:     0.000000    0.000000   -0.000137

siesta: Cell volume =       1893.226884 Ang**3

siesta: Pressure (static):
siesta:                Solid            Molecule  Units
siesta:           0.00862490          0.13965025  Ry/Bohr**3
siesta:           0.79190875         12.82221137  eV/Ang**3
siesta:        1268.79141753      20543.66950070  kBar
(Free)E+ p_basis*V_orbitals  =      -11529.225189
(Free)Eharris+ p_basis*V_orbitals  =      -11529.232012

siesta: Electric dipole (a.u.)  =    0.000000    0.000000    0.000000
siesta: Electric dipole (Debye) =    0.000000    0.000000    0.000000

* Maximum dynamic memory allocated : Node    0 =   148 MB
* Maximum dynamic memory allocated : Node    1 =    58 MB
* Maximum dynamic memory allocated : Node    2 =    60 MB
* Maximum dynamic memory allocated : Node    3 =   134 MB
* Maximum dynamic memory allocated : Node    4 =   144 MB
* Maximum dynamic memory allocated : Node    5 =    53 MB
* Maximum dynamic memory allocated : Node    6 =    54 MB
* Maximum dynamic memory allocated : Node    7 =   137 MB
* Maximum dynamic memory allocated : Node    8 =   136 MB
* Maximum dynamic memory allocated : Node    9 =    54 MB
* Maximum dynamic memory allocated : Node   10 =    55 MB
* Maximum dynamic memory allocated : Node   11 =   129 MB

* Maximum memory occured during matrixMtoO                    

timer: CPU execution times:
timer:  Routine       Calls   Time/call    Tot.time        %
timer:  siesta            1  114504.314  114504.314   100.00
timer:  Setup             1       3.367       3.367     0.00
timer:  bands             3     225.431     676.294     0.59
timer:  writewave         1       0.023       0.023     0.00
timer:  KSV_init          1       0.002       0.002     0.00
timer:  IterMD            1  113817.664  113817.664    99.40
timer:  hsparse           1       0.165       0.165     0.00
timer:  overlap           1       6.346       6.346     0.01
timer:  IterSCF          39    2915.304  113696.857    99.29
timer:  kinefsm           2       3.224       6.448     0.01
timer:  nlefsm            2      18.718      37.437     0.03
timer:  DHSCF            40      59.953    2398.120     2.09
timer:  DHSCF1            1       0.900       0.900     0.00
timer:  DHSCF2            1      24.313      24.313     0.02
timer:  REORD           322       0.003       0.849     0.00
timer:  POISON           41       0.449      18.418     0.02
timer:  DHSCF3           40      58.778    2351.121     2.05
timer:  rhoofd           40      12.864     514.568     0.45
timer:  cellXC           40       2.526     101.035     0.09
timer:  vmat             40      27.531    1101.229     0.96
timer:  MolMec            2       0.000       0.000     0.00
timer:  diagon           39    2854.165  111312.431    97.21
timer:  c-eigval       9130       5.585   50988.093    44.53
timer:  c-buildHS      9130       0.034     307.311     0.27
timer:  cdiag         18139       5.683  103090.481    90.03
timer:  cdiag1        18139       0.260    4715.964     4.12
timer:  cdiag2        18139       1.838   33345.666    29.12
timer:  cdiag3        18139       3.376   61241.757    53.48
timer:  cdiag4        18139       0.088    1595.153     1.39
timer:  c-eigvec       9009       5.846   52662.896    45.99
timer:  c-buildD       9009       0.920    8289.495     7.24
timer:  DHSCF4            1      21.496      21.496     0.02
timer:  dfscf             1      20.066      20.066     0.02
timer:  overfsm           1       0.280       0.280     0.00
timer:  optical           1       6.375       6.375     0.01
  

elaps: ELAPSED times:
elaps:  Routine       Calls   Time/call    Tot.time        %
elaps:  siesta            1    9564.466    9564.466   100.00
elaps:  Setup             1       0.281       0.281     0.00
elaps:  bands             3      18.846      56.537     0.59
elaps:  writewave         1       0.002       0.002     0.00
elaps:  KSV_init          1       0.000       0.000     0.00
elaps:  IterMD            1    9507.112    9507.112    99.40
elaps:  hsparse           1       0.016       0.016     0.00
elaps:  overlap           1       0.712       0.712     0.01
elaps:  IterSCF          39     243.513    9497.020    99.29
elaps:  kinefsm           2       0.364       0.727     0.01
elaps:  nlefsm            2       1.650       3.300     0.03
elaps:  DHSCF            40       5.052     202.096     2.11
elaps:  DHSCF1            1       0.077       0.077     0.00
elaps:  DHSCF2            1       2.029       2.029     0.02
elaps:  REORD           322       0.000       0.096     0.00
elaps:  POISON           41       0.038       1.558     0.02
elaps:  DHSCF3           40       4.911     196.433     2.05
elaps:  rhoofd           40       2.242      89.679     0.94
elaps:  cellXC           40       0.211       8.425     0.09
elaps:  vmat             40       2.301      92.021     0.96
elaps:  MolMec            2       0.000       0.000     0.00
elaps:  diagon           39     238.413    9298.111    97.22
elaps:  c-eigval       9130       0.466    4258.953    44.53
elaps:  c-buildHS      9130       0.004      33.226     0.35
elaps:  cdiag         18139       0.470    8522.936    89.11
elaps:  cdiag1        18139       0.021     385.383     4.03
elaps:  cdiag2        18139       0.154    2787.857    29.15
elaps:  cdiag3        18139       0.282    5122.631    53.56
elaps:  cdiag4        18139       0.007     128.281     1.34
elaps:  c-eigvec       9009       0.480    4324.986    45.22
elaps:  c-buildD       9009       0.085     766.029     8.01
elaps:  DHSCF4            1       3.520       3.520     0.04
elaps:  dfscf             1       3.330       3.330     0.03
elaps:  overfsm           1       0.031       0.031     0.00
elaps:  optical           1       0.000       0.000     0.00
  
>> End of run:   7-MAY-2016  14:21:46
