Siesta Version:                                        siesta-3.2-pl-3
Architecture  : x86_64-unknown-linux-gnu--unknown
Compiler flags: mpiifort -g -O2 -fPIC -xSSE4.1 -fp-model source -shared-intel 
PARALLEL version

* Running on    8 nodes in parallel
>> Start of run:  22-APR-2016   4:18:12

                           ***********************       
                           *  WELCOME TO SIESTA  *       
                           ***********************       

reinit: Reading from standard input
************************** Dump of input data file ****************************
#(1) General system descriptors
SystemName            GRP_doping    # Descriptive name of the system
SystemLabel           GRP_doping    # Short name for naming files
%include STRUCT.fdf
%include KPT.fdf
%include BASIS.fdf
#%include TS.fdf # for transiesta calculation
#(4) DFT, Grid, SCF
XC.functional         GGA           # LDA or GGA (default = LDA)
XC.authors            PBE           # CA (Ceperley-Aldr) = PZ
                                    #    (Perdew-Zunger) - LDA - Default
                                    # PW92 (Perdew-Wang-92) - LDA
                                    # PBE (Perdew-Burke-Ernzerhof) - GGA
MeshCutoff            200.000000    Ry      # Default: 50.0 Ry ~ 0.444 Bohr
                                    #         100.0 Ry ~ 0.314 Bohr
MaxSCFIterations      500           # Default: 50
DM.MixingWeight       0.05          # Default: 0.25
DM.NumberPulay        10            # Default: 0
DM.PulayOnFile        F             # SystemLabel.P1, SystemLabel.P2
DM.Tolerance          1.d-4         # Default: 1.d-4
DM.UseSaveDM          .true.        # because of the bug
SCFMustConverge       .true.
NeglNonOverlapInt     F             # Default: F
#(5) Eigenvalue problem: order-N or diagonalization
SolutionMethod        Diagon        # or Transiesta
ElectronicTemperature 300.0 K       # Default: 300.0 K
#(6) Molecular dynamics and relaxations
#MD.TypeOfRun          CG            # Type of dynamics:
#MD.VariableCell       F
#MD.NumCGsteps         0           # 0 for single-point / 100 for gopt
#MD.MaxCGDispl         0.2 Bohr      # Default: 0.2 Bohr
#MD.MaxForceTol        0.02 eV/Ang   # Default: 0.04 eV/Ang
#MD.MaxStressTol       1.0 GPa       # Default: 1.0 GPa
# Geometry Constraints
#%block GeometryConstraints
#	position from 1 to 44
#%endblock GeometryConstraints
BandLinesScale   pi/a
%block BandLines
 1   0.00000000  0.00000000  0.00000000
50   0.00000000  0.07809418  0.00000000
50   0.04509075  0.07809242  0.00000000
20   0.00000000  0.00000000  0.00000000
%endblock BandLines
************************** End of input data file *****************************

reinit: -----------------------------------------------------------------------
reinit: System Name: GRP_doping
reinit: -----------------------------------------------------------------------
reinit: System Label: GRP_doping                                                  
reinit: -----------------------------------------------------------------------

initatom: Reading input for the pseudopotentials and atomic orbitals ----------
 Species number:            1  Label: N Atomic number:           7
 Species number:            2  Label: C Atomic number:           6
Ground state valence configuration:   2s02  2p03
Reading pseudopotential information in formatted form from N.psf

Valence configuration for pseudopotential generation:
2s( 2.00) rc: 1.48
2p( 3.00) rc: 1.48
3d( 0.00) rc: 1.48
4f( 0.00) rc: 1.48
Ground state valence configuration:   2s02  2p02
Reading pseudopotential information in formatted form from C.psf

Valence configuration for pseudopotential generation:
2s( 2.00) rc: 1.54
2p( 2.00) rc: 1.54
3d( 0.00) rc: 1.54
4f( 0.00) rc: 1.54
For N, standard SIESTA heuristics set lmxkb to 3
 (one more than the basis l, including polarization orbitals).
Use PS.lmax or PS.KBprojectors blocks to override.
For C, standard SIESTA heuristics set lmxkb to 3
 (one more than the basis l, including polarization orbitals).
Use PS.lmax or PS.KBprojectors blocks to override.

<basis_specs>
===============================================================================
N                    Z=   7    Mass=  14.010        Charge= 0.17977+309
Lmxo=1 Lmxkb= 3    BasisType=split      Semic=F
L=0  Nsemic=0  Cnfigmx=2
          n=1  nzeta=2  polorb=0
            splnorm:   0.15000    
               vcte:    0.0000    
               rinn:    0.0000    
                rcs:    0.0000      0.0000    
            lambdas:    1.0000      1.0000    
L=1  Nsemic=0  Cnfigmx=2
          n=1  nzeta=2  polorb=1
            splnorm:   0.15000    
               vcte:    0.0000    
               rinn:    0.0000    
                rcs:    0.0000      0.0000    
            lambdas:    1.0000      1.0000    
-------------------------------------------------------------------------------
L=0  Nkbl=1  erefs: 0.17977+309
L=1  Nkbl=1  erefs: 0.17977+309
L=2  Nkbl=1  erefs: 0.17977+309
L=3  Nkbl=1  erefs: 0.17977+309
===============================================================================
</basis_specs>

atom: Called for N                     (Z =   7)

read_vps: Pseudopotential generation method:
read_vps: ATM3      Troullier-Martins                       
Total valence charge:    5.00000

read_vps: Pseudopotential includes a core correction:
read_vps: Pseudo-core for xc-correction

xc_check: Exchange-correlation functional:
xc_check: GGA Perdew, Burke & Ernzerhof 1996
V l=0 = -2*Zval/r beyond r=  1.4606
V l=1 = -2*Zval/r beyond r=  1.4606
V l=2 = -2*Zval/r beyond r=  1.4606
V l=3 = -2*Zval/r beyond r=  1.4606
All V_l potentials equal beyond r=  1.4606
This should be close to max(r_c) in ps generation
All pots = -2*Zval/r beyond r=  1.4606

VLOCAL1: 99.0% of the norm of Vloc inside     20.347 Ry
VLOCAL1: 99.9% of the norm of Vloc inside     46.372 Ry
atom: Maximum radius for 4*pi*r*r*local-pseudopot. charge    1.76189
atom: Maximum radius for r*vlocal+2*Zval:    1.53550
GHOST: No ghost state for L =  0
GHOST: No ghost state for L =  1
GHOST: No ghost state for L =  2
GHOST: No ghost state for L =  3

KBgen: Kleinman-Bylander projectors: 
   l= 0   rc=  1.634559   el= -1.363963   Ekb=  5.296955   kbcos=  0.335621
   l= 1   rc=  1.614250   el= -0.521451   Ekb= -5.259161   kbcos= -0.433408
   l= 2   rc=  1.718383   el=  0.001991   Ekb= -1.271464   kbcos= -0.007566
   l= 3   rc=  1.761893   el=  0.003093   Ekb= -0.494769   kbcos= -0.001015

KBgen: Total number of  Kleinman-Bylander projectors:   16
atom: -------------------------------------------------------------------------

atom: SANKEY-TYPE ORBITALS:
atom: Selected multiple-zeta basis: split     

SPLIT: Orbitals with angular momentum L= 0

SPLIT: Basis orbitals for state 2s

SPLIT: PAO cut-off radius determined from an
SPLIT: energy shift=  0.007350 Ry

   izeta = 1
                 lambda =    1.000000
                     rc =    4.071465
                 energy =   -1.356470
                kinetic =    1.176977
    potential(screened) =   -2.533447
       potential(ionic) =   -8.057990

   izeta = 2
                 rmatch =    2.905100
              splitnorm =    0.150000
                 energy =   -1.158343
                kinetic =    1.813009
    potential(screened) =   -2.971352
       potential(ionic) =   -8.901931

SPLIT: Orbitals with angular momentum L= 1

SPLIT: Basis orbitals for state 2p

SPLIT: PAO cut-off radius determined from an
SPLIT: energy shift=  0.007350 Ry

   izeta = 1
                 lambda =    1.000000
                     rc =    4.972977
                 energy =   -0.513884
                kinetic =    3.441732
    potential(screened) =   -3.955616
       potential(ionic) =   -9.287901

   izeta = 2
                 rmatch =    3.054066
              splitnorm =    0.150000
                 energy =   -0.318226
                kinetic =    5.125348
    potential(screened) =   -5.443573
       potential(ionic) =  -11.380999

POLgen: Perturbative polarization orbital with L=  2

POLgen: Polarization orbital for state 2p

   izeta = 1
                     rc =    4.972977
                 energy =    1.607437
                kinetic =    3.268125
    potential(screened) =   -1.660688
       potential(ionic) =   -5.973652
atom: Total number of Sankey-type orbitals: 13

atm_pop: Valence configuration (for local Pseudopot. screening):
 2s( 2.00)                                                            
 2p( 3.00)                                                            
Vna: chval, zval:    5.00000   5.00000

Vna:  Cut-off radius for the neutral-atom potential:   4.972977
comcore: Pseudo-core radius Rcore=  1.554824

atom: _________________________________________________________________________

<basis_specs>
===============================================================================
C                    Z=   6    Mass=  12.010        Charge= 0.17977+309
Lmxo=1 Lmxkb= 3    BasisType=split      Semic=F
L=0  Nsemic=0  Cnfigmx=2
          n=1  nzeta=2  polorb=0
            splnorm:   0.15000    
               vcte:    0.0000    
               rinn:    0.0000    
                rcs:    0.0000      0.0000    
            lambdas:    1.0000      1.0000    
L=1  Nsemic=0  Cnfigmx=2
          n=1  nzeta=2  polorb=1
            splnorm:   0.15000    
               vcte:    0.0000    
               rinn:    0.0000    
                rcs:    0.0000      0.0000    
            lambdas:    1.0000      1.0000    
-------------------------------------------------------------------------------
L=0  Nkbl=1  erefs: 0.17977+309
L=1  Nkbl=1  erefs: 0.17977+309
L=2  Nkbl=1  erefs: 0.17977+309
L=3  Nkbl=1  erefs: 0.17977+309
===============================================================================
</basis_specs>

atom: Called for C                     (Z =   6)

read_vps: Pseudopotential generation method:
read_vps: ATM3      Troullier-Martins                       
Total valence charge:    4.00000

read_vps: Pseudopotential includes a core correction:
read_vps: Pseudo-core for xc-correction

xc_check: Exchange-correlation functional:
xc_check: GGA Perdew, Burke & Ernzerhof 1996
V l=0 = -2*Zval/r beyond r=  1.5227
V l=1 = -2*Zval/r beyond r=  1.5227
V l=2 = -2*Zval/r beyond r=  1.5227
V l=3 = -2*Zval/r beyond r=  1.5038
All V_l potentials equal beyond r=  1.5227
This should be close to max(r_c) in ps generation
All pots = -2*Zval/r beyond r=  1.5227

VLOCAL1: 99.0% of the norm of Vloc inside     18.722 Ry
VLOCAL1: 99.9% of the norm of Vloc inside     42.668 Ry
atom: Maximum radius for 4*pi*r*r*local-pseudopot. charge    1.83678
atom: Maximum radius for r*vlocal+2*Zval:    1.58088
GHOST: No ghost state for L =  0
GHOST: No ghost state for L =  1
GHOST: No ghost state for L =  2
GHOST: No ghost state for L =  3

KBgen: Kleinman-Bylander projectors: 
   l= 0   rc=  1.704034   el= -1.009801   Ekb=  5.335044   kbcos=  0.316824
   l= 1   rc=  1.704034   el= -0.388707   Ekb= -3.785862   kbcos= -0.366464
   l= 2   rc=  1.791422   el=  0.001971   Ekb= -0.970471   kbcos= -0.009212
   l= 3   rc=  1.859892   el=  0.003065   Ekb= -0.399525   kbcos= -0.001223

KBgen: Total number of  Kleinman-Bylander projectors:   16
atom: -------------------------------------------------------------------------

atom: SANKEY-TYPE ORBITALS:
atom: Selected multiple-zeta basis: split     

SPLIT: Orbitals with angular momentum L= 0

SPLIT: Basis orbitals for state 2s

SPLIT: PAO cut-off radius determined from an
SPLIT: energy shift=  0.007350 Ry

   izeta = 1
                 lambda =    1.000000
                     rc =    4.632753
                 energy =   -1.002270
                kinetic =    0.855760
    potential(screened) =   -1.858031
       potential(ionic) =   -5.417575

   izeta = 2
                 rmatch =    3.431921
              splitnorm =    0.150000
                 energy =   -0.867111
                kinetic =    1.300804
    potential(screened) =   -2.167915
       potential(ionic) =   -5.962684

SPLIT: Orbitals with angular momentum L= 1

SPLIT: Basis orbitals for state 2p

SPLIT: PAO cut-off radius determined from an
SPLIT: energy shift=  0.007350 Ry

   izeta = 1
                 lambda =    1.000000
                     rc =    5.658549
                 energy =   -0.381140
                kinetic =    2.399701
    potential(screened) =   -2.780841
       potential(ionic) =   -6.206085

   izeta = 2
                 rmatch =    3.653288
              splitnorm =    0.150000
                 energy =   -0.249149
                kinetic =    3.542762
    potential(screened) =   -3.791911
       potential(ionic) =   -7.581078

POLgen: Perturbative polarization orbital with L=  2

POLgen: Polarization orbital for state 2p

   izeta = 1
                     rc =    5.658549
                 energy =    1.109913
                kinetic =    2.304789
    potential(screened) =   -1.194876
       potential(ionic) =   -4.013592
atom: Total number of Sankey-type orbitals: 13

atm_pop: Valence configuration (for local Pseudopot. screening):
 2s( 2.00)                                                            
 2p( 2.00)                                                            
Vna: chval, zval:    4.00000   4.00000

Vna:  Cut-off radius for the neutral-atom potential:   5.658549
comcore: Pseudo-core radius Rcore=  1.791422

atom: _________________________________________________________________________

prinput: Basis input ----------------------------------------------------------

PAO.BasisType split     

%block ChemicalSpeciesLabel
    1    7 N                       # Species index, atomic number, species label
    2    6 C                       # Species index, atomic number, species label
%endblock ChemicalSpeciesLabel

%block PAO.Basis                 # Define Basis set
N                     2                    # Species label, number of l-shells
 n=2   0   2                         # n, l, Nzeta 
   4.071      2.905   
   1.000      1.000   
 n=2   1   2 P   1                   # n, l, Nzeta, Polarization, NzetaPol
   4.973      3.054   
   1.000      1.000   
C                     2                    # Species label, number of l-shells
 n=2   0   2                         # n, l, Nzeta 
   4.633      3.432   
   1.000      1.000   
 n=2   1   2 P   1                   # n, l, Nzeta, Polarization, NzetaPol
   5.659      3.653   
   1.000      1.000   
%endblock PAO.Basis

prinput: ----------------------------------------------------------------------

coor:   Atomic-coordinates input format  =     Fractional

siesta: Atomic coordinates (Bohr) and species
siesta:     -0.02582   5.28395   0.00000  1        1
siesta:     -2.35420  38.89134   0.00000  1        2
siesta:     -2.35420  41.57980   0.00000  1        3
siesta:      9.28770  26.79272   0.00000  1        4
siesta:      9.28770  29.48119   0.00000  1        5
siesta:     -4.68258  34.85847   0.00000  1        6
siesta:     -4.68258  37.54693   0.00000  1        7
siesta:     -2.35420   6.62836   0.00000  1        8
siesta:     -2.35420   9.31683   0.00000  1        9
siesta:     -0.02582  10.66124   0.00000  1       10
siesta:     -0.02582  13.34970   0.00000  1       11
siesta:      2.30256  14.69411   0.00000  1       12
siesta:      2.30256  17.38257   0.00000  1       13
siesta:      4.63094  18.72698   0.00000  1       14
siesta:      4.63094  21.41544   0.00000  1       15
siesta:      6.95932  22.75985   0.00000  1       16
siesta:      6.95932  25.44831   0.00000  1       17
siesta:    -11.66772  22.75985   0.00000  1       18
siesta:    -11.66772  25.44831   0.00000  1       19
siesta:     -9.33934  26.79272   0.00000  1       20
siesta:     -9.33934  29.48119   0.00000  1       21
siesta:     -7.01096  30.82560   0.00000  1       22
siesta:     -7.01096  33.51406   0.00000  1       23
siesta:     -0.02582  42.92421   0.00000  1       24
siesta:     -0.02582  45.61267   0.00000  1       25
siesta:     -0.02582   2.59549   0.00000  2       26
siesta:      2.30256  38.89134   0.00000  2       27
siesta:      2.30256  41.57980   0.00000  2       28
siesta:      4.63094  34.85847   0.00000  2       29
siesta:      4.63094  37.54693   0.00000  2       30
siesta:      6.95932  30.82560   0.00000  2       31
siesta:      6.95932  33.51406   0.00000  2       32
siesta:      2.30256   6.62836   0.00000  2       33
siesta:      2.30256   9.31683   0.00000  2       34
siesta:      4.63094  10.66124   0.00000  2       35
siesta:      4.63094  13.34970   0.00000  2       36
siesta:      6.95932  14.69411   0.00000  2       37
siesta:      6.95932  17.38257   0.00000  2       38
siesta:      9.28770  18.72698   0.00000  2       39
siesta:      9.28770  21.41544   0.00000  2       40
siesta:     11.61608  22.75985   0.00000  2       41
siesta:     11.61608  25.44831   0.00000  2       42
siesta:     -4.68258  10.66124   0.00000  2       43
siesta:     -4.68258  13.34970   0.00000  2       44
siesta:     -2.35420  14.69411   0.00000  2       45
siesta:     -2.35420  17.38257   0.00000  2       46
siesta:     -0.02582  18.72698   0.00000  2       47
siesta:     -0.02582  21.41544   0.00000  2       48
siesta:      2.30256  22.75985   0.00000  2       49
siesta:      2.30256  25.44831   0.00000  2       50
siesta:     -7.01096  14.69411   0.00000  2       51
siesta:     -7.01096  17.38257   0.00000  2       52
siesta:     -4.68258  18.72698   0.00000  2       53
siesta:     -4.68258  21.41544   0.00000  2       54
siesta:     -2.35420  22.75985   0.00000  2       55
siesta:     -2.35420  25.44831   0.00000  2       56
siesta:     -9.33934  18.72698   0.00000  2       57
siesta:     -9.33934  21.41544   0.00000  2       58
siesta:     -7.01096  22.75985   0.00000  2       59
siesta:     -7.01096  25.44831   0.00000  2       60
siesta:      4.63094  26.79272   0.00000  2       61
siesta:      4.63094  29.48119   0.00000  2       62
siesta:     -0.02582  26.79272   0.00000  2       63
siesta:     -0.02582  29.48119   0.00000  2       64
siesta:     -4.68258  26.79272   0.00000  2       65
siesta:     -4.68258  29.48119   0.00000  2       66
siesta:      2.30256  30.82560   0.00000  2       67
siesta:      2.30256  33.51406   0.00000  2       68
siesta:     -2.35420  30.82560   0.00000  2       69
siesta:     -2.35420  33.51406   0.00000  2       70
siesta:     -0.02582  34.85847   0.00000  2       71
siesta:     -0.02582  37.54693   0.00000  2       72

siesta: System type = slab      

initatomlists: Number of atoms, orbitals, and projectors:     72   936  1152

siesta: ******************** Simulation parameters ****************************
siesta:
siesta: The following are some of the parameters of the simulation.
siesta: A complete list of the parameters used, including default values,
siesta: can be found in file out.fdf
siesta:
redata: Non-Collinear-spin run           =     F
redata: SpinPolarized (Up/Down) run      =     F
redata: Number of spin components        =     1
redata: Long output                      =     F
redata: Number of Atomic Species         =        2
redata: Charge density info will appear in .RHO file
redata: Write Mulliken Pop.              =     NO
redata: Mesh Cutoff                      =   200.0000  Ry
redata: Net charge of the system         =     0.0000 |e|
redata: Max. number of SCF Iter          =      500
redata: SCF convergence failure will abort job
redata: Performing Pulay mixing using    =    10 iterations
redata: Mix DM in first SCF step ?       =     F
redata: Write Pulay info on disk?        =     F
redata: Discard 1st Pulay DM after  kick =     F
redata: New DM Mixing Weight             =     0.0500
redata: New DM Occupancy tolerance       = 0.000000000001
redata: No kicks to SCF
redata: DM Mixing Weight for Kicks       =     0.5000
redata: DM Tolerance for SCF             =     0.000100
redata: Require Energy convergence for SCF =     F
redata: DM Energy tolerance for SCF      =     0.000100 eV
redata: Require Harris convergence for SCF =     F
redata: DM Harris energy tolerance for SCF =     0.000100 eV
redata: Using Saved Data (generic)   =     F
redata: Use continuation files for DM    =     T
redata: Neglect nonoverlap interactions  =     F
redata: Method of Calculation            =     Diagonalization
redata: Divide and Conquer               =     T
redata: Electronic Temperature           =     0.0019  Ry
redata: Fix the spin of the system       =     F
redata: Dynamics option                  =     Verlet MD run
redata: Initial MD time step             =        1
redata:   Final MD time step             =        1
redata: Length of MD time step           =     1.0000  fs
redata: Initial Temperature of MD run    =     0.0000  K
redata: Perform a MD quench              =     F
redata: ***********************************************************************
Total number of electrons:   313.000000
Total ionic charge:   313.000000

* ProcessorY, Blocksize:    2  24

k-point displ. along   1 input, could be:     0.50    0.00
k-point displ. along   2 input, could be:     0.50    0.00
 Kpoints in:          231 . Kpoints trimmed:          231

siesta: k-grid: Number of k-points =   231
siesta: k-grid: Cutoff (effective) =     5.000 Ang
siesta: k-grid: Supercell and displacements
siesta: k-grid:   21   0   0      0.500
siesta: k-grid:    0  21   0      0.500
siesta: k-grid:    0   0   1      0.000
Naive supercell factors:     2    2    2

superc: Internal auxiliary supercell:     2 x     2 x     2  =       8
superc: Number of atoms, orbitals, and projectors:    576   7488   9216

* Maximum dynamic memory allocated =     4 MB

siesta:                 ==============================
                            Begin MD step =      1
                        ==============================

superc: Internal auxiliary supercell:     2 x     2 x     2  =       8
superc: Number of atoms, orbitals, and projectors:    576   7488   9216

outcell: Unit cell vectors (Ang):
       12.804619    7.392750    0.000000
        0.000000   14.785500    0.000000
        0.000000    0.000000   10.000000

outcell: Cell vector modules (Ang)   :   14.785500   14.785500   10.000000
outcell: Cell angles (23,13,12) (deg):     90.0000     90.0000     60.0000
outcell: Cell volume (Ang**3)        :   1893.2269
New_DM. Step:     1
Initializing Density Matrix...

InitMesh: MESH =   120 x   120 x    90 =     1296000
InitMesh: Mesh cutoff (required, used) =   200.000   223.865 Ry

* Maximum dynamic memory allocated =   179 MB

stepf: Fermi-Dirac step function

siesta: Program's energy decomposition (eV):
siesta: Ebs     =     -6389.089239
siesta: Eions   =     22421.682175
siesta: Ena     =      4984.285300
siesta: Ekin    =      8476.244847
siesta: Enl     =      -108.406877
siesta: DEna    =        -0.000015
siesta: DUscf   =         0.000000
siesta: DUext   =         0.000000
siesta: Exc     =     -4807.115614
siesta: eta*DQ  =         0.000000
siesta: Emadel  =         0.000000
siesta: Emeta   =         0.000000
siesta: Emolmec =         0.000000
siesta: Ekinion =         0.000000
siesta: Eharris =    -13458.539593
siesta: Etot    =    -13876.674534
siesta: FreeEng =    -13876.674534

siesta: iscf   Eharris(eV)      E_KS(eV)   FreeEng(eV)   dDmax  Ef(eV)
siesta:    1   -13458.5396   -13876.6745   -13876.6745  5.0969 -6.6413
timer: Routine,Calls,Time,% = IterSCF        1    4066.646  99.72
elaps: Routine,Calls,Wall,% = IterSCF        1     508.907  99.72
siesta:    2   -16122.6695   -12975.1755   -12975.2138  9.4221 -1.9859
siesta:    3   -13379.4635   -13602.5243   -13602.5867  1.5077 -4.3265
siesta:    4   -13349.5685   -13501.2600   -13501.2831  0.9946 -3.8929
siesta:    5   -13316.8054   -13446.9253   -13446.9898  1.0464 -3.8813
siesta:    6   -13312.1669   -13428.3092   -13428.3650  1.0219 -3.7434
siesta:    7   -13307.9658   -13401.0728   -13401.1366  0.6121 -3.6594
siesta:    8   -13306.8890   -13390.0018   -13390.0364  0.5640 -3.8238
siesta:    9   -13306.4994   -13370.1877   -13370.2364  0.4601 -3.6718
siesta:   10   -13307.6745   -13322.5626   -13322.5937  0.3000 -3.7509
siesta:   11   -13306.2109   -13316.8368   -13316.8964  0.2490 -3.6540
siesta:   12   -13305.7273   -13303.8528   -13303.9014  0.1731 -3.6689
siesta:   13   -13305.5465   -13300.0832   -13300.1460  0.3325 -3.6195
siesta:   14   -13305.1994   -13298.7918   -13298.8331  0.1120 -3.6925
siesta:   15   -13305.1150   -13299.7612   -13299.8362  0.1800 -3.6736
siesta:   16   -13305.0410   -13301.7097   -13301.7684  0.1447 -3.7001
siesta:   17   -13304.9976   -13304.0866   -13304.1437  0.1148 -3.7365
siesta:   18   -13305.0002   -13304.3472   -13304.4242  0.1060 -3.7156
siesta:   19   -13304.9909   -13304.8646   -13304.9210  0.0888 -3.7203
siesta:   20   -13304.9730   -13304.5152   -13304.5710  0.0308 -3.7239
siesta:   21   -13304.9740   -13304.1901   -13304.2510  0.0431 -3.7253
siesta:   22   -13304.9688   -13304.2727   -13304.3321  0.0192 -3.7238
siesta:   23   -13304.9672   -13304.4468   -13304.5090  0.0200 -3.7214
siesta:   24   -13304.9651   -13304.8665   -13304.9293  0.0116 -3.7210
siesta:   25   -13304.9658   -13304.8848   -13304.9489  0.0068 -3.7212
siesta:   26   -13304.9655   -13304.8631   -13304.9264  0.0056 -3.7218
siesta:   27   -13304.9657   -13304.8054   -13304.8689  0.0041 -3.7218
siesta:   28   -13304.9655   -13304.7906   -13304.8538  0.0031 -3.7218
siesta:   29   -13304.9658   -13304.8477   -13304.9111  0.0026 -3.7229
siesta:   30   -13304.9653   -13304.8821   -13304.9452  0.0009 -3.7232
siesta:   31   -13304.9654   -13304.8901   -13304.9536  0.0008 -3.7230
siesta:   32   -13304.9654   -13304.8965   -13304.9599  0.0005 -3.7231
siesta:   33   -13304.9654   -13304.9233   -13304.9867  0.0007 -3.7232
siesta:   34   -13304.9654   -13304.9467   -13305.0101  0.0005 -3.7234
siesta:   35   -13304.9654   -13304.9621   -13305.0254  0.0002 -3.7235
siesta:   36   -13304.9654   -13304.9642   -13305.0276  0.0003 -3.7235
siesta:   37   -13304.9654   -13304.9624   -13305.0258  0.0002 -3.7234
siesta:   38   -13304.9654   -13304.9639   -13305.0272  0.0003 -3.7235
siesta:   39   -13304.9654   -13304.9640   -13305.0274  0.0001 -3.7234

siesta: E_KS(eV) =           -13304.9662

siesta: E_KS - E_eggbox =    -13304.9662

siesta: Atomic forces (eV/Ang):
----------------------------------------
   Tot   -0.037791   -0.217261    0.000000
----------------------------------------
   Max  690.123881
   Res  184.442617    sqrt( Sum f_i^2 / 3N )
----------------------------------------
   Max  690.123881    constrained

Stress-tensor-Voigt (kbar):     -629.96    -3334.99       -0.01       14.30        0.00        0.00
(Free)E + p*V (eV/cell)   -11743.3012
Target enthalpy (eV/cell)   -13305.0295

siesta: Stress tensor (static) (eV/Ang**3):
        -0.393185    0.008923    0.000000
         0.008923   -2.081514    0.000000
         0.000000    0.000000   -0.000009

siesta: Pressure (static):       1321.65440965  kBar

siesta: Stress tensor (total) (eV/Ang**3):
        -0.393185    0.008923    0.000000
         0.008923   -2.081514    0.000000
         0.000000    0.000000   -0.000009

siesta: Pressure (total):       1321.65440965  kBar

siesta: Temp_ion =       0.000 K

* Maximum dynamic memory allocated =   196 MB
Computing bands...

siesta: Program's energy decomposition (eV):
siesta: Ebs     =     -5163.408109
siesta: Eions   =     22421.682175
siesta: Ena     =      4984.285300
siesta: Ekin    =     11672.058439
siesta: Enl     =     -1843.946463
siesta: DEna    =      -821.630618
siesta: DUscf   =       113.720278
siesta: DUext   =         0.000000
siesta: Exc     =     -4987.770910
siesta: eta*DQ  =         0.000000
siesta: Emadel  =         0.000000
siesta: Emeta   =         0.000000
siesta: Emolmec =         0.000000
siesta: Ekinion =         0.000000
siesta: Eharris =    -13304.965424
siesta: Etot    =    -13304.966151
siesta: FreeEng =    -13305.029505

siesta: Final energy (eV):
siesta:  Band Struct. =   -5163.408109
siesta:       Kinetic =   11672.058439
siesta:       Hartree =   37752.773987
siesta:    Ext. field =       0.000000
siesta:   Exch.-corr. =   -4987.770910
siesta:  Ion-electron =  -86660.698841
siesta:       Ion-ion =   28918.671175
siesta:       Ekinion =       0.000000
siesta:         Total =  -13304.966151

siesta: Atomic forces (eV/Ang):
siesta:      1   -0.741358 -122.885750    0.000000
siesta:      2    0.123100  109.221620    0.000000
siesta:      3  -17.743824 -664.069612    0.000000
siesta:      4    1.910140    2.412356    0.000000
siesta:      5   -1.219624   -1.694778    0.000000
siesta:      6  -28.370946    4.750081    0.000000
siesta:      7  -22.654784 -657.065107    0.000000
siesta:      8  -26.415267  655.624759    0.000000
siesta:      9    5.356722 -109.688733    0.000000
siesta:     10   -1.556903  666.200287    0.000000
siesta:     11   -0.187253 -107.478680    0.000000
siesta:     12    5.656459  677.679766    0.000000
siesta:     13   33.897983   -4.774003    0.000000
siesta:     14    2.564558    1.948375    0.000000
siesta:     15   -2.649604    2.387084    0.000000
siesta:     16    1.510411   -0.057780    0.000000
siesta:     17   -2.555243   -0.028840    0.000000
siesta:     18    1.683876    3.261923    0.000000
siesta:     19   -0.133072   -2.176703    0.000000
siesta:     20    2.893889   -0.186695    0.000000
siesta:     21   -1.080508    0.270337    0.000000
siesta:     22    1.858519   -0.654876    0.000000
siesta:     23   -1.375812   -3.521290    0.000000
siesta:     24   -2.111466  110.939388    0.000000
siesta:     25    4.772879 -649.087663    0.000000
siesta:     26   -1.253254  547.990958    0.000000
siesta:     27   -0.074423  117.362470    0.000000
siesta:     28   14.380310 -661.714204    0.000000
siesta:     29   25.301184    5.900708    0.000000
siesta:     30   32.262264 -550.985854    0.000000
siesta:     31    1.500865   -0.488581    0.000000
siesta:     32   -2.132098    0.710062    0.000000
siesta:     33   14.671878  550.701716    0.000000
siesta:     34    1.122112 -128.440086    0.000000
siesta:     35   30.352505  551.314552    0.000000
siesta:     36   27.178918   -8.108778    0.000000
siesta:     37   -2.596996   -0.345122    0.000000
siesta:     38    2.244942   -0.916450    0.000000
siesta:     39   -1.405060    0.063002    0.000000
siesta:     40    0.672167   -0.898084    0.000000
siesta:     41   -0.782351    3.779597    0.000000
siesta:     42   -1.228578   -2.107330    0.000000
siesta:     43  -25.910705  661.136604    0.000000
siesta:     44  -27.955471   -2.387364    0.000000
siesta:     45   -5.421990  690.123881    0.000000
siesta:     46  -26.097327   -1.596676    0.000000
siesta:     47  -15.556306  685.274714    0.000000
siesta:     48    0.839389    0.133593    0.000000
siesta:     49    1.642174   -1.762865    0.000000
siesta:     50    0.555273    0.566349    0.000000
siesta:     51    3.161986   -1.219421    0.000000
siesta:     52   -2.085036   -0.167827    0.000000
siesta:     53    2.009587    2.689526    0.000000
siesta:     54   -0.355598    0.424209    0.000000
siesta:     55   -0.355234   -0.057348    0.000000
siesta:     56    0.093268    0.286863    0.000000
siesta:     57   -0.037431    0.070080    0.000000
siesta:     58   -1.383281    0.594800    0.000000
siesta:     59   -0.083877    0.363175    0.000000
siesta:     60   -0.492886    0.589596    0.000000
siesta:     61    1.060134   -0.605766    0.000000
siesta:     62   -1.615193   -2.787468    0.000000
siesta:     63    0.103993   -1.137879    0.000000
siesta:     64    1.715238 -574.973432    0.000000
siesta:     65   -1.421974   -0.288365    0.000000
siesta:     66    0.483015   -1.000033    0.000000
siesta:     67   24.258168    2.724221    0.000000
siesta:     68    9.525806 -558.138561    0.000000
siesta:     69  -24.146217    5.553466    0.000000
siesta:     70    3.157322 -687.012382    0.000000
siesta:     71    3.186262  122.117616    0.000000
siesta:     72  -12.558139 -674.874608    0.000000
siesta: ----------------------------------------
siesta:    Tot   -0.037791   -0.217261    0.000000

siesta: Stress tensor (static) (eV/Ang**3):
siesta:    -0.393185    0.008923    0.000000
siesta:     0.008923   -2.081514    0.000000
siesta:     0.000000    0.000000   -0.000009

siesta: Cell volume =       1893.226884 Ang**3

siesta: Pressure (static):
siesta:                Solid            Molecule  Units
siesta:           0.00898425          0.14753138  Ry/Bohr**3
siesta:           0.82490288         13.54582968  eV/Ang**3
siesta:        1321.65440965      21703.04637937  kBar
(Free)E+ p_basis*V_orbitals  =      -13277.865978
(Free)Eharris+ p_basis*V_orbitals  =      -13277.867389

siesta: Electric dipole (a.u.)  =    0.000000    0.000000    0.000000
siesta: Electric dipole (Debye) =    0.000000    0.000000    0.000000

* Maximum dynamic memory allocated : Node    0 =   196 MB
* Maximum dynamic memory allocated : Node    1 =    70 MB
* Maximum dynamic memory allocated : Node    2 =    72 MB
* Maximum dynamic memory allocated : Node    3 =   186 MB
* Maximum dynamic memory allocated : Node    4 =   185 MB
* Maximum dynamic memory allocated : Node    5 =    71 MB
* Maximum dynamic memory allocated : Node    6 =    72 MB
* Maximum dynamic memory allocated : Node    7 =   170 MB

* Maximum memory occured during matrixMtoO                    

timer: CPU execution times:
timer:  Routine       Calls   Time/call    Tot.time        %
timer:  siesta            1  155707.458  155707.458   100.00
timer:  Setup             1       3.053       3.053     0.00
timer:  bands             3     268.752     806.256     0.52
timer:  writewave         1       0.020       0.020     0.00
timer:  KSV_init          1       0.001       0.001     0.00
timer:  IterMD            1  154892.251  154892.251    99.48
timer:  hsparse           1       0.232       0.232     0.00
timer:  overlap           1       7.701       7.701     0.00
timer:  IterSCF          39    3967.412  154729.087    99.37
timer:  kinefsm           2       3.985       7.970     0.01
timer:  nlefsm            2      18.444      36.888     0.02
timer:  DHSCF            40      81.885    3275.418     2.10
timer:  DHSCF1            1       0.760       0.760     0.00
timer:  DHSCF2            1      32.577      32.577     0.02
timer:  REORD           322       0.010       3.286     0.00
timer:  POISON           41       2.240      91.824     0.06
timer:  DHSCF3           40      80.267    3210.670     2.06
timer:  rhoofd           40      16.153     646.124     0.41
timer:  cellXC           40       3.457     138.283     0.09
timer:  vmat             40      38.224    1528.940     0.98
timer:  MolMec            2       0.001       0.002     0.00
timer:  diagon           39    3884.412  151492.053    97.29
timer:  c-eigval       9130       6.661   60815.063    39.06
timer:  c-buildHS      9130       0.111    1009.649     0.65
timer:  cdiag         18139       6.811  123548.295    79.35
timer:  cdiag1        18139       0.427    7754.408     4.98
timer:  cdiag2        18139       1.906   34571.944    22.20
timer:  cdiag3        18139       3.942   71508.348    45.92
timer:  cdiag4        18139       0.204    3705.146     2.38
timer:  c-eigvec       9009       7.145   64373.416    41.34
timer:  c-buildD       9009       3.004   27060.507    17.38
timer:  DHSCF4            1      29.332      29.332     0.02
timer:  dfscf             1      27.510      27.510     0.02
timer:  overfsm           1       0.398       0.398     0.00
timer:  optical           1       5.141       5.141     0.00
  

elaps: ELAPSED times:
elaps:  Routine       Calls   Time/call    Tot.time        %
elaps:  siesta            1   19484.084   19484.084   100.00
elaps:  Setup             1       0.381       0.381     0.00
elaps:  bands             3      33.645     100.935     0.52
elaps:  writewave         1       0.002       0.002     0.00
elaps:  KSV_init          1       0.000       0.000     0.00
elaps:  IterMD            1   19382.088   19382.088    99.48
elaps:  hsparse           1       0.029       0.029     0.00
elaps:  overlap           1       0.967       0.967     0.00
elaps:  IterSCF          39     496.453   19361.676    99.37
elaps:  kinefsm           2       0.496       0.993     0.01
elaps:  nlefsm            2       2.264       4.527     0.02
elaps:  DHSCF            40      10.343     413.726     2.12
elaps:  DHSCF1            1       0.104       0.104     0.00
elaps:  DHSCF2            1       4.069       4.069     0.02
elaps:  REORD           322       0.001       0.438     0.00
elaps:  POISON           41       0.280      11.491     0.06
elaps:  DHSCF3           40      10.042     401.691     2.06
elaps:  rhoofd           40       4.478     179.127     0.92
elaps:  cellXC           40       0.432      17.276     0.09
elaps:  vmat             40       4.782     191.278     0.98
elaps:  MolMec            2       0.000       0.000     0.00
elaps:  diagon           39     486.081   18957.158    97.30
elaps:  c-eigval       9130       0.833    7608.960    39.05
elaps:  c-buildHS      9130       0.015     138.664     0.71
elaps:  cdiag         18139       0.845   15318.501    78.62
elaps:  cdiag1        18139       0.053     956.819     4.91
elaps:  cdiag2        18139       0.238    4325.967    22.20
elaps:  cdiag3        18139       0.494    8958.975    45.98
elaps:  cdiag4        18139       0.026     471.625     2.42
elaps:  c-eigvec       9009       0.883    7952.255    40.81
elaps:  c-buildD       9009       0.387    3489.101    17.91
elaps:  DHSCF4            1       7.578       7.578     0.04
elaps:  dfscf             1       7.155       7.155     0.04
elaps:  overfsm           1       0.050       0.050     0.00
elaps:  optical           1       0.000       0.000     0.00
  
>> End of run:  22-APR-2016   9:42:56
