Siesta Version:                                        siesta-3.2-pl-3
Architecture  : x86_64-unknown-linux-gnu--unknown
Compiler flags: mpiifort -g -O2 -fPIC -xSSE4.1 -fp-model source -shared-intel 
PARALLEL version

* Running on    8 nodes in parallel
>> Start of run:  22-APR-2016  12:44:05

                           ***********************       
                           *  WELCOME TO SIESTA  *       
                           ***********************       

reinit: Reading from standard input
************************** Dump of input data file ****************************
#(1) General system descriptors
SystemName            GRP_doping    # Descriptive name of the system
SystemLabel           GRP_doping    # Short name for naming files
%include STRUCT.fdf
%include KPT.fdf
%include BASIS.fdf
#%include TS.fdf # for transiesta calculation
#(4) DFT, Grid, SCF
XC.functional         GGA           # LDA or GGA (default = LDA)
XC.authors            PBE           # CA (Ceperley-Aldr) = PZ
                                    #    (Perdew-Zunger) - LDA - Default
                                    # PW92 (Perdew-Wang-92) - LDA
                                    # PBE (Perdew-Burke-Ernzerhof) - GGA
MeshCutoff            200.000000    Ry      # Default: 50.0 Ry ~ 0.444 Bohr
                                    #         100.0 Ry ~ 0.314 Bohr
MaxSCFIterations      500           # Default: 50
DM.MixingWeight       0.05          # Default: 0.25
DM.NumberPulay        10            # Default: 0
DM.PulayOnFile        F             # SystemLabel.P1, SystemLabel.P2
DM.Tolerance          1.d-4         # Default: 1.d-4
DM.UseSaveDM          .true.        # because of the bug
SCFMustConverge       .true.
NeglNonOverlapInt     F             # Default: F
#(5) Eigenvalue problem: order-N or diagonalization
SolutionMethod        Diagon        # or Transiesta
ElectronicTemperature 300.0 K       # Default: 300.0 K
#(6) Molecular dynamics and relaxations
#MD.TypeOfRun          CG            # Type of dynamics:
#MD.VariableCell       F
#MD.NumCGsteps         0           # 0 for single-point / 100 for gopt
#MD.MaxCGDispl         0.2 Bohr      # Default: 0.2 Bohr
#MD.MaxForceTol        0.02 eV/Ang   # Default: 0.04 eV/Ang
#MD.MaxStressTol       1.0 GPa       # Default: 1.0 GPa
# Geometry Constraints
#%block GeometryConstraints
#	position from 1 to 44
#%endblock GeometryConstraints
BandLinesScale   pi/a
%block BandLines
 1   0.00000000  0.00000000  0.00000000
50   0.00000000  0.07809418  0.00000000
50   0.04509075  0.07809242  0.00000000
20   0.00000000  0.00000000  0.00000000
%endblock BandLines
************************** End of input data file *****************************

reinit: -----------------------------------------------------------------------
reinit: System Name: GRP_doping
reinit: -----------------------------------------------------------------------
reinit: System Label: GRP_doping                                                  
reinit: -----------------------------------------------------------------------

initatom: Reading input for the pseudopotentials and atomic orbitals ----------
 Species number:            1  Label: N Atomic number:           7
 Species number:            2  Label: C Atomic number:           6
Ground state valence configuration:   2s02  2p03
Reading pseudopotential information in formatted form from N.psf

Valence configuration for pseudopotential generation:
2s( 2.00) rc: 1.48
2p( 3.00) rc: 1.48
3d( 0.00) rc: 1.48
4f( 0.00) rc: 1.48
Ground state valence configuration:   2s02  2p02
Reading pseudopotential information in formatted form from C.psf

Valence configuration for pseudopotential generation:
2s( 2.00) rc: 1.54
2p( 2.00) rc: 1.54
3d( 0.00) rc: 1.54
4f( 0.00) rc: 1.54
For N, standard SIESTA heuristics set lmxkb to 3
 (one more than the basis l, including polarization orbitals).
Use PS.lmax or PS.KBprojectors blocks to override.
For C, standard SIESTA heuristics set lmxkb to 3
 (one more than the basis l, including polarization orbitals).
Use PS.lmax or PS.KBprojectors blocks to override.

<basis_specs>
===============================================================================
N                    Z=   7    Mass=  14.010        Charge= 0.17977+309
Lmxo=1 Lmxkb= 3    BasisType=split      Semic=F
L=0  Nsemic=0  Cnfigmx=2
          n=1  nzeta=2  polorb=0
            splnorm:   0.15000    
               vcte:    0.0000    
               rinn:    0.0000    
                rcs:    0.0000      0.0000    
            lambdas:    1.0000      1.0000    
L=1  Nsemic=0  Cnfigmx=2
          n=1  nzeta=2  polorb=1
            splnorm:   0.15000    
               vcte:    0.0000    
               rinn:    0.0000    
                rcs:    0.0000      0.0000    
            lambdas:    1.0000      1.0000    
-------------------------------------------------------------------------------
L=0  Nkbl=1  erefs: 0.17977+309
L=1  Nkbl=1  erefs: 0.17977+309
L=2  Nkbl=1  erefs: 0.17977+309
L=3  Nkbl=1  erefs: 0.17977+309
===============================================================================
</basis_specs>

atom: Called for N                     (Z =   7)

read_vps: Pseudopotential generation method:
read_vps: ATM3      Troullier-Martins                       
Total valence charge:    5.00000

read_vps: Pseudopotential includes a core correction:
read_vps: Pseudo-core for xc-correction

xc_check: Exchange-correlation functional:
xc_check: GGA Perdew, Burke & Ernzerhof 1996
V l=0 = -2*Zval/r beyond r=  1.4606
V l=1 = -2*Zval/r beyond r=  1.4606
V l=2 = -2*Zval/r beyond r=  1.4606
V l=3 = -2*Zval/r beyond r=  1.4606
All V_l potentials equal beyond r=  1.4606
This should be close to max(r_c) in ps generation
All pots = -2*Zval/r beyond r=  1.4606

VLOCAL1: 99.0% of the norm of Vloc inside     20.347 Ry
VLOCAL1: 99.9% of the norm of Vloc inside     46.372 Ry
atom: Maximum radius for 4*pi*r*r*local-pseudopot. charge    1.76189
atom: Maximum radius for r*vlocal+2*Zval:    1.53550
GHOST: No ghost state for L =  0
GHOST: No ghost state for L =  1
GHOST: No ghost state for L =  2
GHOST: No ghost state for L =  3

KBgen: Kleinman-Bylander projectors: 
   l= 0   rc=  1.634559   el= -1.363963   Ekb=  5.296955   kbcos=  0.335621
   l= 1   rc=  1.614250   el= -0.521451   Ekb= -5.259161   kbcos= -0.433408
   l= 2   rc=  1.718383   el=  0.001991   Ekb= -1.271464   kbcos= -0.007566
   l= 3   rc=  1.761893   el=  0.003093   Ekb= -0.494769   kbcos= -0.001015

KBgen: Total number of  Kleinman-Bylander projectors:   16
atom: -------------------------------------------------------------------------

atom: SANKEY-TYPE ORBITALS:
atom: Selected multiple-zeta basis: split     

SPLIT: Orbitals with angular momentum L= 0

SPLIT: Basis orbitals for state 2s

SPLIT: PAO cut-off radius determined from an
SPLIT: energy shift=  0.007350 Ry

   izeta = 1
                 lambda =    1.000000
                     rc =    4.071465
                 energy =   -1.356470
                kinetic =    1.176977
    potential(screened) =   -2.533447
       potential(ionic) =   -8.057990

   izeta = 2
                 rmatch =    2.905100
              splitnorm =    0.150000
                 energy =   -1.158343
                kinetic =    1.813009
    potential(screened) =   -2.971352
       potential(ionic) =   -8.901931

SPLIT: Orbitals with angular momentum L= 1

SPLIT: Basis orbitals for state 2p

SPLIT: PAO cut-off radius determined from an
SPLIT: energy shift=  0.007350 Ry

   izeta = 1
                 lambda =    1.000000
                     rc =    4.972977
                 energy =   -0.513884
                kinetic =    3.441732
    potential(screened) =   -3.955616
       potential(ionic) =   -9.287901

   izeta = 2
                 rmatch =    3.054066
              splitnorm =    0.150000
                 energy =   -0.318226
                kinetic =    5.125348
    potential(screened) =   -5.443573
       potential(ionic) =  -11.380999

POLgen: Perturbative polarization orbital with L=  2

POLgen: Polarization orbital for state 2p

   izeta = 1
                     rc =    4.972977
                 energy =    1.607437
                kinetic =    3.268125
    potential(screened) =   -1.660688
       potential(ionic) =   -5.973652
atom: Total number of Sankey-type orbitals: 13

atm_pop: Valence configuration (for local Pseudopot. screening):
 2s( 2.00)                                                            
 2p( 3.00)                                                            
Vna: chval, zval:    5.00000   5.00000

Vna:  Cut-off radius for the neutral-atom potential:   4.972977
comcore: Pseudo-core radius Rcore=  1.554824

atom: _________________________________________________________________________

<basis_specs>
===============================================================================
C                    Z=   6    Mass=  12.010        Charge= 0.17977+309
Lmxo=1 Lmxkb= 3    BasisType=split      Semic=F
L=0  Nsemic=0  Cnfigmx=2
          n=1  nzeta=2  polorb=0
            splnorm:   0.15000    
               vcte:    0.0000    
               rinn:    0.0000    
                rcs:    0.0000      0.0000    
            lambdas:    1.0000      1.0000    
L=1  Nsemic=0  Cnfigmx=2
          n=1  nzeta=2  polorb=1
            splnorm:   0.15000    
               vcte:    0.0000    
               rinn:    0.0000    
                rcs:    0.0000      0.0000    
            lambdas:    1.0000      1.0000    
-------------------------------------------------------------------------------
L=0  Nkbl=1  erefs: 0.17977+309
L=1  Nkbl=1  erefs: 0.17977+309
L=2  Nkbl=1  erefs: 0.17977+309
L=3  Nkbl=1  erefs: 0.17977+309
===============================================================================
</basis_specs>

atom: Called for C                     (Z =   6)

read_vps: Pseudopotential generation method:
read_vps: ATM3      Troullier-Martins                       
Total valence charge:    4.00000

read_vps: Pseudopotential includes a core correction:
read_vps: Pseudo-core for xc-correction

xc_check: Exchange-correlation functional:
xc_check: GGA Perdew, Burke & Ernzerhof 1996
V l=0 = -2*Zval/r beyond r=  1.5227
V l=1 = -2*Zval/r beyond r=  1.5227
V l=2 = -2*Zval/r beyond r=  1.5227
V l=3 = -2*Zval/r beyond r=  1.5038
All V_l potentials equal beyond r=  1.5227
This should be close to max(r_c) in ps generation
All pots = -2*Zval/r beyond r=  1.5227

VLOCAL1: 99.0% of the norm of Vloc inside     18.722 Ry
VLOCAL1: 99.9% of the norm of Vloc inside     42.668 Ry
atom: Maximum radius for 4*pi*r*r*local-pseudopot. charge    1.83678
atom: Maximum radius for r*vlocal+2*Zval:    1.58088
GHOST: No ghost state for L =  0
GHOST: No ghost state for L =  1
GHOST: No ghost state for L =  2
GHOST: No ghost state for L =  3

KBgen: Kleinman-Bylander projectors: 
   l= 0   rc=  1.704034   el= -1.009801   Ekb=  5.335044   kbcos=  0.316824
   l= 1   rc=  1.704034   el= -0.388707   Ekb= -3.785862   kbcos= -0.366464
   l= 2   rc=  1.791422   el=  0.001971   Ekb= -0.970471   kbcos= -0.009212
   l= 3   rc=  1.859892   el=  0.003065   Ekb= -0.399525   kbcos= -0.001223

KBgen: Total number of  Kleinman-Bylander projectors:   16
atom: -------------------------------------------------------------------------

atom: SANKEY-TYPE ORBITALS:
atom: Selected multiple-zeta basis: split     

SPLIT: Orbitals with angular momentum L= 0

SPLIT: Basis orbitals for state 2s

SPLIT: PAO cut-off radius determined from an
SPLIT: energy shift=  0.007350 Ry

   izeta = 1
                 lambda =    1.000000
                     rc =    4.632753
                 energy =   -1.002270
                kinetic =    0.855760
    potential(screened) =   -1.858031
       potential(ionic) =   -5.417575

   izeta = 2
                 rmatch =    3.431921
              splitnorm =    0.150000
                 energy =   -0.867111
                kinetic =    1.300804
    potential(screened) =   -2.167915
       potential(ionic) =   -5.962684

SPLIT: Orbitals with angular momentum L= 1

SPLIT: Basis orbitals for state 2p

SPLIT: PAO cut-off radius determined from an
SPLIT: energy shift=  0.007350 Ry

   izeta = 1
                 lambda =    1.000000
                     rc =    5.658549
                 energy =   -0.381140
                kinetic =    2.399701
    potential(screened) =   -2.780841
       potential(ionic) =   -6.206085

   izeta = 2
                 rmatch =    3.653288
              splitnorm =    0.150000
                 energy =   -0.249149
                kinetic =    3.542762
    potential(screened) =   -3.791911
       potential(ionic) =   -7.581078

POLgen: Perturbative polarization orbital with L=  2

POLgen: Polarization orbital for state 2p

   izeta = 1
                     rc =    5.658549
                 energy =    1.109913
                kinetic =    2.304789
    potential(screened) =   -1.194876
       potential(ionic) =   -4.013592
atom: Total number of Sankey-type orbitals: 13

atm_pop: Valence configuration (for local Pseudopot. screening):
 2s( 2.00)                                                            
 2p( 2.00)                                                            
Vna: chval, zval:    4.00000   4.00000

Vna:  Cut-off radius for the neutral-atom potential:   5.658549
comcore: Pseudo-core radius Rcore=  1.791422

atom: _________________________________________________________________________

prinput: Basis input ----------------------------------------------------------

PAO.BasisType split     

%block ChemicalSpeciesLabel
    1    7 N                       # Species index, atomic number, species label
    2    6 C                       # Species index, atomic number, species label
%endblock ChemicalSpeciesLabel

%block PAO.Basis                 # Define Basis set
N                     2                    # Species label, number of l-shells
 n=2   0   2                         # n, l, Nzeta 
   4.071      2.905   
   1.000      1.000   
 n=2   1   2 P   1                   # n, l, Nzeta, Polarization, NzetaPol
   4.973      3.054   
   1.000      1.000   
C                     2                    # Species label, number of l-shells
 n=2   0   2                         # n, l, Nzeta 
   4.633      3.432   
   1.000      1.000   
 n=2   1   2 P   1                   # n, l, Nzeta, Polarization, NzetaPol
   5.659      3.653   
   1.000      1.000   
%endblock PAO.Basis

prinput: ----------------------------------------------------------------------

coor:   Atomic-coordinates input format  =     Fractional

siesta: Atomic coordinates (Bohr) and species
siesta:     -0.02582   5.28395   0.00000  1        1
siesta:      2.30256   6.62836   0.00000  1        2
siesta:      2.30256   9.31683   0.00000  1        3
siesta:      4.63094  10.66124   0.00000  1        4
siesta:      4.63094  13.34970   0.00000  1        5
siesta:      6.95932  14.69411   0.00000  1        6
siesta:      6.95932  17.38257   0.00000  1        7
siesta:     -2.35420   6.62836   0.00000  1        8
siesta:     -2.35420   9.31683   0.00000  1        9
siesta:     -0.02582  13.34970   0.00000  1       10
siesta:      2.30256  17.38257   0.00000  1       11
siesta:      4.63094  18.72698   0.00000  1       12
siesta:      4.63094  21.41544   0.00000  1       13
siesta:     -4.68258  10.66124   0.00000  1       14
siesta:     -4.68258  13.34970   0.00000  1       15
siesta:     -2.35420  17.38257   0.00000  1       16
siesta:      2.30256  22.75985   0.00000  1       17
siesta:      2.30256  25.44831   0.00000  1       18
siesta:     -7.01096  14.69411   0.00000  1       19
siesta:     -7.01096  17.38257   0.00000  1       20
siesta:     -4.68258  18.72698   0.00000  1       21
siesta:     -4.68258  21.41544   0.00000  1       22
siesta:     -2.35420  22.75985   0.00000  1       23
siesta:     -2.35420  25.44831   0.00000  1       24
siesta:     -0.02582  26.79272   0.00000  1       25
siesta:     -0.02582   2.59549   0.00000  2       26
siesta:     -2.35420  38.89134   0.00000  2       27
siesta:     -2.35420  41.57980   0.00000  2       28
siesta:      2.30256  38.89134   0.00000  2       29
siesta:      2.30256  41.57980   0.00000  2       30
siesta:      4.63094  34.85847   0.00000  2       31
siesta:      4.63094  37.54693   0.00000  2       32
siesta:      6.95932  30.82560   0.00000  2       33
siesta:      6.95932  33.51406   0.00000  2       34
siesta:      9.28770  26.79272   0.00000  2       35
siesta:      9.28770  29.48119   0.00000  2       36
siesta:     -4.68258  34.85847   0.00000  2       37
siesta:     -4.68258  37.54693   0.00000  2       38
siesta:      9.28770  18.72698   0.00000  2       39
siesta:      9.28770  21.41544   0.00000  2       40
siesta:     11.61608  22.75985   0.00000  2       41
siesta:     11.61608  25.44831   0.00000  2       42
siesta:     -0.02582  10.66124   0.00000  2       43
siesta:      2.30256  14.69411   0.00000  2       44
siesta:      6.95932  22.75985   0.00000  2       45
siesta:      6.95932  25.44831   0.00000  2       46
siesta:     -2.35420  14.69411   0.00000  2       47
siesta:     -0.02582  18.72698   0.00000  2       48
siesta:     -0.02582  21.41544   0.00000  2       49
siesta:     -9.33934  18.72698   0.00000  2       50
siesta:     -9.33934  21.41544   0.00000  2       51
siesta:     -7.01096  22.75985   0.00000  2       52
siesta:     -7.01096  25.44831   0.00000  2       53
siesta:    -11.66772  22.75985   0.00000  2       54
siesta:    -11.66772  25.44831   0.00000  2       55
siesta:     -9.33934  26.79272   0.00000  2       56
siesta:     -9.33934  29.48119   0.00000  2       57
siesta:      4.63094  26.79272   0.00000  2       58
siesta:      4.63094  29.48119   0.00000  2       59
siesta:     -0.02582  29.48119   0.00000  2       60
siesta:     -4.68258  26.79272   0.00000  2       61
siesta:     -4.68258  29.48119   0.00000  2       62
siesta:      2.30256  30.82560   0.00000  2       63
siesta:      2.30256  33.51406   0.00000  2       64
siesta:     -2.35420  30.82560   0.00000  2       65
siesta:     -2.35420  33.51406   0.00000  2       66
siesta:     -7.01096  30.82560   0.00000  2       67
siesta:     -7.01096  33.51406   0.00000  2       68
siesta:     -0.02582  34.85847   0.00000  2       69
siesta:     -0.02582  37.54693   0.00000  2       70
siesta:     -0.02582  42.92421   0.00000  2       71
siesta:     -0.02582  45.61267   0.00000  2       72

siesta: System type = slab      

initatomlists: Number of atoms, orbitals, and projectors:     72   936  1152

siesta: ******************** Simulation parameters ****************************
siesta:
siesta: The following are some of the parameters of the simulation.
siesta: A complete list of the parameters used, including default values,
siesta: can be found in file out.fdf
siesta:
redata: Non-Collinear-spin run           =     F
redata: SpinPolarized (Up/Down) run      =     F
redata: Number of spin components        =     1
redata: Long output                      =     F
redata: Number of Atomic Species         =        2
redata: Charge density info will appear in .RHO file
redata: Write Mulliken Pop.              =     NO
redata: Mesh Cutoff                      =   200.0000  Ry
redata: Net charge of the system         =     0.0000 |e|
redata: Max. number of SCF Iter          =      500
redata: SCF convergence failure will abort job
redata: Performing Pulay mixing using    =    10 iterations
redata: Mix DM in first SCF step ?       =     F
redata: Write Pulay info on disk?        =     F
redata: Discard 1st Pulay DM after  kick =     F
redata: New DM Mixing Weight             =     0.0500
redata: New DM Occupancy tolerance       = 0.000000000001
redata: No kicks to SCF
redata: DM Mixing Weight for Kicks       =     0.5000
redata: DM Tolerance for SCF             =     0.000100
redata: Require Energy convergence for SCF =     F
redata: DM Energy tolerance for SCF      =     0.000100 eV
redata: Require Harris convergence for SCF =     F
redata: DM Harris energy tolerance for SCF =     0.000100 eV
redata: Using Saved Data (generic)   =     F
redata: Use continuation files for DM    =     T
redata: Neglect nonoverlap interactions  =     F
redata: Method of Calculation            =     Diagonalization
redata: Divide and Conquer               =     T
redata: Electronic Temperature           =     0.0019  Ry
redata: Fix the spin of the system       =     F
redata: Dynamics option                  =     Verlet MD run
redata: Initial MD time step             =        1
redata:   Final MD time step             =        1
redata: Length of MD time step           =     1.0000  fs
redata: Initial Temperature of MD run    =     0.0000  K
redata: Perform a MD quench              =     F
redata: ***********************************************************************
Total number of electrons:   313.000000
Total ionic charge:   313.000000

* ProcessorY, Blocksize:    2  24

k-point displ. along   1 input, could be:     0.50    0.00
k-point displ. along   2 input, could be:     0.50    0.00
 Kpoints in:          231 . Kpoints trimmed:          231

siesta: k-grid: Number of k-points =   231
siesta: k-grid: Cutoff (effective) =     5.000 Ang
siesta: k-grid: Supercell and displacements
siesta: k-grid:   21   0   0      0.500
siesta: k-grid:    0  21   0      0.500
siesta: k-grid:    0   0   1      0.000
Naive supercell factors:     2    2    2

superc: Internal auxiliary supercell:     2 x     2 x     2  =       8
superc: Number of atoms, orbitals, and projectors:    576   7488   9216

* Maximum dynamic memory allocated =     4 MB

siesta:                 ==============================
                            Begin MD step =      1
                        ==============================

superc: Internal auxiliary supercell:     2 x     2 x     2  =       8
superc: Number of atoms, orbitals, and projectors:    576   7488   9216

outcell: Unit cell vectors (Ang):
       12.804619    7.392750    0.000000
        0.000000   14.785500    0.000000
        0.000000    0.000000   10.000000

outcell: Cell vector modules (Ang)   :   14.785500   14.785500   10.000000
outcell: Cell angles (23,13,12) (deg):     90.0000     90.0000     60.0000
outcell: Cell volume (Ang**3)        :   1893.2269
New_DM. Step:     1
Initializing Density Matrix...

InitMesh: MESH =   120 x   120 x    90 =     1296000
InitMesh: Mesh cutoff (required, used) =   200.000   223.865 Ry

* Maximum dynamic memory allocated =   183 MB

stepf: Fermi-Dirac step function

siesta: Program's energy decomposition (eV):
siesta: Ebs     =     -6346.508193
siesta: Eions   =     22421.682175
siesta: Ena     =      4975.197836
siesta: Ekin    =      8476.244847
siesta: Enl     =      -100.886167
siesta: DEna    =        -0.000015
siesta: DUscf   =         0.000000
siesta: DUext   =         0.000000
siesta: Exc     =     -4799.169971
siesta: eta*DQ  =         0.000000
siesta: Emadel  =         0.000000
siesta: Emeta   =         0.000000
siesta: Emolmec =         0.000000
siesta: Ekinion =         0.000000
siesta: Eharris =    -13469.961453
siesta: Etot    =    -13870.295645
siesta: FreeEng =    -13870.295645

siesta: iscf   Eharris(eV)      E_KS(eV)   FreeEng(eV)   dDmax  Ef(eV)
siesta:    1   -13469.9615   -13870.2956   -13870.2956  6.1765 -6.3710
timer: Routine,Calls,Time,% = IterSCF        1    3380.781  99.69
elaps: Routine,Calls,Wall,% = IterSCF        1     423.427  99.69
siesta:    2   -17507.7055   -12842.6148   -12842.6567 19.6268 -3.3130
siesta:    3   -13370.3221   -13647.5970   -13647.6445  2.1956 -4.7663
siesta:    4   -13352.6088   -13500.4947   -13500.5475  1.0759 -3.6672
siesta:    5   -13316.3919   -13426.9577   -13427.0297  1.3343 -3.4908
siesta:    6   -13309.7099   -13405.3664   -13405.4339  1.1278 -3.5622
siesta:    7   -13306.0264   -13393.0543   -13393.1287  0.9688 -3.5168
siesta:    8   -13303.0390   -13380.6066   -13380.6520  0.7850 -3.6376
siesta:    9   -13301.3947   -13359.0548   -13359.1300  0.6633 -3.6068
siesta:   10   -13300.9606   -13350.6413   -13350.7120  0.5299 -3.6329
siesta:   11   -13300.4200   -13311.0681   -13311.1470  0.3331 -3.5994
siesta:   12   -13300.7638   -13293.0273   -13293.1184  0.2619 -3.5653
siesta:   13   -13300.4151   -13290.0956   -13290.1661  0.3926 -3.6126
siesta:   14   -13300.0831   -13291.7636   -13291.8606  0.1291 -3.6278
siesta:   15   -13299.9044   -13290.3915   -13290.4503  0.1188 -3.6226
siesta:   16   -13299.7930   -13288.4955   -13288.5484  0.0742 -3.6194
siesta:   17   -13299.7607   -13291.1809   -13291.2369  0.0549 -3.6312
siesta:   18   -13299.7324   -13294.5463   -13294.6008  0.0376 -3.6467
siesta:   19   -13299.7239   -13295.6099   -13295.6649  0.0264 -3.6462
siesta:   20   -13299.7183   -13296.6735   -13296.7326  0.0206 -3.6420
siesta:   21   -13299.7148   -13297.5825   -13297.6424  0.0164 -3.6386
siesta:   22   -13299.7110   -13297.9436   -13298.0030  0.0104 -3.6372
siesta:   23   -13299.7115   -13298.6008   -13298.6599  0.0120 -3.6350
siesta:   24   -13299.7103   -13298.9863   -13299.0440  0.0069 -3.6348
siesta:   25   -13299.7092   -13299.1562   -13299.2149  0.0049 -3.6363
siesta:   26   -13299.7087   -13299.5047   -13299.5637  0.0036 -3.6373
siesta:   27   -13299.7085   -13299.5405   -13299.5999  0.0023 -3.6373
siesta:   28   -13299.7083   -13299.5291   -13299.5886  0.0015 -3.6371
siesta:   29   -13299.7083   -13299.5281   -13299.5878  0.0014 -3.6370
siesta:   30   -13299.7082   -13299.5574   -13299.6171  0.0012 -3.6371
siesta:   31   -13299.7081   -13299.5875   -13299.6472  0.0007 -3.6371
siesta:   32   -13299.7082   -13299.6021   -13299.6619  0.0006 -3.6371
siesta:   33   -13299.7082   -13299.6549   -13299.7147  0.0005 -3.6371
siesta:   34   -13299.7083   -13299.6820   -13299.7417  0.0004 -3.6370
siesta:   35   -13299.7082   -13299.6981   -13299.7578  0.0001 -3.6372
siesta:   36   -13299.7082   -13299.7024   -13299.7622  0.0001 -3.6372
siesta:   37   -13299.7082   -13299.7004   -13299.7601  0.0001 -3.6372
siesta:   38   -13299.7082   -13299.7017   -13299.7614  0.0001 -3.6372
siesta:   39   -13299.7082   -13299.7041   -13299.7638  0.0001 -3.6372

siesta: E_KS(eV) =           -13299.7049

siesta: E_KS - E_eggbox =    -13299.7049

siesta: Atomic forces (eV/Ang):
----------------------------------------
   Tot   -0.073683   -0.352050    0.000000
----------------------------------------
   Max  681.087263
   Res  176.625320    sqrt( Sum f_i^2 / 3N )
----------------------------------------
   Max  681.087263    constrained

Stress-tensor-Voigt (kbar):     -617.03    -3222.42       -0.04        0.09        0.00        0.00
(Free)E + p*V (eV/cell)   -11787.4603
Target enthalpy (eV/cell)   -13299.7646

siesta: Stress tensor (static) (eV/Ang**3):
        -0.385114    0.000057    0.000000
         0.000057   -2.011255    0.000000
         0.000000    0.000000   -0.000022

siesta: Pressure (static):       1279.82800911  kBar

siesta: Stress tensor (total) (eV/Ang**3):
        -0.385114    0.000057    0.000000
         0.000057   -2.011255    0.000000
         0.000000    0.000000   -0.000022

siesta: Pressure (total):       1279.82800911  kBar

siesta: Temp_ion =       0.000 K

* Maximum dynamic memory allocated =   200 MB
Computing bands...

siesta: Program's energy decomposition (eV):
siesta: Ebs     =     -5126.360117
siesta: Eions   =     22421.682175
siesta: Ena     =      4975.197836
siesta: Ekin    =     11598.470697
siesta: Enl     =     -1791.984846
siesta: DEna    =      -794.702437
siesta: DUscf   =       108.722967
siesta: DUext   =         0.000000
siesta: Exc     =     -4973.726901
siesta: eta*DQ  =         0.000000
siesta: Emadel  =         0.000000
siesta: Emeta   =         0.000000
siesta: Emolmec =         0.000000
siesta: Ekinion =         0.000000
siesta: Eharris =    -13299.708221
siesta: Etot    =    -13299.704860
siesta: FreeEng =    -13299.764586

siesta: Final energy (eV):
siesta:  Band Struct. =   -5126.360117
siesta:       Kinetic =   11598.470697
siesta:       Hartree =   37830.824372
siesta:    Ext. field =       0.000000
siesta:   Exch.-corr. =   -4973.726901
siesta:  Ion-electron =  -86724.290028
siesta:       Ion-ion =   28969.017001
siesta:       Ekinion =       0.000000
siesta:         Total =  -13299.704860

siesta: Atomic forces (eV/Ang):
siesta:      1    0.015176 -122.604288    0.000000
siesta:      2   25.286060  655.378632    0.000000
siesta:      3   -1.890933 -111.305221    0.000000
siesta:      4   28.117038  653.102817    0.000000
siesta:      5   24.336100   -3.590714    0.000000
siesta:      6    0.317191    3.368350    0.000000
siesta:      7    4.592939   -0.071061    0.000000
siesta:      8  -25.128782  655.409981    0.000000
siesta:      9    1.912432 -111.284418    0.000000
siesta:     10   -0.047189 -119.243380    0.000000
siesta:     11   26.038157   -6.747700    0.000000
siesta:     12   -0.856049    2.767066    0.000000
siesta:     13    0.996261    0.798910    0.000000
siesta:     14  -28.284626  653.144884    0.000000
siesta:     15  -24.445760   -3.547277    0.000000
siesta:     16  -25.921528   -6.789741    0.000000
siesta:     17   -1.627271   -1.727030    0.000000
siesta:     18    1.076708    0.582328    0.000000
siesta:     19   -0.290218    3.349610    0.000000
siesta:     20   -4.580270   -0.047120    0.000000
siesta:     21    0.823101    2.775538    0.000000
siesta:     22   -1.003858    0.793166    0.000000
siesta:     23    1.668550   -1.742119    0.000000
siesta:     24   -1.043442    0.621486    0.000000
siesta:     25   -0.004967    1.037847    0.000000
siesta:     26   -0.016102  540.489052    0.000000
siesta:     27    3.463641  121.851047    0.000000
siesta:     28  -22.536309 -545.326488    0.000000
siesta:     29   -3.489542  121.845591    0.000000
siesta:     30   22.551191 -545.338441    0.000000
siesta:     31   26.170830    4.170148    0.000000
siesta:     32   22.554102 -654.994043    0.000000
siesta:     33    2.323375    0.292451    0.000000
siesta:     34   -2.475469    0.618824    0.000000
siesta:     35    1.943743    2.640430    0.000000
siesta:     36   -1.248258    0.093299    0.000000
siesta:     37  -26.179470    4.167269    0.000000
siesta:     38  -22.592268 -654.953396    0.000000
siesta:     39   -2.233382   -3.104550    0.000000
siesta:     40    0.676349   -1.788563    0.000000
siesta:     41   -0.546794    6.392825    0.000000
siesta:     42   -0.068543   -7.268377    0.000000
siesta:     43    0.032234  552.090674    0.000000
siesta:     44    7.267810  565.318096    0.000000
siesta:     45   -0.452715    0.822703    0.000000
siesta:     46   -1.199059   -1.523892    0.000000
siesta:     47   -7.273310  565.289002    0.000000
siesta:     48    0.006072  588.148575    0.000000
siesta:     49   -0.009521    0.436238    0.000000
siesta:     50    2.246773   -3.097797    0.000000
siesta:     51   -0.681590   -1.771787    0.000000
siesta:     52    0.455450    0.822306    0.000000
siesta:     53    1.179173   -1.539027    0.000000
siesta:     54    0.560423    6.395278    0.000000
siesta:     55    0.070923   -7.271082    0.000000
siesta:     56   -1.932574    2.629917    0.000000
siesta:     57    1.249812    0.088674    0.000000
siesta:     58   -0.047906    1.338075    0.000000
siesta:     59   -2.329856   -4.089297    0.000000
siesta:     60    0.009579 -570.179863    0.000000
siesta:     61    0.046108    1.337348    0.000000
siesta:     62    2.288655   -4.131421    0.000000
siesta:     63   23.769002    3.552952    0.000000
siesta:     64    2.485246 -681.046694    0.000000
siesta:     65  -23.804552    3.528168    0.000000
siesta:     66   -2.497780 -681.087263    0.000000
siesta:     67   -2.303946    0.291513    0.000000
siesta:     68    2.471325    0.646325    0.000000
siesta:     69    0.006796  118.910952    0.000000
siesta:     70   -0.030905 -550.416093    0.000000
siesta:     71   -0.007183  119.326874    0.000000
siesta:     72   -0.000080 -559.389129    0.000000
siesta: ----------------------------------------
siesta:    Tot   -0.073683   -0.352050    0.000000

siesta: Stress tensor (static) (eV/Ang**3):
siesta:    -0.385114    0.000057    0.000000
siesta:     0.000057   -2.011255    0.000000
siesta:     0.000000    0.000000   -0.000022

siesta: Cell volume =       1893.226884 Ang**3

siesta: Pressure (static):
siesta:                Solid            Molecule  Units
siesta:           0.00869992          0.14028333  Ry/Bohr**3
siesta:           0.79879718         12.88033806  eV/Ang**3
siesta:        1279.82800911      20636.79973779  kBar
(Free)E+ p_basis*V_orbitals  =      -13272.601059
(Free)Eharris+ p_basis*V_orbitals  =      -13272.605196

siesta: Electric dipole (a.u.)  =    0.000000    0.000000    0.000000
siesta: Electric dipole (Debye) =    0.000000    0.000000    0.000000

* Maximum dynamic memory allocated : Node    0 =   200 MB
* Maximum dynamic memory allocated : Node    1 =    72 MB
* Maximum dynamic memory allocated : Node    2 =    73 MB
* Maximum dynamic memory allocated : Node    3 =   187 MB
* Maximum dynamic memory allocated : Node    4 =   181 MB
* Maximum dynamic memory allocated : Node    5 =    69 MB
* Maximum dynamic memory allocated : Node    6 =    71 MB
* Maximum dynamic memory allocated : Node    7 =   168 MB

* Maximum memory occured during matrixMtoO                    

timer: CPU execution times:
timer:  Routine       Calls   Time/call    Tot.time        %
timer:  siesta            1  129286.438  129286.438   100.00
timer:  Setup             1       2.702       2.702     0.00
timer:  bands             3     243.455     730.364     0.56
timer:  writewave         1       0.018       0.018     0.00
timer:  KSV_init          1       0.003       0.003     0.00
timer:  IterMD            1  128548.144  128548.144    99.43
timer:  hsparse           1       0.279       0.279     0.00
timer:  overlap           1       7.126       7.126     0.01
timer:  IterSCF          39    3292.281  128398.958    99.31
timer:  kinefsm           2       3.667       7.334     0.01
timer:  nlefsm            2      17.100      34.200     0.03
timer:  DHSCF            40      73.342    2933.675     2.27
timer:  DHSCF1            1       0.745       0.745     0.00
timer:  DHSCF2            1      30.482      30.482     0.02
timer:  REORD           322       0.005       1.643     0.00
timer:  POISON           41       0.870      35.686     0.03
timer:  DHSCF3           40      71.860    2874.384     2.22
timer:  rhoofd           40      14.842     593.672     0.46
timer:  cellXC           40       3.316     132.653     0.10
timer:  vmat             40      33.218    1328.711     1.03
timer:  MolMec            2       0.000       0.000     0.00
timer:  diagon           39    3218.207  125510.063    97.08
timer:  c-eigval       9130       6.028   55033.274    42.57
timer:  c-buildHS      9130       0.046     421.249     0.33
timer:  cdiag         18139       6.164  111815.509    86.49
timer:  cdiag1        18139       0.387    7027.029     5.44
timer:  cdiag2        18139       1.767   32043.230    24.78
timer:  cdiag3        18139       3.737   67777.294    52.42
timer:  cdiag4        18139       0.152    2754.177     2.13
timer:  c-eigvec       9009       6.387   57543.798    44.51
timer:  c-buildD       9009       1.512   13617.809    10.53
timer:  DHSCF4            1      27.309      27.309     0.02
timer:  dfscf             1      25.467      25.467     0.02
timer:  overfsm           1       0.375       0.375     0.00
timer:  optical           1       4.565       4.565     0.00
  

elaps: ELAPSED times:
elaps:  Routine       Calls   Time/call    Tot.time        %
elaps:  siesta            1   16191.664   16191.664   100.00
elaps:  Setup             1       0.339       0.339     0.00
elaps:  bands             3      30.507      91.521     0.57
elaps:  writewave         1       0.002       0.002     0.00
elaps:  KSV_init          1       0.001       0.001     0.00
elaps:  IterMD            1   16099.200   16099.200    99.43
elaps:  hsparse           1       0.037       0.037     0.00
elaps:  overlap           1       0.899       0.899     0.01
elaps:  IterSCF          39     412.321   16080.517    99.31
elaps:  kinefsm           2       0.461       0.922     0.01
elaps:  nlefsm            2       2.141       4.282     0.03
elaps:  DHSCF            40       9.280     371.199     2.29
elaps:  DHSCF1            1       0.095       0.095     0.00
elaps:  DHSCF2            1       3.816       3.816     0.02
elaps:  REORD           322       0.001       0.208     0.00
elaps:  POISON           41       0.109       4.489     0.03
elaps:  DHSCF3           40       9.000     360.017     2.22
elaps:  rhoofd           40       4.280     171.186     1.06
elaps:  cellXC           40       0.415      16.607     0.10
elaps:  vmat             40       4.161     166.423     1.03
elaps:  MolMec            2       0.000       0.000     0.00
elaps:  diagon           39     403.051   15719.005    97.08
elaps:  c-eigval       9130       0.755    6892.237    42.57
elaps:  c-buildHS      9130       0.006      58.738     0.36
elaps:  cdiag         18139       0.767   13912.560    85.92
elaps:  cdiag1        18139       0.049     885.542     5.47
elaps:  cdiag2        18139       0.221    4013.901    24.79
elaps:  cdiag3        18139       0.469    8499.639    52.49
elaps:  cdiag4        18139       0.018     333.594     2.06
elaps:  c-eigvec       9009       0.791    7125.572    44.01
elaps:  c-buildD       9009       0.198    1786.283    11.03
elaps:  DHSCF4            1       7.179       7.179     0.04
elaps:  dfscf             1       6.781       6.781     0.04
elaps:  overfsm           1       0.049       0.049     0.00
elaps:  optical           1       0.000       0.000     0.00
  
>> End of run:  22-APR-2016  17:13:57
