Siesta Version:                                        siesta-3.2-pl-3
Architecture  : x86_64-unknown-linux-gnu--unknown
Compiler flags: mpiifort -g -O2 -fPIC -xSSE4.1 -fp-model source -shared-intel 
PARALLEL version

* Running on    8 nodes in parallel
>> Start of run:  30-APR-2016  20:48:56

                           ***********************       
                           *  WELCOME TO SIESTA  *       
                           ***********************       

reinit: Reading from standard input
************************** Dump of input data file ****************************
#(1) General system descriptors
SystemName            GRP_doping    # Descriptive name of the system
SystemLabel           GRP_doping    # Short name for naming files
%include STRUCT.fdf
%include KPT.fdf
%include BASIS.fdf
#%include TS.fdf # for transiesta calculation
#(4) DFT, Grid, SCF
XC.functional         GGA           # LDA or GGA (default = LDA)
XC.authors            PBE           # CA (Ceperley-Aldr) = PZ
                                    #    (Perdew-Zunger) - LDA - Default
                                    # PW92 (Perdew-Wang-92) - LDA
                                    # PBE (Perdew-Burke-Ernzerhof) - GGA
MeshCutoff            200.000000    Ry      # Default: 50.0 Ry ~ 0.444 Bohr
                                    #         100.0 Ry ~ 0.314 Bohr
MaxSCFIterations      500           # Default: 50
DM.MixingWeight       0.05          # Default: 0.25
DM.NumberPulay        10            # Default: 0
DM.PulayOnFile        F             # SystemLabel.P1, SystemLabel.P2
DM.Tolerance          1.d-4         # Default: 1.d-4
DM.UseSaveDM          .true.        # because of the bug
SCFMustConverge       .true.
NeglNonOverlapInt     F             # Default: F
#(5) Eigenvalue problem: order-N or diagonalization
SolutionMethod        Diagon        # or Transiesta
ElectronicTemperature 300.0 K       # Default: 300.0 K
#(6) Molecular dynamics and relaxations
#MD.TypeOfRun          CG            # Type of dynamics:
#MD.VariableCell       F
#MD.NumCGsteps         0           # 0 for single-point / 100 for gopt
#MD.MaxCGDispl         0.2 Bohr      # Default: 0.2 Bohr
#MD.MaxForceTol        0.02 eV/Ang   # Default: 0.04 eV/Ang
#MD.MaxStressTol       1.0 GPa       # Default: 1.0 GPa
# Geometry Constraints
#%block GeometryConstraints
#	position from 1 to 44
#%endblock GeometryConstraints
BandLinesScale   pi/a
%block BandLines
 1   0.00000000  0.00000000  0.00000000
50   0.00000000  0.07809418  0.00000000
50   0.04509075  0.07809242  0.00000000
20   0.00000000  0.00000000  0.00000000
%endblock BandLines
************************** End of input data file *****************************

reinit: -----------------------------------------------------------------------
reinit: System Name: GRP_doping
reinit: -----------------------------------------------------------------------
reinit: System Label: GRP_doping                                                  
reinit: -----------------------------------------------------------------------

initatom: Reading input for the pseudopotentials and atomic orbitals ----------
 Species number:            1  Label: B Atomic number:           5
 Species number:            2  Label: C Atomic number:           6
Ground state valence configuration:   2s02  2p01
Reading pseudopotential information in formatted form from B.psf

Valence configuration for pseudopotential generation:
2s( 2.00) rc: 1.74
2p( 1.00) rc: 1.74
3d( 0.00) rc: 1.74
4f( 0.00) rc: 1.74
Ground state valence configuration:   2s02  2p02
Reading pseudopotential information in formatted form from C.psf

Valence configuration for pseudopotential generation:
2s( 2.00) rc: 1.54
2p( 2.00) rc: 1.54
3d( 0.00) rc: 1.54
4f( 0.00) rc: 1.54
For B, standard SIESTA heuristics set lmxkb to 3
 (one more than the basis l, including polarization orbitals).
Use PS.lmax or PS.KBprojectors blocks to override.
For C, standard SIESTA heuristics set lmxkb to 3
 (one more than the basis l, including polarization orbitals).
Use PS.lmax or PS.KBprojectors blocks to override.

<basis_specs>
===============================================================================
B                    Z=   5    Mass=  10.810        Charge= 0.17977+309
Lmxo=1 Lmxkb= 3    BasisType=split      Semic=F
L=0  Nsemic=0  Cnfigmx=2
          n=1  nzeta=2  polorb=0
            splnorm:   0.15000    
               vcte:    0.0000    
               rinn:    0.0000    
                rcs:    0.0000      0.0000    
            lambdas:    1.0000      1.0000    
L=1  Nsemic=0  Cnfigmx=2
          n=1  nzeta=2  polorb=1
            splnorm:   0.15000    
               vcte:    0.0000    
               rinn:    0.0000    
                rcs:    0.0000      0.0000    
            lambdas:    1.0000      1.0000    
-------------------------------------------------------------------------------
L=0  Nkbl=1  erefs: 0.17977+309
L=1  Nkbl=1  erefs: 0.17977+309
L=2  Nkbl=1  erefs: 0.17977+309
L=3  Nkbl=1  erefs: 0.17977+309
===============================================================================
</basis_specs>

atom: Called for B                     (Z =   5)

read_vps: Pseudopotential generation method:
read_vps: ATM3      Troullier-Martins                       
Total valence charge:    3.00000

read_vps: Pseudopotential includes a core correction:
read_vps: Pseudo-core for xc-correction

xc_check: Exchange-correlation functional:
xc_check: GGA Perdew, Burke & Ernzerhof 1996
V l=0 = -2*Zval/r beyond r=  1.7165
V l=1 = -2*Zval/r beyond r=  1.7165
V l=2 = -2*Zval/r beyond r=  1.7165
V l=3 = -2*Zval/r beyond r=  1.6951
All V_l potentials equal beyond r=  1.7165
This should be close to max(r_c) in ps generation
All pots = -2*Zval/r beyond r=  1.7165

VLOCAL1: 99.0% of the norm of Vloc inside     14.733 Ry
VLOCAL1: 99.9% of the norm of Vloc inside     33.577 Ry
atom: Maximum radius for 4*pi*r*r*local-pseudopot. charge    2.04484
atom: Maximum radius for r*vlocal+2*Zval:    1.75994
GHOST: No ghost state for L =  0
GHOST: No ghost state for L =  1
GHOST: No ghost state for L =  2
GHOST: No ghost state for L =  3

KBgen: Kleinman-Bylander projectors: 
   l= 0   rc=  1.897051   el= -0.693730   Ekb=  4.595746   kbcos=  0.286105
   l= 1   rc=  1.920920   el= -0.265236   Ekb= -2.350715   kbcos= -0.315747
   l= 2   rc=  2.044840   el=  0.002055   Ekb= -0.690767   kbcos= -0.013822
   l= 3   rc=  2.149707   el=  0.003188   Ekb= -0.315358   kbcos= -0.002055

KBgen: Total number of  Kleinman-Bylander projectors:   16
atom: -------------------------------------------------------------------------

atom: SANKEY-TYPE ORBITALS:
atom: Selected multiple-zeta basis: split     

SPLIT: Orbitals with angular momentum L= 0

SPLIT: Basis orbitals for state 2s

SPLIT: PAO cut-off radius determined from an
SPLIT: energy shift=  0.007350 Ry

   izeta = 1
                 lambda =    1.000000
                     rc =    5.422032
                 energy =   -0.686029
                kinetic =    0.576707
    potential(screened) =   -1.262736
       potential(ionic) =   -3.271094

   izeta = 2
                 rmatch =    4.222573
              splitnorm =    0.150000
                 energy =   -0.602132
                kinetic =    0.858975
    potential(screened) =   -1.461107
       potential(ionic) =   -3.582536

SPLIT: Orbitals with angular momentum L= 1

SPLIT: Basis orbitals for state 2p

SPLIT: PAO cut-off radius determined from an
SPLIT: energy shift=  0.007350 Ry

   izeta = 1
                 lambda =    1.000000
                     rc =    6.790259
                 energy =   -0.258578
                kinetic =    1.481412
    potential(screened) =   -1.739989
       potential(ionic) =   -3.657461

   izeta = 2
                 rmatch =    4.608740
              splitnorm =    0.150000
                 energy =   -0.173757
                kinetic =    2.186690
    potential(screened) =   -2.360447
       potential(ionic) =   -4.464260

POLgen: Perturbative polarization orbital with L=  2

POLgen: Polarization orbital for state 2p

   izeta = 1
                     rc =    6.790259
                 energy =    0.684082
                kinetic =    1.471481
    potential(screened) =   -0.787399
       potential(ionic) =   -2.406985
atom: Total number of Sankey-type orbitals: 13

atm_pop: Valence configuration (for local Pseudopot. screening):
 2s( 2.00)                                                            
 2p( 1.00)                                                            
Vna: chval, zval:    3.00000   3.00000

Vna:  Cut-off radius for the neutral-atom potential:   6.790259
comcore: Pseudo-core radius Rcore=  2.122997

atom: _________________________________________________________________________

<basis_specs>
===============================================================================
C                    Z=   6    Mass=  12.010        Charge= 0.17977+309
Lmxo=1 Lmxkb= 3    BasisType=split      Semic=F
L=0  Nsemic=0  Cnfigmx=2
          n=1  nzeta=2  polorb=0
            splnorm:   0.15000    
               vcte:    0.0000    
               rinn:    0.0000    
                rcs:    0.0000      0.0000    
            lambdas:    1.0000      1.0000    
L=1  Nsemic=0  Cnfigmx=2
          n=1  nzeta=2  polorb=1
            splnorm:   0.15000    
               vcte:    0.0000    
               rinn:    0.0000    
                rcs:    0.0000      0.0000    
            lambdas:    1.0000      1.0000    
-------------------------------------------------------------------------------
L=0  Nkbl=1  erefs: 0.17977+309
L=1  Nkbl=1  erefs: 0.17977+309
L=2  Nkbl=1  erefs: 0.17977+309
L=3  Nkbl=1  erefs: 0.17977+309
===============================================================================
</basis_specs>

atom: Called for C                     (Z =   6)

read_vps: Pseudopotential generation method:
read_vps: ATM3      Troullier-Martins                       
Total valence charge:    4.00000

read_vps: Pseudopotential includes a core correction:
read_vps: Pseudo-core for xc-correction

xc_check: Exchange-correlation functional:
xc_check: GGA Perdew, Burke & Ernzerhof 1996
V l=0 = -2*Zval/r beyond r=  1.5227
V l=1 = -2*Zval/r beyond r=  1.5227
V l=2 = -2*Zval/r beyond r=  1.5227
V l=3 = -2*Zval/r beyond r=  1.5038
All V_l potentials equal beyond r=  1.5227
This should be close to max(r_c) in ps generation
All pots = -2*Zval/r beyond r=  1.5227

VLOCAL1: 99.0% of the norm of Vloc inside     18.722 Ry
VLOCAL1: 99.9% of the norm of Vloc inside     42.668 Ry
atom: Maximum radius for 4*pi*r*r*local-pseudopot. charge    1.83678
atom: Maximum radius for r*vlocal+2*Zval:    1.58088
GHOST: No ghost state for L =  0
GHOST: No ghost state for L =  1
GHOST: No ghost state for L =  2
GHOST: No ghost state for L =  3

KBgen: Kleinman-Bylander projectors: 
   l= 0   rc=  1.704034   el= -1.009801   Ekb=  5.335044   kbcos=  0.316824
   l= 1   rc=  1.704034   el= -0.388707   Ekb= -3.785862   kbcos= -0.366464
   l= 2   rc=  1.791422   el=  0.001971   Ekb= -0.970471   kbcos= -0.009212
   l= 3   rc=  1.859892   el=  0.003065   Ekb= -0.399525   kbcos= -0.001223

KBgen: Total number of  Kleinman-Bylander projectors:   16
atom: -------------------------------------------------------------------------

atom: SANKEY-TYPE ORBITALS:
atom: Selected multiple-zeta basis: split     

SPLIT: Orbitals with angular momentum L= 0

SPLIT: Basis orbitals for state 2s

SPLIT: PAO cut-off radius determined from an
SPLIT: energy shift=  0.007350 Ry

   izeta = 1
                 lambda =    1.000000
                     rc =    4.632753
                 energy =   -1.002270
                kinetic =    0.855760
    potential(screened) =   -1.858031
       potential(ionic) =   -5.417575

   izeta = 2
                 rmatch =    3.431921
              splitnorm =    0.150000
                 energy =   -0.867111
                kinetic =    1.300804
    potential(screened) =   -2.167915
       potential(ionic) =   -5.962684

SPLIT: Orbitals with angular momentum L= 1

SPLIT: Basis orbitals for state 2p

SPLIT: PAO cut-off radius determined from an
SPLIT: energy shift=  0.007350 Ry

   izeta = 1
                 lambda =    1.000000
                     rc =    5.658549
                 energy =   -0.381140
                kinetic =    2.399701
    potential(screened) =   -2.780841
       potential(ionic) =   -6.206085

   izeta = 2
                 rmatch =    3.653288
              splitnorm =    0.150000
                 energy =   -0.249149
                kinetic =    3.542762
    potential(screened) =   -3.791911
       potential(ionic) =   -7.581078

POLgen: Perturbative polarization orbital with L=  2

POLgen: Polarization orbital for state 2p

   izeta = 1
                     rc =    5.658549
                 energy =    1.109913
                kinetic =    2.304789
    potential(screened) =   -1.194876
       potential(ionic) =   -4.013592
atom: Total number of Sankey-type orbitals: 13

atm_pop: Valence configuration (for local Pseudopot. screening):
 2s( 2.00)                                                            
 2p( 2.00)                                                            
Vna: chval, zval:    4.00000   4.00000

Vna:  Cut-off radius for the neutral-atom potential:   5.658549
comcore: Pseudo-core radius Rcore=  1.791422

atom: _________________________________________________________________________

prinput: Basis input ----------------------------------------------------------

PAO.BasisType split     

%block ChemicalSpeciesLabel
    1    5 B                       # Species index, atomic number, species label
    2    6 C                       # Species index, atomic number, species label
%endblock ChemicalSpeciesLabel

%block PAO.Basis                 # Define Basis set
B                     2                    # Species label, number of l-shells
 n=2   0   2                         # n, l, Nzeta 
   5.422      4.223   
   1.000      1.000   
 n=2   1   2 P   1                   # n, l, Nzeta, Polarization, NzetaPol
   6.790      4.609   
   1.000      1.000   
C                     2                    # Species label, number of l-shells
 n=2   0   2                         # n, l, Nzeta 
   4.633      3.432   
   1.000      1.000   
 n=2   1   2 P   1                   # n, l, Nzeta, Polarization, NzetaPol
   5.659      3.653   
   1.000      1.000   
%endblock PAO.Basis

prinput: ----------------------------------------------------------------------

coor:   Atomic-coordinates input format  =     Fractional

siesta: Atomic coordinates (Bohr) and species
siesta:      9.28770  29.48119   0.00000  1        1
siesta:      2.30256   6.62836   0.00000  1        2
siesta:      4.63094  13.34970   0.00000  1        3
siesta:     -2.35420   6.62836   0.00000  1        4
siesta:     -0.02582  13.34970   0.00000  1        5
siesta:     -4.68258  13.34970   0.00000  1        6
siesta:     -0.02582  21.41544   0.00000  1        7
siesta:     -4.68258  18.72698   0.00000  1        8
siesta:     -4.68258  21.41544   0.00000  1        9
siesta:     -2.35420  22.75985   0.00000  1       10
siesta:     -2.35420  25.44831   0.00000  1       11
siesta:     -9.33934  29.48119   0.00000  1       12
siesta:      4.63094  29.48119   0.00000  1       13
siesta:     -0.02582  29.48119   0.00000  1       14
siesta:     -4.68258  26.79272   0.00000  1       15
siesta:     -4.68258  29.48119   0.00000  1       16
siesta:     -7.01096  30.82560   0.00000  1       17
siesta:     -0.02582   2.59549   0.00000  2       18
siesta:     -0.02582   5.28395   0.00000  2       19
siesta:     -2.35420  38.89134   0.00000  2       20
siesta:     -2.35420  41.57980   0.00000  2       21
siesta:      2.30256  38.89134   0.00000  2       22
siesta:      2.30256  41.57980   0.00000  2       23
siesta:      4.63094  34.85847   0.00000  2       24
siesta:      4.63094  37.54693   0.00000  2       25
siesta:      6.95932  30.82560   0.00000  2       26
siesta:      6.95932  33.51406   0.00000  2       27
siesta:      9.28770  26.79272   0.00000  2       28
siesta:     -4.68258  34.85847   0.00000  2       29
siesta:     -4.68258  37.54693   0.00000  2       30
siesta:      2.30256   9.31683   0.00000  2       31
siesta:      4.63094  10.66124   0.00000  2       32
siesta:      6.95932  14.69411   0.00000  2       33
siesta:      6.95932  17.38257   0.00000  2       34
siesta:      9.28770  18.72698   0.00000  2       35
siesta:      9.28770  21.41544   0.00000  2       36
siesta:     11.61608  22.75985   0.00000  2       37
siesta:     11.61608  25.44831   0.00000  2       38
siesta:     -2.35420   9.31683   0.00000  2       39
siesta:     -0.02582  10.66124   0.00000  2       40
siesta:      2.30256  14.69411   0.00000  2       41
siesta:      2.30256  17.38257   0.00000  2       42
siesta:      4.63094  18.72698   0.00000  2       43
siesta:      4.63094  21.41544   0.00000  2       44
siesta:      6.95932  22.75985   0.00000  2       45
siesta:      6.95932  25.44831   0.00000  2       46
siesta:     -4.68258  10.66124   0.00000  2       47
siesta:     -2.35420  14.69411   0.00000  2       48
siesta:     -2.35420  17.38257   0.00000  2       49
siesta:     -0.02582  18.72698   0.00000  2       50
siesta:      2.30256  22.75985   0.00000  2       51
siesta:      2.30256  25.44831   0.00000  2       52
siesta:     -7.01096  14.69411   0.00000  2       53
siesta:     -7.01096  17.38257   0.00000  2       54
siesta:     -9.33934  18.72698   0.00000  2       55
siesta:     -9.33934  21.41544   0.00000  2       56
siesta:     -7.01096  22.75985   0.00000  2       57
siesta:     -7.01096  25.44831   0.00000  2       58
siesta:    -11.66772  22.75985   0.00000  2       59
siesta:    -11.66772  25.44831   0.00000  2       60
siesta:     -9.33934  26.79272   0.00000  2       61
siesta:      4.63094  26.79272   0.00000  2       62
siesta:     -0.02582  26.79272   0.00000  2       63
siesta:      2.30256  30.82560   0.00000  2       64
siesta:      2.30256  33.51406   0.00000  2       65
siesta:     -2.35420  30.82560   0.00000  2       66
siesta:     -2.35420  33.51406   0.00000  2       67
siesta:     -7.01096  33.51406   0.00000  2       68
siesta:     -0.02582  34.85847   0.00000  2       69
siesta:     -0.02582  37.54693   0.00000  2       70
siesta:     -0.02582  42.92421   0.00000  2       71
siesta:     -0.02582  45.61267   0.00000  2       72

siesta: System type = slab      

initatomlists: Number of atoms, orbitals, and projectors:     72   936  1152

siesta: ******************** Simulation parameters ****************************
siesta:
siesta: The following are some of the parameters of the simulation.
siesta: A complete list of the parameters used, including default values,
siesta: can be found in file out.fdf
siesta:
redata: Non-Collinear-spin run           =     F
redata: SpinPolarized (Up/Down) run      =     F
redata: Number of spin components        =     1
redata: Long output                      =     F
redata: Number of Atomic Species         =        2
redata: Charge density info will appear in .RHO file
redata: Write Mulliken Pop.              =     NO
redata: Mesh Cutoff                      =   200.0000  Ry
redata: Net charge of the system         =     0.0000 |e|
redata: Max. number of SCF Iter          =      500
redata: SCF convergence failure will abort job
redata: Performing Pulay mixing using    =    10 iterations
redata: Mix DM in first SCF step ?       =     F
redata: Write Pulay info on disk?        =     F
redata: Discard 1st Pulay DM after  kick =     F
redata: New DM Mixing Weight             =     0.0500
redata: New DM Occupancy tolerance       = 0.000000000001
redata: No kicks to SCF
redata: DM Mixing Weight for Kicks       =     0.5000
redata: DM Tolerance for SCF             =     0.000100
redata: Require Energy convergence for SCF =     F
redata: DM Energy tolerance for SCF      =     0.000100 eV
redata: Require Harris convergence for SCF =     F
redata: DM Harris energy tolerance for SCF =     0.000100 eV
redata: Using Saved Data (generic)   =     F
redata: Use continuation files for DM    =     T
redata: Neglect nonoverlap interactions  =     F
redata: Method of Calculation            =     Diagonalization
redata: Divide and Conquer               =     T
redata: Electronic Temperature           =     0.0019  Ry
redata: Fix the spin of the system       =     F
redata: Dynamics option                  =     Verlet MD run
redata: Initial MD time step             =        1
redata:   Final MD time step             =        1
redata: Length of MD time step           =     1.0000  fs
redata: Initial Temperature of MD run    =     0.0000  K
redata: Perform a MD quench              =     F
redata: ***********************************************************************
Total number of electrons:   271.000000
Total ionic charge:   271.000000

* ProcessorY, Blocksize:    2  24

k-point displ. along   1 input, could be:     0.50    0.00
k-point displ. along   2 input, could be:     0.50    0.00
 Kpoints in:          231 . Kpoints trimmed:          231

siesta: k-grid: Number of k-points =   231
siesta: k-grid: Cutoff (effective) =     5.000 Ang
siesta: k-grid: Supercell and displacements
siesta: k-grid:   21   0   0      0.500
siesta: k-grid:    0  21   0      0.500
siesta: k-grid:    0   0   1      0.000
Naive supercell factors:     2    2    2

superc: Internal auxiliary supercell:     2 x     2 x     2  =       8
superc: Number of atoms, orbitals, and projectors:    576   7488   9216

* Maximum dynamic memory allocated =     4 MB

siesta:                 ==============================
                            Begin MD step =      1
                        ==============================

superc: Internal auxiliary supercell:     2 x     2 x     2  =       8
superc: Number of atoms, orbitals, and projectors:    576   7488   9216

outcell: Unit cell vectors (Ang):
       12.804619    7.392750    0.000000
        0.000000   14.785500    0.000000
        0.000000    0.000000   10.000000

outcell: Cell vector modules (Ang)   :   14.785500   14.785500   10.000000
outcell: Cell angles (23,13,12) (deg):     90.0000     90.0000     60.0000
outcell: Cell volume (Ang**3)        :   1893.2269
New_DM. Step:     1
Initializing Density Matrix...

InitMesh: MESH =   120 x   120 x    90 =     1296000
InitMesh: Mesh cutoff (required, used) =   200.000   223.865 Ry

* Maximum dynamic memory allocated =   222 MB

stepf: Fermi-Dirac step function

siesta: Program's energy decomposition (eV):
siesta: Ebs     =     -5599.474834
siesta: Eions   =     16226.046981
siesta: Ena     =      4310.011221
siesta: Ekin    =      5481.631332
siesta: Enl     =       777.679877
siesta: DEna    =        -0.000009
siesta: DUscf   =         0.000000
siesta: DUext   =         0.000000
siesta: Exc     =     -4195.148376
siesta: eta*DQ  =         0.000000
siesta: Emadel  =         0.000000
siesta: Emeta   =         0.000000
siesta: Emolmec =         0.000000
siesta: Ekinion =         0.000000
siesta: Eharris =     -9592.178236
siesta: Etot    =     -9851.872937
siesta: FreeEng =     -9851.872937

siesta: iscf   Eharris(eV)      E_KS(eV)   FreeEng(eV)   dDmax  Ef(eV)
siesta:    1    -9592.1782    -9851.8729    -9851.8729  6.1986 -8.3530
timer: Routine,Calls,Time,% = IterSCF        1    3451.493  99.66
elaps: Routine,Calls,Wall,% = IterSCF        1     432.336  99.65
siesta:    2   -14393.4753    -8857.2747    -8857.3312 23.1910 -2.9431
siesta:    3    -9530.7182    -9718.9600    -9719.0083  3.1922 -6.8983
siesta:    4    -9511.9602    -9594.3525    -9594.4123  1.5372 -5.5844
siesta:    5    -9471.1702    -9519.9360    -9519.9910  1.1562 -5.4230
siesta:    6    -9451.6354    -9468.7227    -9468.7400  0.7054 -5.3239
siesta:    7    -9449.0290    -9451.1480    -9451.1919  0.6572 -5.2577
siesta:    8    -9442.8609    -9436.7682    -9436.8097  0.5733 -5.0626
siesta:    9    -9443.3757    -9428.2544    -9428.2911  0.5534 -5.0172
siesta:   10    -9442.4806    -9423.3135    -9423.3449  0.4797 -4.9908
siesta:   11    -9441.2603    -9418.6739    -9418.7061  0.3259 -5.0779
siesta:   12    -9441.5935    -9413.9678    -9414.0136  0.2171 -5.0356
siesta:   13    -9441.0576    -9414.8957    -9414.9589  0.1823 -5.0593
siesta:   14    -9440.4315    -9420.4987    -9420.5600  0.1640 -5.0744
siesta:   15    -9440.2323    -9427.8404    -9427.9004  0.1178 -5.0999
siesta:   16    -9440.1587    -9431.8659    -9431.9209  0.0844 -5.1213
siesta:   17    -9440.1070    -9435.4431    -9435.5025  0.0643 -5.1010
siesta:   18    -9440.0755    -9435.4372    -9435.4895  0.0344 -5.1060
siesta:   19    -9440.0681    -9436.1804    -9436.2379  0.0263 -5.0913
siesta:   20    -9440.0564    -9436.4074    -9436.4662  0.0191 -5.0942
siesta:   21    -9440.0542    -9437.0882    -9437.1486  0.0148 -5.0868
siesta:   22    -9440.0521    -9438.5647    -9438.6245  0.0098 -5.0926
siesta:   23    -9440.0509    -9439.2729    -9439.3332  0.0059 -5.0951
siesta:   24    -9440.0504    -9439.6625    -9439.7228  0.0053 -5.0935
siesta:   25    -9440.0502    -9439.7519    -9439.8121  0.0045 -5.0928
siesta:   26    -9440.0501    -9439.8537    -9439.9139  0.0033 -5.0923
siesta:   27    -9440.0501    -9439.8341    -9439.8943  0.0014 -5.0920
siesta:   28    -9440.0501    -9439.8731    -9439.9334  0.0014 -5.0918
siesta:   29    -9440.0501    -9439.9360    -9439.9962  0.0011 -5.0923
siesta:   30    -9440.0501    -9440.0003    -9440.0605  0.0005 -5.0928
siesta:   31    -9440.0501    -9440.0192    -9440.0794  0.0003 -5.0928
siesta:   32    -9440.0501    -9440.0365    -9440.0967  0.0003 -5.0926
siesta:   33    -9440.0501    -9440.0486    -9440.1088  0.0003 -5.0927
siesta:   34    -9440.0501    -9440.0502    -9440.1104  0.0002 -5.0926
siesta:   35    -9440.0501    -9440.0484    -9440.1086  0.0001 -5.0926
siesta:   36    -9440.0501    -9440.0473    -9440.1075  0.0001 -5.0926

siesta: E_KS(eV) =            -9440.0492

siesta: E_KS - E_eggbox =     -9440.0492

siesta: Atomic forces (eV/Ang):
----------------------------------------
   Tot   -0.024411    0.110942    0.000000
----------------------------------------
   Max  559.481690
   Res  148.482755    sqrt( Sum f_i^2 / 3N )
----------------------------------------
   Max  559.481690    constrained

Stress-tensor-Voigt (kbar):     -799.92    -2663.27       -0.55       -3.55        0.00        0.00
(Free)E + p*V (eV/cell)    -8075.8036
Target enthalpy (eV/cell)    -9440.1094

siesta: Stress tensor (static) (eV/Ang**3):
        -0.499268   -0.002213    0.000000
        -0.002213   -1.662265    0.000000
         0.000000    0.000000   -0.000341

siesta: Pressure (static):       1154.58034022  kBar

siesta: Stress tensor (total) (eV/Ang**3):
        -0.499268   -0.002213    0.000000
        -0.002213   -1.662265    0.000000
         0.000000    0.000000   -0.000341

siesta: Pressure (total):       1154.58034022  kBar

siesta: Temp_ion =       0.000 K

* Maximum dynamic memory allocated =   238 MB
Computing bands...

siesta: Program's energy decomposition (eV):
siesta: Ebs     =     -4230.521198
siesta: Eions   =     16226.046981
siesta: Ena     =      4310.011221
siesta: Ekin    =      8370.064629
siesta: Enl     =      -844.873390
siesta: DEna    =      -788.092401
siesta: DUscf   =       105.982613
siesta: DUext   =         0.000000
siesta: Exc     =     -4367.094873
siesta: eta*DQ  =         0.000000
siesta: Emadel  =         0.000000
siesta: Emeta   =         0.000000
siesta: Emolmec =         0.000000
siesta: Ekinion =         0.000000
siesta: Eharris =     -9440.050061
siesta: Etot    =     -9440.049181
siesta: FreeEng =     -9440.109386

siesta: Final energy (eV):
siesta:  Band Struct. =   -4230.521198
siesta:       Kinetic =    8370.064629
siesta:       Hartree =   27217.887071
siesta:    Ext. field =       0.000000
siesta:   Exch.-corr. =   -4367.094873
siesta:  Ion-electron =  -62513.721196
siesta:       Ion-ion =   21852.815188
siesta:       Ekinion =       0.000000
siesta:         Total =   -9440.049181

siesta: Atomic forces (eV/Ang):
siesta:      1   -0.072199    1.316441    0.000000
siesta:      2   10.614593  401.137049    0.000000
siesta:      3   22.606050   -1.369319    0.000000
siesta:      4  -11.053990  401.758338    0.000000
siesta:      5    0.300053 -114.234556    0.000000
siesta:      6  -22.260700   -2.305198    0.000000
siesta:      7    3.337564   -0.592435    0.000000
siesta:      8    2.739974   -4.168425    0.000000
siesta:      9   -3.701972    2.865542    0.000000
siesta:     10   -0.784570   -2.300197    0.000000
siesta:     11    5.672236    4.567205    0.000000
siesta:     12   -4.485067   -2.274087    0.000000
siesta:     13   -1.160512    0.089280    0.000000
siesta:     14    0.611476 -417.043018    0.000000
siesta:     15   -5.288838   -3.239112    0.000000
siesta:     16    6.913306    3.341991    0.000000
siesta:     17   -4.355282    6.278543    0.000000
siesta:     18   -0.652153  410.831147    0.000000
siesta:     19   -0.318915 -110.027501    0.000000
siesta:     20   -0.470434  129.904334    0.000000
siesta:     21  -18.186369 -546.244017    0.000000
siesta:     22    0.473529  129.855169    0.000000
siesta:     23   16.590035 -545.300167    0.000000
siesta:     24   26.850231    1.632357    0.000000
siesta:     25   33.586842 -555.208642    0.000000
siesta:     26    4.093060    5.460726    0.000000
siesta:     27   -2.440044    1.239468    0.000000
siesta:     28    3.526042   -1.673056    0.000000
siesta:     29  -26.740097    2.294939    0.000000
siesta:     30  -33.000959 -555.870310    0.000000
siesta:     31    1.615030 -125.688114    0.000000
siesta:     32   29.635255  549.061623    0.000000
siesta:     33   -1.337290   -0.743531    0.000000
siesta:     34    2.573800   -0.132830    0.000000
siesta:     35   -0.396199   -0.071673    0.000000
siesta:     36    1.881395   -2.083506    0.000000
siesta:     37   -0.073617    6.376698    0.000000
siesta:     38   -0.384656   -6.258832    0.000000
siesta:     39   -1.750177 -125.555808    0.000000
siesta:     40   -0.454297  544.200786    0.000000
siesta:     41   25.291646  544.775787    0.000000
siesta:     42   21.123272   -5.857363    0.000000
siesta:     43   -0.406948    1.445156    0.000000
siesta:     44    0.184640    0.506336    0.000000
siesta:     45    0.156020    0.848036    0.000000
siesta:     46   -0.712570   -1.261836    0.000000
siesta:     47  -30.198650  550.042338    0.000000
siesta:     48  -22.502996  545.747004    0.000000
siesta:     49  -19.192310   -6.532602    0.000000
siesta:     50   -0.162455  559.481690    0.000000
siesta:     51    2.766859    0.516817    0.000000
siesta:     52    1.112972    0.330394    0.000000
siesta:     53    1.359774    0.321300    0.000000
siesta:     54   -7.737456   -2.236425    0.000000
siesta:     55    0.492681   -0.432306    0.000000
siesta:     56   -2.449110   -1.557450    0.000000
siesta:     57   -2.697417    3.287510    0.000000
siesta:     58   -3.112270   -3.360649    0.000000
siesta:     59   -0.154965    5.685787    0.000000
siesta:     60   -0.169984   -5.711867    0.000000
siesta:     61   -3.566085   -1.663287    0.000000
siesta:     62   -0.286597   -4.071272    0.000000
siesta:     63    2.254492   -0.788573    0.000000
siesta:     64   18.981671    0.514043    0.000000
siesta:     65   32.636753 -405.931078    0.000000
siesta:     66  -19.094174    0.556317    0.000000
siesta:     67  -32.595637 -406.824880    0.000000
siesta:     68    3.634071    3.794817    0.000000
siesta:     69    0.389718  120.080427    0.000000
siesta:     70    0.655186 -551.711028    0.000000
siesta:     71   -1.287294  133.511162    0.000000
siesta:     72    1.010621 -553.220662    0.000000
siesta: ----------------------------------------
siesta:    Tot   -0.024411    0.110942    0.000000

siesta: Stress tensor (static) (eV/Ang**3):
siesta:    -0.499268   -0.002213    0.000000
siesta:    -0.002213   -1.662265    0.000000
siesta:     0.000000    0.000000   -0.000341

siesta: Cell volume =       1893.226884 Ang**3

siesta: Pressure (static):
siesta:                Solid            Molecule  Units
siesta:           0.00784852          0.11402673  Ry/Bohr**3
siesta:           0.72062458         10.46954636  eV/Ang**3
siesta:        1154.58034022      16774.24385255  kBar
(Free)E+ p_basis*V_orbitals  =       -9404.000561
(Free)Eharris+ p_basis*V_orbitals  =       -9404.003345

siesta: Electric dipole (a.u.)  =    0.000000    0.000000    0.000000
siesta: Electric dipole (Debye) =    0.000000    0.000000    0.000000

* Maximum dynamic memory allocated : Node    0 =   238 MB
* Maximum dynamic memory allocated : Node    1 =    84 MB
* Maximum dynamic memory allocated : Node    2 =    86 MB
* Maximum dynamic memory allocated : Node    3 =   226 MB
* Maximum dynamic memory allocated : Node    4 =   221 MB
* Maximum dynamic memory allocated : Node    5 =    81 MB
* Maximum dynamic memory allocated : Node    6 =    83 MB
* Maximum dynamic memory allocated : Node    7 =   203 MB

* Maximum memory occured during matrixMtoO                    

timer: CPU execution times:
timer:  Routine       Calls   Time/call    Tot.time        %
timer:  siesta            1  122197.131  122197.131   100.00
timer:  Setup             1       3.867       3.867     0.00
timer:  bands             3     243.652     730.955     0.60
timer:  writewave         1       0.046       0.046     0.00
timer:  KSV_init          1       0.006       0.006     0.00
timer:  IterMD            1  121457.034  121457.034    99.39
timer:  hsparse           1       0.517       0.517     0.00
timer:  overlap           1       7.188       7.188     0.01
timer:  IterSCF          36    3368.112  121252.043    99.23
timer:  kinefsm           2       3.741       7.481     0.01
timer:  nlefsm            2      19.730      39.459     0.03
timer:  DHSCF            37     105.400    3899.791     3.19
timer:  DHSCF1            1       0.990       0.990     0.00
timer:  DHSCF2            1      42.203      42.203     0.03
timer:  REORD           298       0.005       1.529     0.00
timer:  POISON           38       0.881      33.477     0.03
timer:  DHSCF3           37     103.139    3816.149     3.12
timer:  rhoofd           37      23.336     863.425     0.71
timer:  cellXC           37       3.286     121.595     0.10
timer:  vmat             37      48.428    1791.823     1.47
timer:  MolMec            2       0.001       0.002     0.00
timer:  diagon           36    3261.682  117420.567    96.09
timer:  c-eigval       8437       6.036   50925.984    41.68
timer:  c-buildHS      8437       0.052     440.015     0.36
timer:  cdiag         16753       6.157  103154.191    84.42
timer:  cdiag1        16753       0.385    6452.259     5.28
timer:  cdiag2        16753       1.769   29631.537    24.25
timer:  cdiag3        16753       3.739   62636.149    51.26
timer:  cdiag4        16753       0.157    2628.141     2.15
timer:  c-eigvec       8316       6.377   53033.787    43.40
timer:  c-buildD       8316       1.702   14149.739    11.58
timer:  DHSCF4            1      39.679      39.679     0.03
timer:  dfscf             1      36.924      36.924     0.03
timer:  overfsm           1       0.447       0.447     0.00
timer:  optical           1       4.635       4.635     0.00
  

elaps: ELAPSED times:
elaps:  Routine       Calls   Time/call    Tot.time        %
elaps:  siesta            1   15303.439   15303.439   100.00
elaps:  Setup             1       0.503       0.503     0.00
elaps:  bands             3      30.533      91.598     0.60
elaps:  writewave         1       0.006       0.006     0.00
elaps:  KSV_init          1       0.001       0.001     0.00
elaps:  IterMD            1   15210.727   15210.727    99.39
elaps:  hsparse           1       0.068       0.068     0.00
elaps:  overlap           1       0.900       0.900     0.01
elaps:  IterSCF          36     421.811   15185.189    99.23
elaps:  kinefsm           2       0.467       0.935     0.01
elaps:  nlefsm            2       2.560       5.120     0.03
elaps:  DHSCF            37      13.334     493.372     3.22
elaps:  DHSCF1            1       0.127       0.127     0.00
elaps:  DHSCF2            1       5.283       5.283     0.03
elaps:  REORD           298       0.001       0.203     0.00
elaps:  POISON           38       0.110       4.188     0.03
elaps:  DHSCF3           37      12.917     477.925     3.12
elaps:  rhoofd           37       6.306     233.322     1.52
elaps:  cellXC           37       0.411      15.218     0.10
elaps:  vmat             37       6.065     224.403     1.47
elaps:  MolMec            2       0.000       0.000     0.00
elaps:  diagon           36     408.471   14704.939    96.09
elaps:  c-eigval       8437       0.756    6377.547    41.67
elaps:  c-buildHS      8437       0.007      58.288     0.38
elaps:  cdiag         16753       0.770   12899.430    84.29
elaps:  cdiag1        16753       0.048     808.662     5.28
elaps:  cdiag2        16753       0.222    3711.473    24.25
elaps:  cdiag3        16753       0.469    7854.601    51.33
elaps:  cdiag4        16753       0.019     322.442     2.11
elaps:  c-eigvec       8316       0.797    6626.149    43.30
elaps:  c-buildD       8316       0.215    1787.088    11.68
elaps:  DHSCF4            1       9.945       9.945     0.06
elaps:  dfscf             1       9.391       9.391     0.06
elaps:  overfsm           1       0.055       0.055     0.00
elaps:  optical           1       0.001       0.001     0.00
  
>> End of run:   1-MAY-2016   1:04:00
