Siesta Version:                                        siesta-3.2-pl-3
Architecture  : x86_64-unknown-linux-gnu--unknown
Compiler flags: mpiifort -g -O2 -fPIC -xSSE4.1 -fp-model source -shared-intel 
PARALLEL version

* Running on   12 nodes in parallel
>> Start of run:   7-MAY-2016   8:54:57

                           ***********************       
                           *  WELCOME TO SIESTA  *       
                           ***********************       

reinit: Reading from standard input
************************** Dump of input data file ****************************
#(1) General system descriptors
SystemName            GRP_doping    # Descriptive name of the system
SystemLabel           GRP_doping    # Short name for naming files
%include STRUCT.fdf
%include KPT.fdf
%include BASIS.fdf
#%include TS.fdf # for transiesta calculation
#(4) DFT, Grid, SCF
XC.functional         GGA           # LDA or GGA (default = LDA)
XC.authors            PBE           # CA (Ceperley-Aldr) = PZ
                                    #    (Perdew-Zunger) - LDA - Default
                                    # PW92 (Perdew-Wang-92) - LDA
                                    # PBE (Perdew-Burke-Ernzerhof) - GGA
MeshCutoff            200.000000    Ry      # Default: 50.0 Ry ~ 0.444 Bohr
                                    #         100.0 Ry ~ 0.314 Bohr
MaxSCFIterations      500           # Default: 50
DM.MixingWeight       0.05          # Default: 0.25
DM.NumberPulay        10            # Default: 0
DM.PulayOnFile        F             # SystemLabel.P1, SystemLabel.P2
DM.Tolerance          1.d-4         # Default: 1.d-4
DM.UseSaveDM          .true.        # because of the bug
SCFMustConverge       .true.
NeglNonOverlapInt     F             # Default: F
#(5) Eigenvalue problem: order-N or diagonalization
SolutionMethod        Diagon        # or Transiesta
ElectronicTemperature 300.0 K       # Default: 300.0 K
#(6) Molecular dynamics and relaxations
#MD.TypeOfRun          CG            # Type of dynamics:
#MD.VariableCell       F
#MD.NumCGsteps         0           # 0 for single-point / 100 for gopt
#MD.MaxCGDispl         0.2 Bohr      # Default: 0.2 Bohr
#MD.MaxForceTol        0.02 eV/Ang   # Default: 0.04 eV/Ang
#MD.MaxStressTol       1.0 GPa       # Default: 1.0 GPa
# Geometry Constraints
#%block GeometryConstraints
#	position from 1 to 44
#%endblock GeometryConstraints
BandLinesScale   pi/a
%block BandLines
 1   0.00000000  0.00000000  0.00000000
50   0.00000000  0.07809418  0.00000000
50   0.04509075  0.07809242  0.00000000
20   0.00000000  0.00000000  0.00000000
%endblock BandLines
************************** End of input data file *****************************

reinit: -----------------------------------------------------------------------
reinit: System Name: GRP_doping
reinit: -----------------------------------------------------------------------
reinit: System Label: GRP_doping                                                  
reinit: -----------------------------------------------------------------------

initatom: Reading input for the pseudopotentials and atomic orbitals ----------
 Species number:            1  Label: N Atomic number:           7
 Species number:            2  Label: C Atomic number:           6
Ground state valence configuration:   2s02  2p03
Reading pseudopotential information in formatted form from N.psf

Valence configuration for pseudopotential generation:
2s( 2.00) rc: 1.48
2p( 3.00) rc: 1.48
3d( 0.00) rc: 1.48
4f( 0.00) rc: 1.48
Ground state valence configuration:   2s02  2p02
Reading pseudopotential information in formatted form from C.psf

Valence configuration for pseudopotential generation:
2s( 2.00) rc: 1.54
2p( 2.00) rc: 1.54
3d( 0.00) rc: 1.54
4f( 0.00) rc: 1.54
For N, standard SIESTA heuristics set lmxkb to 3
 (one more than the basis l, including polarization orbitals).
Use PS.lmax or PS.KBprojectors blocks to override.
For C, standard SIESTA heuristics set lmxkb to 3
 (one more than the basis l, including polarization orbitals).
Use PS.lmax or PS.KBprojectors blocks to override.

<basis_specs>
===============================================================================
N                    Z=   7    Mass=  14.010        Charge= 0.17977+309
Lmxo=1 Lmxkb= 3    BasisType=split      Semic=F
L=0  Nsemic=0  Cnfigmx=2
          n=1  nzeta=2  polorb=0
            splnorm:   0.15000    
               vcte:    0.0000    
               rinn:    0.0000    
                rcs:    0.0000      0.0000    
            lambdas:    1.0000      1.0000    
L=1  Nsemic=0  Cnfigmx=2
          n=1  nzeta=2  polorb=1
            splnorm:   0.15000    
               vcte:    0.0000    
               rinn:    0.0000    
                rcs:    0.0000      0.0000    
            lambdas:    1.0000      1.0000    
-------------------------------------------------------------------------------
L=0  Nkbl=1  erefs: 0.17977+309
L=1  Nkbl=1  erefs: 0.17977+309
L=2  Nkbl=1  erefs: 0.17977+309
L=3  Nkbl=1  erefs: 0.17977+309
===============================================================================
</basis_specs>

atom: Called for N                     (Z =   7)

read_vps: Pseudopotential generation method:
read_vps: ATM3      Troullier-Martins                       
Total valence charge:    5.00000

read_vps: Pseudopotential includes a core correction:
read_vps: Pseudo-core for xc-correction

xc_check: Exchange-correlation functional:
xc_check: GGA Perdew, Burke & Ernzerhof 1996
V l=0 = -2*Zval/r beyond r=  1.4606
V l=1 = -2*Zval/r beyond r=  1.4606
V l=2 = -2*Zval/r beyond r=  1.4606
V l=3 = -2*Zval/r beyond r=  1.4606
All V_l potentials equal beyond r=  1.4606
This should be close to max(r_c) in ps generation
All pots = -2*Zval/r beyond r=  1.4606

VLOCAL1: 99.0% of the norm of Vloc inside     20.347 Ry
VLOCAL1: 99.9% of the norm of Vloc inside     46.372 Ry
atom: Maximum radius for 4*pi*r*r*local-pseudopot. charge    1.76189
atom: Maximum radius for r*vlocal+2*Zval:    1.53550
GHOST: No ghost state for L =  0
GHOST: No ghost state for L =  1
GHOST: No ghost state for L =  2
GHOST: No ghost state for L =  3

KBgen: Kleinman-Bylander projectors: 
   l= 0   rc=  1.634559   el= -1.363963   Ekb=  5.296955   kbcos=  0.335621
   l= 1   rc=  1.614250   el= -0.521451   Ekb= -5.259161   kbcos= -0.433408
   l= 2   rc=  1.718383   el=  0.001991   Ekb= -1.271464   kbcos= -0.007566
   l= 3   rc=  1.761893   el=  0.003093   Ekb= -0.494769   kbcos= -0.001015

KBgen: Total number of  Kleinman-Bylander projectors:   16
atom: -------------------------------------------------------------------------

atom: SANKEY-TYPE ORBITALS:
atom: Selected multiple-zeta basis: split     

SPLIT: Orbitals with angular momentum L= 0

SPLIT: Basis orbitals for state 2s

SPLIT: PAO cut-off radius determined from an
SPLIT: energy shift=  0.007350 Ry

   izeta = 1
                 lambda =    1.000000
                     rc =    4.071465
                 energy =   -1.356470
                kinetic =    1.176977
    potential(screened) =   -2.533447
       potential(ionic) =   -8.057990

   izeta = 2
                 rmatch =    2.905100
              splitnorm =    0.150000
                 energy =   -1.158343
                kinetic =    1.813009
    potential(screened) =   -2.971352
       potential(ionic) =   -8.901931

SPLIT: Orbitals with angular momentum L= 1

SPLIT: Basis orbitals for state 2p

SPLIT: PAO cut-off radius determined from an
SPLIT: energy shift=  0.007350 Ry

   izeta = 1
                 lambda =    1.000000
                     rc =    4.972977
                 energy =   -0.513884
                kinetic =    3.441732
    potential(screened) =   -3.955616
       potential(ionic) =   -9.287901

   izeta = 2
                 rmatch =    3.054066
              splitnorm =    0.150000
                 energy =   -0.318226
                kinetic =    5.125348
    potential(screened) =   -5.443573
       potential(ionic) =  -11.380999

POLgen: Perturbative polarization orbital with L=  2

POLgen: Polarization orbital for state 2p

   izeta = 1
                     rc =    4.972977
                 energy =    1.607437
                kinetic =    3.268125
    potential(screened) =   -1.660688
       potential(ionic) =   -5.973652
atom: Total number of Sankey-type orbitals: 13

atm_pop: Valence configuration (for local Pseudopot. screening):
 2s( 2.00)                                                            
 2p( 3.00)                                                            
Vna: chval, zval:    5.00000   5.00000

Vna:  Cut-off radius for the neutral-atom potential:   4.972977
comcore: Pseudo-core radius Rcore=  1.554824

atom: _________________________________________________________________________

<basis_specs>
===============================================================================
C                    Z=   6    Mass=  12.010        Charge= 0.17977+309
Lmxo=1 Lmxkb= 3    BasisType=split      Semic=F
L=0  Nsemic=0  Cnfigmx=2
          n=1  nzeta=2  polorb=0
            splnorm:   0.15000    
               vcte:    0.0000    
               rinn:    0.0000    
                rcs:    0.0000      0.0000    
            lambdas:    1.0000      1.0000    
L=1  Nsemic=0  Cnfigmx=2
          n=1  nzeta=2  polorb=1
            splnorm:   0.15000    
               vcte:    0.0000    
               rinn:    0.0000    
                rcs:    0.0000      0.0000    
            lambdas:    1.0000      1.0000    
-------------------------------------------------------------------------------
L=0  Nkbl=1  erefs: 0.17977+309
L=1  Nkbl=1  erefs: 0.17977+309
L=2  Nkbl=1  erefs: 0.17977+309
L=3  Nkbl=1  erefs: 0.17977+309
===============================================================================
</basis_specs>

atom: Called for C                     (Z =   6)

read_vps: Pseudopotential generation method:
read_vps: ATM3      Troullier-Martins                       
Total valence charge:    4.00000

read_vps: Pseudopotential includes a core correction:
read_vps: Pseudo-core for xc-correction

xc_check: Exchange-correlation functional:
xc_check: GGA Perdew, Burke & Ernzerhof 1996
V l=0 = -2*Zval/r beyond r=  1.5227
V l=1 = -2*Zval/r beyond r=  1.5227
V l=2 = -2*Zval/r beyond r=  1.5227
V l=3 = -2*Zval/r beyond r=  1.5038
All V_l potentials equal beyond r=  1.5227
This should be close to max(r_c) in ps generation
All pots = -2*Zval/r beyond r=  1.5227

VLOCAL1: 99.0% of the norm of Vloc inside     18.722 Ry
VLOCAL1: 99.9% of the norm of Vloc inside     42.668 Ry
atom: Maximum radius for 4*pi*r*r*local-pseudopot. charge    1.83678
atom: Maximum radius for r*vlocal+2*Zval:    1.58088
GHOST: No ghost state for L =  0
GHOST: No ghost state for L =  1
GHOST: No ghost state for L =  2
GHOST: No ghost state for L =  3

KBgen: Kleinman-Bylander projectors: 
   l= 0   rc=  1.704034   el= -1.009801   Ekb=  5.335044   kbcos=  0.316824
   l= 1   rc=  1.704034   el= -0.388707   Ekb= -3.785862   kbcos= -0.366464
   l= 2   rc=  1.791422   el=  0.001971   Ekb= -0.970471   kbcos= -0.009212
   l= 3   rc=  1.859892   el=  0.003065   Ekb= -0.399525   kbcos= -0.001223

KBgen: Total number of  Kleinman-Bylander projectors:   16
atom: -------------------------------------------------------------------------

atom: SANKEY-TYPE ORBITALS:
atom: Selected multiple-zeta basis: split     

SPLIT: Orbitals with angular momentum L= 0

SPLIT: Basis orbitals for state 2s

SPLIT: PAO cut-off radius determined from an
SPLIT: energy shift=  0.007350 Ry

   izeta = 1
                 lambda =    1.000000
                     rc =    4.632753
                 energy =   -1.002270
                kinetic =    0.855760
    potential(screened) =   -1.858031
       potential(ionic) =   -5.417575

   izeta = 2
                 rmatch =    3.431921
              splitnorm =    0.150000
                 energy =   -0.867111
                kinetic =    1.300804
    potential(screened) =   -2.167915
       potential(ionic) =   -5.962684

SPLIT: Orbitals with angular momentum L= 1

SPLIT: Basis orbitals for state 2p

SPLIT: PAO cut-off radius determined from an
SPLIT: energy shift=  0.007350 Ry

   izeta = 1
                 lambda =    1.000000
                     rc =    5.658549
                 energy =   -0.381140
                kinetic =    2.399701
    potential(screened) =   -2.780841
       potential(ionic) =   -6.206085

   izeta = 2
                 rmatch =    3.653288
              splitnorm =    0.150000
                 energy =   -0.249149
                kinetic =    3.542762
    potential(screened) =   -3.791911
       potential(ionic) =   -7.581078

POLgen: Perturbative polarization orbital with L=  2

POLgen: Polarization orbital for state 2p

   izeta = 1
                     rc =    5.658549
                 energy =    1.109913
                kinetic =    2.304789
    potential(screened) =   -1.194876
       potential(ionic) =   -4.013592
atom: Total number of Sankey-type orbitals: 13

atm_pop: Valence configuration (for local Pseudopot. screening):
 2s( 2.00)                                                            
 2p( 2.00)                                                            
Vna: chval, zval:    4.00000   4.00000

Vna:  Cut-off radius for the neutral-atom potential:   5.658549
comcore: Pseudo-core radius Rcore=  1.791422

atom: _________________________________________________________________________

prinput: Basis input ----------------------------------------------------------

PAO.BasisType split     

%block ChemicalSpeciesLabel
    1    7 N                       # Species index, atomic number, species label
    2    6 C                       # Species index, atomic number, species label
%endblock ChemicalSpeciesLabel

%block PAO.Basis                 # Define Basis set
N                     2                    # Species label, number of l-shells
 n=2   0   2                         # n, l, Nzeta 
   4.071      2.905   
   1.000      1.000   
 n=2   1   2 P   1                   # n, l, Nzeta, Polarization, NzetaPol
   4.973      3.054   
   1.000      1.000   
C                     2                    # Species label, number of l-shells
 n=2   0   2                         # n, l, Nzeta 
   4.633      3.432   
   1.000      1.000   
 n=2   1   2 P   1                   # n, l, Nzeta, Polarization, NzetaPol
   5.659      3.653   
   1.000      1.000   
%endblock PAO.Basis

prinput: ----------------------------------------------------------------------

coor:   Atomic-coordinates input format  =     Fractional

siesta: Atomic coordinates (Bohr) and species
siesta:     -2.35420  17.38257   0.00000  1        1
siesta:     -0.02582  18.72698   0.00000  1        2
siesta:     -0.02582  21.41544   0.00000  1        3
siesta:      2.30256  22.75985   0.00000  1        4
siesta:      2.30256  25.44831   0.00000  1        5
siesta:     -4.68258  18.72698   0.00000  1        6
siesta:     -4.68258  21.41544   0.00000  1        7
siesta:     -2.35420  22.75985   0.00000  1        8
siesta:     -2.35420  25.44831   0.00000  1        9
siesta:     -0.02582  26.79272   0.00000  1       10
siesta:     -0.02582   2.59549   0.00000  2       11
siesta:     -0.02582   5.28395   0.00000  2       12
siesta:     -2.35420  38.89134   0.00000  2       13
siesta:     -2.35420  41.57980   0.00000  2       14
siesta:      2.30256  38.89134   0.00000  2       15
siesta:      2.30256  41.57980   0.00000  2       16
siesta:      4.63094  34.85847   0.00000  2       17
siesta:      4.63094  37.54693   0.00000  2       18
siesta:      6.95932  30.82560   0.00000  2       19
siesta:      6.95932  33.51406   0.00000  2       20
siesta:      9.28770  26.79272   0.00000  2       21
siesta:      9.28770  29.48119   0.00000  2       22
siesta:     -4.68258  34.85847   0.00000  2       23
siesta:     -4.68258  37.54693   0.00000  2       24
siesta:      2.30256   6.62836   0.00000  2       25
siesta:      2.30256   9.31683   0.00000  2       26
siesta:      4.63094  10.66124   0.00000  2       27
siesta:      4.63094  13.34970   0.00000  2       28
siesta:      6.95932  14.69411   0.00000  2       29
siesta:      6.95932  17.38257   0.00000  2       30
siesta:      9.28770  18.72698   0.00000  2       31
siesta:      9.28770  21.41544   0.00000  2       32
siesta:     11.61608  22.75985   0.00000  2       33
siesta:     11.61608  25.44831   0.00000  2       34
siesta:     -2.35420   6.62836   0.00000  2       35
siesta:     -2.35420   9.31683   0.00000  2       36
siesta:     -0.02582  10.66124   0.00000  2       37
siesta:     -0.02582  13.34970   0.00000  2       38
siesta:      2.30256  14.69411   0.00000  2       39
siesta:      2.30256  17.38257   0.00000  2       40
siesta:      4.63094  18.72698   0.00000  2       41
siesta:      4.63094  21.41544   0.00000  2       42
siesta:      6.95932  22.75985   0.00000  2       43
siesta:      6.95932  25.44831   0.00000  2       44
siesta:     -4.68258  10.66124   0.00000  2       45
siesta:     -4.68258  13.34970   0.00000  2       46
siesta:     -2.35420  14.69411   0.00000  2       47
siesta:     -7.01096  14.69411   0.00000  2       48
siesta:     -7.01096  17.38257   0.00000  2       49
siesta:     -9.33934  18.72698   0.00000  2       50
siesta:     -9.33934  21.41544   0.00000  2       51
siesta:     -7.01096  22.75985   0.00000  2       52
siesta:     -7.01096  25.44831   0.00000  2       53
siesta:    -11.66772  22.75985   0.00000  2       54
siesta:    -11.66772  25.44831   0.00000  2       55
siesta:     -9.33934  26.79272   0.00000  2       56
siesta:     -9.33934  29.48119   0.00000  2       57
siesta:      4.63094  26.79272   0.00000  2       58
siesta:      4.63094  29.48119   0.00000  2       59
siesta:     -0.02582  29.48119   0.00000  2       60
siesta:     -4.68258  26.79272   0.00000  2       61
siesta:     -4.68258  29.48119   0.00000  2       62
siesta:      2.30256  30.82560   0.00000  2       63
siesta:      2.30256  33.51406   0.00000  2       64
siesta:     -2.35420  30.82560   0.00000  2       65
siesta:     -2.35420  33.51406   0.00000  2       66
siesta:     -7.01096  30.82560   0.00000  2       67
siesta:     -7.01096  33.51406   0.00000  2       68
siesta:     -0.02582  34.85847   0.00000  2       69
siesta:     -0.02582  37.54693   0.00000  2       70
siesta:     -0.02582  42.92421   0.00000  2       71
siesta:     -0.02582  45.61267   0.00000  2       72

siesta: System type = slab      

initatomlists: Number of atoms, orbitals, and projectors:     72   936  1152

siesta: ******************** Simulation parameters ****************************
siesta:
siesta: The following are some of the parameters of the simulation.
siesta: A complete list of the parameters used, including default values,
siesta: can be found in file out.fdf
siesta:
redata: Non-Collinear-spin run           =     F
redata: SpinPolarized (Up/Down) run      =     F
redata: Number of spin components        =     1
redata: Long output                      =     F
redata: Number of Atomic Species         =        2
redata: Charge density info will appear in .RHO file
redata: Write Mulliken Pop.              =     NO
redata: Mesh Cutoff                      =   200.0000  Ry
redata: Net charge of the system         =     0.0000 |e|
redata: Max. number of SCF Iter          =      500
redata: SCF convergence failure will abort job
redata: Performing Pulay mixing using    =    10 iterations
redata: Mix DM in first SCF step ?       =     F
redata: Write Pulay info on disk?        =     F
redata: Discard 1st Pulay DM after  kick =     F
redata: New DM Mixing Weight             =     0.0500
redata: New DM Occupancy tolerance       = 0.000000000001
redata: No kicks to SCF
redata: DM Mixing Weight for Kicks       =     0.5000
redata: DM Tolerance for SCF             =     0.000100
redata: Require Energy convergence for SCF =     F
redata: DM Energy tolerance for SCF      =     0.000100 eV
redata: Require Harris convergence for SCF =     F
redata: DM Harris energy tolerance for SCF =     0.000100 eV
redata: Using Saved Data (generic)   =     F
redata: Use continuation files for DM    =     T
redata: Neglect nonoverlap interactions  =     F
redata: Method of Calculation            =     Diagonalization
redata: Divide and Conquer               =     T
redata: Electronic Temperature           =     0.0019  Ry
redata: Fix the spin of the system       =     F
redata: Dynamics option                  =     Verlet MD run
redata: Initial MD time step             =        1
redata:   Final MD time step             =        1
redata: Length of MD time step           =     1.0000  fs
redata: Initial Temperature of MD run    =     0.0000  K
redata: Perform a MD quench              =     F
redata: ***********************************************************************
Total number of electrons:   298.000000
Total ionic charge:   298.000000

* ProcessorY, Blocksize:    3  24

k-point displ. along   1 input, could be:     0.50    0.00
k-point displ. along   2 input, could be:     0.50    0.00
 Kpoints in:          231 . Kpoints trimmed:          231

siesta: k-grid: Number of k-points =   231
siesta: k-grid: Cutoff (effective) =     5.000 Ang
siesta: k-grid: Supercell and displacements
siesta: k-grid:   21   0   0      0.500
siesta: k-grid:    0  21   0      0.500
siesta: k-grid:    0   0   1      0.000
Naive supercell factors:     2    2    2

superc: Internal auxiliary supercell:     2 x     2 x     2  =       8
superc: Number of atoms, orbitals, and projectors:    576   7488   9216

* Maximum dynamic memory allocated =     4 MB

siesta:                 ==============================
                            Begin MD step =      1
                        ==============================

superc: Internal auxiliary supercell:     2 x     2 x     2  =       8
superc: Number of atoms, orbitals, and projectors:    576   7488   9216

outcell: Unit cell vectors (Ang):
       12.804619    7.392750    0.000000
        0.000000   14.785500    0.000000
        0.000000    0.000000   10.000000

outcell: Cell vector modules (Ang)   :   14.785500   14.785500   10.000000
outcell: Cell angles (23,13,12) (deg):     90.0000     90.0000     60.0000
outcell: Cell volume (Ang**3)        :   1893.2269
New_DM. Step:     1
Initializing Density Matrix...

InitMesh: MESH =   120 x   120 x    90 =     1296000
InitMesh: Mesh cutoff (required, used) =   200.000   223.865 Ry

* Maximum dynamic memory allocated =   138 MB

stepf: Fermi-Dirac step function

siesta: Program's energy decomposition (eV):
siesta: Ebs     =     -6039.111397
siesta: Eions   =     20010.479513
siesta: Ena     =      4819.364233
siesta: Ekin    =      7217.402668
siesta: Enl     =       346.099974
siesta: DEna    =        -0.000015
siesta: DUscf   =         0.000000
siesta: DUext   =         0.000000
siesta: Exc     =     -4414.143702
siesta: eta*DQ  =         0.000000
siesta: Emadel  =         0.000000
siesta: Emeta   =         0.000000
siesta: Emolmec =         0.000000
siesta: Ekinion =         0.000000
siesta: Eharris =    -11710.177480
siesta: Etot    =    -12041.756355
siesta: FreeEng =    -12041.756355

siesta: iscf   Eharris(eV)      E_KS(eV)   FreeEng(eV)   dDmax  Ef(eV)
siesta:    1   -11710.1775   -12041.7564   -12041.7564  6.2624 -7.2872
timer: Routine,Calls,Time,% = IterSCF        1    3010.685  99.59
elaps: Routine,Calls,Wall,% = IterSCF        1     251.484  99.59
siesta:    2   -17993.3350   -10860.4735   -10860.5172 15.0605 -6.9213
siesta:    3   -11673.2421   -11858.3800   -11858.4189  2.6971 -5.4652
siesta:    4   -11611.1476   -11735.5916   -11735.6006  1.3868 -4.9053
siesta:    5   -11576.8639   -11638.3069   -11638.3855  0.7990 -4.3985
siesta:    6   -11559.5652   -11604.5735   -11604.5737  0.8391 -4.0002
siesta:    7   -11550.0869   -11593.7021   -11593.7382  0.7648 -3.9925
siesta:    8   -11545.3111   -11577.6567   -11577.6919  0.6427 -3.9347
siesta:    9   -11543.9070   -11556.1194   -11556.1800  0.4364 -4.0790
siesta:   10   -11543.5417   -11547.0228   -11547.0520  0.3390 -4.0590
siesta:   11   -11544.0431   -11536.0031   -11536.0619  0.2978 -4.0953
siesta:   12   -11543.7850   -11534.2212   -11534.2731  0.2540 -4.0188
siesta:   13   -11543.0649   -11526.7935   -11526.8501  0.1658 -4.0186
siesta:   14   -11542.6872   -11529.3677   -11529.4409  0.1432 -4.0000
siesta:   15   -11542.3552   -11532.2211   -11532.2948  0.1218 -4.0024
siesta:   16   -11541.9408   -11537.1753   -11537.2535  0.1171 -4.0372
siesta:   17   -11541.8450   -11537.8624   -11537.9284  0.1164 -4.0431
siesta:   18   -11541.7760   -11537.5873   -11537.6661  0.0776 -4.0397
siesta:   19   -11541.7627   -11537.7207   -11537.7964  0.0524 -4.0387
siesta:   20   -11541.7502   -11538.0534   -11538.1278  0.0371 -4.0283
siesta:   21   -11541.7369   -11538.8373   -11538.9131  0.0319 -4.0228
siesta:   22   -11541.7237   -11540.4861   -11540.5615  0.0160 -4.0176
siesta:   23   -11541.7227   -11541.1002   -11541.1798  0.0164 -4.0233
siesta:   24   -11541.7213   -11541.6261   -11541.7021  0.0174 -4.0238
siesta:   25   -11541.7204   -11541.9671   -11542.0429  0.0157 -4.0235
siesta:   26   -11541.7198   -11542.0151   -11542.0911  0.0124 -4.0226
siesta:   27   -11541.7193   -11542.1507   -11542.2272  0.0046 -4.0199
siesta:   28   -11541.7185   -11541.9688   -11542.0456  0.0054 -4.0207
siesta:   29   -11541.7191   -11541.9340   -11542.0112  0.0018 -4.0209
siesta:   30   -11541.7191   -11541.8757   -11541.9522  0.0016 -4.0213
siesta:   31   -11541.7190   -11541.8392   -11541.9156  0.0012 -4.0214
siesta:   32   -11541.7191   -11541.8365   -11541.9129  0.0006 -4.0214
siesta:   33   -11541.7190   -11541.8096   -11541.8860  0.0004 -4.0217
siesta:   34   -11541.7191   -11541.7713   -11541.8477  0.0002 -4.0219
siesta:   35   -11541.7191   -11541.7528   -11541.8292  0.0002 -4.0218
siesta:   36   -11541.7191   -11541.7449   -11541.8213  0.0001 -4.0217
siesta:   37   -11541.7191   -11541.7440   -11541.8203  0.0001 -4.0217

siesta: E_KS(eV) =           -11541.7376

siesta: E_KS - E_eggbox =    -11541.7376

siesta: Atomic forces (eV/Ang):
----------------------------------------
   Tot   -0.029362    0.001230    0.000000
----------------------------------------
   Max  685.156003
   Res  165.207969    sqrt( Sum f_i^2 / 3N )
----------------------------------------
   Max  685.156003    constrained

Stress-tensor-Voigt (kbar):     -723.16    -2888.83       -0.14       -8.96        0.00        0.00
(Free)E + p*V (eV/cell)   -10119.0604
Target enthalpy (eV/cell)   -11541.8139

siesta: Stress tensor (static) (eV/Ang**3):
        -0.451356   -0.005592    0.000000
        -0.005591   -1.803044    0.000000
         0.000000    0.000000   -0.000090

siesta: Pressure (static):       1204.04331436  kBar

siesta: Stress tensor (total) (eV/Ang**3):
        -0.451356   -0.005592    0.000000
        -0.005591   -1.803044    0.000000
         0.000000    0.000000   -0.000090

siesta: Pressure (total):       1204.04331436  kBar

siesta: Temp_ion =       0.000 K

* Maximum dynamic memory allocated =   151 MB
Computing bands...

siesta: Program's energy decomposition (eV):
siesta: Ebs     =     -4825.346942
siesta: Eions   =     20010.479513
siesta: Ena     =      4819.364233
siesta: Ekin    =     10201.521188
siesta: Enl     =     -1311.283594
siesta: DEna    =      -764.073494
siesta: DUscf   =       104.375613
siesta: DUext   =         0.000000
siesta: Exc     =     -4581.162054
siesta: eta*DQ  =         0.000000
siesta: Emadel  =         0.000000
siesta: Emeta   =         0.000000
siesta: Emolmec =         0.000000
siesta: Ekinion =         0.000000
siesta: Eharris =    -11541.719085
siesta: Etot    =    -11541.737621
siesta: FreeEng =    -11541.813947

siesta: Final energy (eV):
siesta:  Band Struct. =   -4825.346942
siesta:       Kinetic =   10201.521188
siesta:       Hartree =   33211.539680
siesta:    Ext. field =       0.000000
siesta:   Exch.-corr. =   -4581.162054
siesta:  Ion-electron =  -76249.535000
siesta:       Ion-ion =   25875.898565
siesta:       Ekinion =       0.000000
siesta:         Total =  -11541.737621

siesta: Atomic forces (eV/Ang):
siesta:      1  -36.087458  -16.717768    0.000000
siesta:      2   17.389752  685.156003    0.000000
siesta:      3    1.461584   -4.271803    0.000000
siesta:      4    0.222723   -0.194074    0.000000
siesta:      5    0.350961    1.174813    0.000000
siesta:      6   -0.764062    2.481030    0.000000
siesta:      7   -0.786394    0.642367    0.000000
siesta:      8   -1.085231   -0.767747    0.000000
siesta:      9   -0.406337    1.589599    0.000000
siesta:     10    0.201817    1.004704    0.000000
siesta:     11    0.667278  544.682050    0.000000
siesta:     12   -0.150053 -126.222180    0.000000
siesta:     13    0.957326  127.841832    0.000000
siesta:     14  -20.584772 -552.687409    0.000000
siesta:     15   -0.885492  127.093517    0.000000
siesta:     16   14.735959 -546.773364    0.000000
siesta:     17   26.699143    6.450162    0.000000
siesta:     18   34.372349 -550.161650    0.000000
siesta:     19    2.480048    0.160212    0.000000
siesta:     20   -2.507555    1.530014    0.000000
siesta:     21    1.898954    2.224693    0.000000
siesta:     22   -1.328341    0.342013    0.000000
siesta:     23  -26.628575    6.732486    0.000000
siesta:     24  -34.873188 -550.352553    0.000000
siesta:     25   15.906779  547.951943    0.000000
siesta:     26   -1.745775 -127.353174    0.000000
siesta:     27   32.571461  549.412380    0.000000
siesta:     28   26.700201   -5.703971    0.000000
siesta:     29   -2.687567   -1.961616    0.000000
siesta:     30    2.437571    0.075418    0.000000
siesta:     31   -1.225762   -0.500405    0.000000
siesta:     32    2.086494   -2.093554    0.000000
siesta:     33   -0.316843    7.384661    0.000000
siesta:     34   -0.241342   -7.495322    0.000000
siesta:     35  -15.866643  549.213294    0.000000
siesta:     36    1.758627 -127.574627    0.000000
siesta:     37   -0.861166  545.492449    0.000000
siesta:     38   -1.350775 -126.879402    0.000000
siesta:     39   24.911014  556.798655    0.000000
siesta:     40   25.128547  -11.670309    0.000000
siesta:     41   -1.978414    3.415686    0.000000
siesta:     42   -0.119171   -0.967911    0.000000
siesta:     43   -0.486600    1.014088    0.000000
siesta:     44   -0.410051   -0.946286    0.000000
siesta:     45  -33.215634  549.646903    0.000000
siesta:     46  -26.286173   -7.021169    0.000000
siesta:     47  -11.945367  560.860783    0.000000
siesta:     48    2.836673   -0.776360    0.000000
siesta:     49   -2.510051   -0.244703    0.000000
siesta:     50    1.310126   -0.990826    0.000000
siesta:     51   -1.436193   -1.670710    0.000000
siesta:     52    0.546068    0.526565    0.000000
siesta:     53    0.968056   -1.127357    0.000000
siesta:     54    0.331911    6.597492    0.000000
siesta:     55    0.242963   -6.640933    0.000000
siesta:     56   -2.025353    1.622516    0.000000
siesta:     57    1.182253    0.750195    0.000000
siesta:     58   -0.401060    0.760591    0.000000
siesta:     59   -2.226761   -3.198814    0.000000
siesta:     60   -0.458229 -564.914626    0.000000
siesta:     61    0.374775    1.107781    0.000000
siesta:     62    2.251098   -3.696058    0.000000
siesta:     63   22.342733    5.796040    0.000000
siesta:     64   21.420821 -557.213792    0.000000
siesta:     65  -22.702469    5.667619    0.000000
siesta:     66  -20.337679 -557.927725    0.000000
siesta:     67   -2.605606    0.035507    0.000000
siesta:     68    2.604983    1.625008    0.000000
siesta:     69   -0.214821  127.153053    0.000000
siesta:     70    0.705120 -544.385556    0.000000
siesta:     71   -1.363355  120.760308    0.000000
siesta:     72   -8.979212 -641.669444    0.000000
siesta: ----------------------------------------
siesta:    Tot   -0.029362    0.001230    0.000000

siesta: Stress tensor (static) (eV/Ang**3):
siesta:    -0.451356   -0.005592    0.000000
siesta:    -0.005591   -1.803044    0.000000
siesta:     0.000000    0.000000   -0.000090

siesta: Cell volume =       1893.226884 Ang**3

siesta: Pressure (static):
siesta:                Solid            Molecule  Units
siesta:           0.00818476          0.12865520  Ry/Bohr**3
siesta:           0.75149660         11.81268254  eV/Ang**3
siesta:        1204.04331436      18926.20852016  kBar
(Free)E+ p_basis*V_orbitals  =      -11512.505964
(Free)Eharris+ p_basis*V_orbitals  =      -11512.481084

siesta: Electric dipole (a.u.)  =    0.000000    0.000000    0.000000
siesta: Electric dipole (Debye) =    0.000000    0.000000    0.000000

* Maximum dynamic memory allocated : Node    0 =   151 MB
* Maximum dynamic memory allocated : Node    1 =    60 MB
* Maximum dynamic memory allocated : Node    2 =    61 MB
* Maximum dynamic memory allocated : Node    3 =   137 MB
* Maximum dynamic memory allocated : Node    4 =   147 MB
* Maximum dynamic memory allocated : Node    5 =    53 MB
* Maximum dynamic memory allocated : Node    6 =    55 MB
* Maximum dynamic memory allocated : Node    7 =   141 MB
* Maximum dynamic memory allocated : Node    8 =   128 MB
* Maximum dynamic memory allocated : Node    9 =    53 MB
* Maximum dynamic memory allocated : Node   10 =    54 MB
* Maximum dynamic memory allocated : Node   11 =   121 MB

* Maximum memory occured during matrixMtoO                    

timer: CPU execution times:
timer:  Routine       Calls   Time/call    Tot.time        %
timer:  siesta            1  108983.791  108983.791   100.00
timer:  Setup             1       3.366       3.366     0.00
timer:  bands             3     225.776     677.327     0.62
timer:  writewave         1       0.021       0.021     0.00
timer:  KSV_init          1       0.004       0.004     0.00
timer:  IterMD            1  108296.147  108296.147    99.37
timer:  hsparse           1       0.170       0.170     0.00
timer:  overlap           1       6.345       6.345     0.01
timer:  IterSCF          37    2923.506  108169.706    99.25
timer:  kinefsm           2       3.219       6.437     0.01
timer:  nlefsm            2      18.445      36.889     0.03
timer:  DHSCF            38      64.457    2449.365     2.25
timer:  DHSCF1            1       0.905       0.905     0.00
timer:  DHSCF2            1      25.136      25.136     0.02
timer:  REORD           306       0.002       0.728     0.00
timer:  POISON           39       0.451      17.577     0.02
timer:  DHSCF3           38      63.201    2401.630     2.20
timer:  rhoofd           38      12.755     484.671     0.44
timer:  cellXC           38       2.531      96.161     0.09
timer:  vmat             38      30.217    1148.237     1.05
timer:  MolMec            2       0.000       0.000     0.00
timer:  diagon           37    2857.806  105738.840    97.02
timer:  c-eigval       8668       5.595   48495.463    44.50
timer:  c-buildHS      8668       0.033     285.647     0.26
timer:  cdiag         17215       5.690   97954.550    89.88
timer:  cdiag1        17215       0.259    4461.386     4.09
timer:  cdiag2        17215       1.837   31628.375    29.02
timer:  cdiag3        17215       3.389   58342.508    53.53
timer:  cdiag4        17215       0.088    1512.177     1.39
timer:  c-eigvec       8547       5.848   49982.564    45.86
timer:  c-buildD       8547       0.923    7891.715     7.24
timer:  DHSCF4            1      21.441      21.441     0.02
timer:  dfscf             1      20.007      20.007     0.02
timer:  overfsm           1       0.282       0.282     0.00
timer:  optical           1       6.344       6.344     0.01
  

elaps: ELAPSED times:
elaps:  Routine       Calls   Time/call    Tot.time        %
elaps:  siesta            1    9103.308    9103.308   100.00
elaps:  Setup             1       0.281       0.281     0.00
elaps:  bands             3      18.875      56.624     0.62
elaps:  writewave         1       0.002       0.002     0.00
elaps:  KSV_init          1       0.000       0.000     0.00
elaps:  IterMD            1    9045.869    9045.869    99.37
elaps:  hsparse           1       0.017       0.017     0.00
elaps:  overlap           1       0.710       0.710     0.01
elaps:  IterSCF          37     244.198    9035.308    99.25
elaps:  kinefsm           2       0.363       0.725     0.01
elaps:  nlefsm            2       1.601       3.203     0.04
elaps:  DHSCF            38       5.433     206.464     2.27
elaps:  DHSCF1            1       0.077       0.077     0.00
elaps:  DHSCF2            1       2.098       2.098     0.02
elaps:  REORD           306       0.000       0.091     0.00
elaps:  POISON           39       0.038       1.482     0.02
elaps:  DHSCF3           38       5.280     200.627     2.20
elaps:  rhoofd           38       2.343      89.053     0.98
elaps:  cellXC           38       0.211       8.015     0.09
elaps:  vmat             38       2.525      95.935     1.05
elaps:  MolMec            2       0.000       0.000     0.00
elaps:  diagon           37     238.715    8832.460    97.02
elaps:  c-eigval       8668       0.467    4050.716    44.50
elaps:  c-buildHS      8668       0.004      31.158     0.34
elaps:  cdiag         17215       0.471    8106.311    89.05
elaps:  cdiag1        17215       0.021     364.076     4.00
elaps:  cdiag2        17215       0.154    2644.249    29.05
elaps:  cdiag3        17215       0.283    4880.390    53.61
elaps:  cdiag4        17215       0.007     121.994     1.34
elaps:  c-eigvec       8547       0.481    4112.876    45.18
elaps:  c-buildD       8547       0.084     721.093     7.92
elaps:  DHSCF4            1       3.619       3.619     0.04
elaps:  dfscf             1       3.426       3.426     0.04
elaps:  overfsm           1       0.031       0.031     0.00
elaps:  optical           1       0.000       0.000     0.00
  
>> End of run:   7-MAY-2016  11:26:40
