Siesta Version:                                        siesta-3.2-pl-3
Architecture  : x86_64-unknown-linux-gnu--unknown
Compiler flags: mpiifort -g -O2 -fPIC -xSSE4.1 -fp-model source -shared-intel 
PARALLEL version

* Running on    8 nodes in parallel
>> Start of run:   2-MAY-2016  11:02:48

                           ***********************       
                           *  WELCOME TO SIESTA  *       
                           ***********************       

reinit: Reading from standard input
************************** Dump of input data file ****************************
#(1) General system descriptors
SystemName            GRP_doping    # Descriptive name of the system
SystemLabel           GRP_doping    # Short name for naming files
%include STRUCT.fdf
%include KPT.fdf
%include BASIS.fdf
#%include TS.fdf # for transiesta calculation
#(4) DFT, Grid, SCF
XC.functional         GGA           # LDA or GGA (default = LDA)
XC.authors            PBE           # CA (Ceperley-Aldr) = PZ
                                    #    (Perdew-Zunger) - LDA - Default
                                    # PW92 (Perdew-Wang-92) - LDA
                                    # PBE (Perdew-Burke-Ernzerhof) - GGA
MeshCutoff            200.000000    Ry      # Default: 50.0 Ry ~ 0.444 Bohr
                                    #         100.0 Ry ~ 0.314 Bohr
MaxSCFIterations      500           # Default: 50
DM.MixingWeight       0.05          # Default: 0.25
DM.NumberPulay        10            # Default: 0
DM.PulayOnFile        F             # SystemLabel.P1, SystemLabel.P2
DM.Tolerance          1.d-4         # Default: 1.d-4
DM.UseSaveDM          .true.        # because of the bug
SCFMustConverge       .true.
NeglNonOverlapInt     F             # Default: F
#(5) Eigenvalue problem: order-N or diagonalization
SolutionMethod        Diagon        # or Transiesta
ElectronicTemperature 300.0 K       # Default: 300.0 K
#(6) Molecular dynamics and relaxations
#MD.TypeOfRun          CG            # Type of dynamics:
#MD.VariableCell       F
#MD.NumCGsteps         0           # 0 for single-point / 100 for gopt
#MD.MaxCGDispl         0.2 Bohr      # Default: 0.2 Bohr
#MD.MaxForceTol        0.02 eV/Ang   # Default: 0.04 eV/Ang
#MD.MaxStressTol       1.0 GPa       # Default: 1.0 GPa
# Geometry Constraints
#%block GeometryConstraints
#	position from 1 to 44
#%endblock GeometryConstraints
BandLinesScale   pi/a
%block BandLines
 1   0.00000000  0.00000000  0.00000000
50   0.00000000  0.07809418  0.00000000
50   0.04509075  0.07809242  0.00000000
20   0.00000000  0.00000000  0.00000000
%endblock BandLines
************************** End of input data file *****************************

reinit: -----------------------------------------------------------------------
reinit: System Name: GRP_doping
reinit: -----------------------------------------------------------------------
reinit: System Label: GRP_doping                                                  
reinit: -----------------------------------------------------------------------

initatom: Reading input for the pseudopotentials and atomic orbitals ----------
 Species number:            1  Label: N Atomic number:           7
 Species number:            2  Label: C Atomic number:           6
Ground state valence configuration:   2s02  2p03
Reading pseudopotential information in formatted form from N.psf

Valence configuration for pseudopotential generation:
2s( 2.00) rc: 1.48
2p( 3.00) rc: 1.48
3d( 0.00) rc: 1.48
4f( 0.00) rc: 1.48
Ground state valence configuration:   2s02  2p02
Reading pseudopotential information in formatted form from C.psf

Valence configuration for pseudopotential generation:
2s( 2.00) rc: 1.54
2p( 2.00) rc: 1.54
3d( 0.00) rc: 1.54
4f( 0.00) rc: 1.54
For N, standard SIESTA heuristics set lmxkb to 3
 (one more than the basis l, including polarization orbitals).
Use PS.lmax or PS.KBprojectors blocks to override.
For C, standard SIESTA heuristics set lmxkb to 3
 (one more than the basis l, including polarization orbitals).
Use PS.lmax or PS.KBprojectors blocks to override.

<basis_specs>
===============================================================================
N                    Z=   7    Mass=  14.010        Charge= 0.17977+309
Lmxo=1 Lmxkb= 3    BasisType=split      Semic=F
L=0  Nsemic=0  Cnfigmx=2
          n=1  nzeta=2  polorb=0
            splnorm:   0.15000    
               vcte:    0.0000    
               rinn:    0.0000    
                rcs:    0.0000      0.0000    
            lambdas:    1.0000      1.0000    
L=1  Nsemic=0  Cnfigmx=2
          n=1  nzeta=2  polorb=1
            splnorm:   0.15000    
               vcte:    0.0000    
               rinn:    0.0000    
                rcs:    0.0000      0.0000    
            lambdas:    1.0000      1.0000    
-------------------------------------------------------------------------------
L=0  Nkbl=1  erefs: 0.17977+309
L=1  Nkbl=1  erefs: 0.17977+309
L=2  Nkbl=1  erefs: 0.17977+309
L=3  Nkbl=1  erefs: 0.17977+309
===============================================================================
</basis_specs>

atom: Called for N                     (Z =   7)

read_vps: Pseudopotential generation method:
read_vps: ATM3      Troullier-Martins                       
Total valence charge:    5.00000

read_vps: Pseudopotential includes a core correction:
read_vps: Pseudo-core for xc-correction

xc_check: Exchange-correlation functional:
xc_check: GGA Perdew, Burke & Ernzerhof 1996
V l=0 = -2*Zval/r beyond r=  1.4606
V l=1 = -2*Zval/r beyond r=  1.4606
V l=2 = -2*Zval/r beyond r=  1.4606
V l=3 = -2*Zval/r beyond r=  1.4606
All V_l potentials equal beyond r=  1.4606
This should be close to max(r_c) in ps generation
All pots = -2*Zval/r beyond r=  1.4606

VLOCAL1: 99.0% of the norm of Vloc inside     20.347 Ry
VLOCAL1: 99.9% of the norm of Vloc inside     46.372 Ry
atom: Maximum radius for 4*pi*r*r*local-pseudopot. charge    1.76189
atom: Maximum radius for r*vlocal+2*Zval:    1.53550
GHOST: No ghost state for L =  0
GHOST: No ghost state for L =  1
GHOST: No ghost state for L =  2
GHOST: No ghost state for L =  3

KBgen: Kleinman-Bylander projectors: 
   l= 0   rc=  1.634559   el= -1.363963   Ekb=  5.296955   kbcos=  0.335621
   l= 1   rc=  1.614250   el= -0.521451   Ekb= -5.259161   kbcos= -0.433408
   l= 2   rc=  1.718383   el=  0.001991   Ekb= -1.271464   kbcos= -0.007566
   l= 3   rc=  1.761893   el=  0.003093   Ekb= -0.494769   kbcos= -0.001015

KBgen: Total number of  Kleinman-Bylander projectors:   16
atom: -------------------------------------------------------------------------

atom: SANKEY-TYPE ORBITALS:
atom: Selected multiple-zeta basis: split     

SPLIT: Orbitals with angular momentum L= 0

SPLIT: Basis orbitals for state 2s

SPLIT: PAO cut-off radius determined from an
SPLIT: energy shift=  0.007350 Ry

   izeta = 1
                 lambda =    1.000000
                     rc =    4.071465
                 energy =   -1.356470
                kinetic =    1.176977
    potential(screened) =   -2.533447
       potential(ionic) =   -8.057990

   izeta = 2
                 rmatch =    2.905100
              splitnorm =    0.150000
                 energy =   -1.158343
                kinetic =    1.813009
    potential(screened) =   -2.971352
       potential(ionic) =   -8.901931

SPLIT: Orbitals with angular momentum L= 1

SPLIT: Basis orbitals for state 2p

SPLIT: PAO cut-off radius determined from an
SPLIT: energy shift=  0.007350 Ry

   izeta = 1
                 lambda =    1.000000
                     rc =    4.972977
                 energy =   -0.513884
                kinetic =    3.441732
    potential(screened) =   -3.955616
       potential(ionic) =   -9.287901

   izeta = 2
                 rmatch =    3.054066
              splitnorm =    0.150000
                 energy =   -0.318226
                kinetic =    5.125348
    potential(screened) =   -5.443573
       potential(ionic) =  -11.380999

POLgen: Perturbative polarization orbital with L=  2

POLgen: Polarization orbital for state 2p

   izeta = 1
                     rc =    4.972977
                 energy =    1.607437
                kinetic =    3.268125
    potential(screened) =   -1.660688
       potential(ionic) =   -5.973652
atom: Total number of Sankey-type orbitals: 13

atm_pop: Valence configuration (for local Pseudopot. screening):
 2s( 2.00)                                                            
 2p( 3.00)                                                            
Vna: chval, zval:    5.00000   5.00000

Vna:  Cut-off radius for the neutral-atom potential:   4.972977
comcore: Pseudo-core radius Rcore=  1.554824

atom: _________________________________________________________________________

<basis_specs>
===============================================================================
C                    Z=   6    Mass=  12.010        Charge= 0.17977+309
Lmxo=1 Lmxkb= 3    BasisType=split      Semic=F
L=0  Nsemic=0  Cnfigmx=2
          n=1  nzeta=2  polorb=0
            splnorm:   0.15000    
               vcte:    0.0000    
               rinn:    0.0000    
                rcs:    0.0000      0.0000    
            lambdas:    1.0000      1.0000    
L=1  Nsemic=0  Cnfigmx=2
          n=1  nzeta=2  polorb=1
            splnorm:   0.15000    
               vcte:    0.0000    
               rinn:    0.0000    
                rcs:    0.0000      0.0000    
            lambdas:    1.0000      1.0000    
-------------------------------------------------------------------------------
L=0  Nkbl=1  erefs: 0.17977+309
L=1  Nkbl=1  erefs: 0.17977+309
L=2  Nkbl=1  erefs: 0.17977+309
L=3  Nkbl=1  erefs: 0.17977+309
===============================================================================
</basis_specs>

atom: Called for C                     (Z =   6)

read_vps: Pseudopotential generation method:
read_vps: ATM3      Troullier-Martins                       
Total valence charge:    4.00000

read_vps: Pseudopotential includes a core correction:
read_vps: Pseudo-core for xc-correction

xc_check: Exchange-correlation functional:
xc_check: GGA Perdew, Burke & Ernzerhof 1996
V l=0 = -2*Zval/r beyond r=  1.5227
V l=1 = -2*Zval/r beyond r=  1.5227
V l=2 = -2*Zval/r beyond r=  1.5227
V l=3 = -2*Zval/r beyond r=  1.5038
All V_l potentials equal beyond r=  1.5227
This should be close to max(r_c) in ps generation
All pots = -2*Zval/r beyond r=  1.5227

VLOCAL1: 99.0% of the norm of Vloc inside     18.722 Ry
VLOCAL1: 99.9% of the norm of Vloc inside     42.668 Ry
atom: Maximum radius for 4*pi*r*r*local-pseudopot. charge    1.83678
atom: Maximum radius for r*vlocal+2*Zval:    1.58088
GHOST: No ghost state for L =  0
GHOST: No ghost state for L =  1
GHOST: No ghost state for L =  2
GHOST: No ghost state for L =  3

KBgen: Kleinman-Bylander projectors: 
   l= 0   rc=  1.704034   el= -1.009801   Ekb=  5.335044   kbcos=  0.316824
   l= 1   rc=  1.704034   el= -0.388707   Ekb= -3.785862   kbcos= -0.366464
   l= 2   rc=  1.791422   el=  0.001971   Ekb= -0.970471   kbcos= -0.009212
   l= 3   rc=  1.859892   el=  0.003065   Ekb= -0.399525   kbcos= -0.001223

KBgen: Total number of  Kleinman-Bylander projectors:   16
atom: -------------------------------------------------------------------------

atom: SANKEY-TYPE ORBITALS:
atom: Selected multiple-zeta basis: split     

SPLIT: Orbitals with angular momentum L= 0

SPLIT: Basis orbitals for state 2s

SPLIT: PAO cut-off radius determined from an
SPLIT: energy shift=  0.007350 Ry

   izeta = 1
                 lambda =    1.000000
                     rc =    4.632753
                 energy =   -1.002270
                kinetic =    0.855760
    potential(screened) =   -1.858031
       potential(ionic) =   -5.417575

   izeta = 2
                 rmatch =    3.431921
              splitnorm =    0.150000
                 energy =   -0.867111
                kinetic =    1.300804
    potential(screened) =   -2.167915
       potential(ionic) =   -5.962684

SPLIT: Orbitals with angular momentum L= 1

SPLIT: Basis orbitals for state 2p

SPLIT: PAO cut-off radius determined from an
SPLIT: energy shift=  0.007350 Ry

   izeta = 1
                 lambda =    1.000000
                     rc =    5.658549
                 energy =   -0.381140
                kinetic =    2.399701
    potential(screened) =   -2.780841
       potential(ionic) =   -6.206085

   izeta = 2
                 rmatch =    3.653288
              splitnorm =    0.150000
                 energy =   -0.249149
                kinetic =    3.542762
    potential(screened) =   -3.791911
       potential(ionic) =   -7.581078

POLgen: Perturbative polarization orbital with L=  2

POLgen: Polarization orbital for state 2p

   izeta = 1
                     rc =    5.658549
                 energy =    1.109913
                kinetic =    2.304789
    potential(screened) =   -1.194876
       potential(ionic) =   -4.013592
atom: Total number of Sankey-type orbitals: 13

atm_pop: Valence configuration (for local Pseudopot. screening):
 2s( 2.00)                                                            
 2p( 2.00)                                                            
Vna: chval, zval:    4.00000   4.00000

Vna:  Cut-off radius for the neutral-atom potential:   5.658549
comcore: Pseudo-core radius Rcore=  1.791422

atom: _________________________________________________________________________

prinput: Basis input ----------------------------------------------------------

PAO.BasisType split     

%block ChemicalSpeciesLabel
    1    7 N                       # Species index, atomic number, species label
    2    6 C                       # Species index, atomic number, species label
%endblock ChemicalSpeciesLabel

%block PAO.Basis                 # Define Basis set
N                     2                    # Species label, number of l-shells
 n=2   0   2                         # n, l, Nzeta 
   4.071      2.905   
   1.000      1.000   
 n=2   1   2 P   1                   # n, l, Nzeta, Polarization, NzetaPol
   4.973      3.054   
   1.000      1.000   
C                     2                    # Species label, number of l-shells
 n=2   0   2                         # n, l, Nzeta 
   4.633      3.432   
   1.000      1.000   
 n=2   1   2 P   1                   # n, l, Nzeta, Polarization, NzetaPol
   5.659      3.653   
   1.000      1.000   
%endblock PAO.Basis

prinput: ----------------------------------------------------------------------

coor:   Atomic-coordinates input format  =     Fractional

siesta: Atomic coordinates (Bohr) and species
siesta:      6.95932  30.82560   0.00000  1        1
siesta:     -2.35420  17.38257   0.00000  1        2
siesta:     -0.02582  18.72698   0.00000  1        3
siesta:     -0.02582  21.41544   0.00000  1        4
siesta:      2.30256  22.75985   0.00000  1        5
siesta:     -4.68258  18.72698   0.00000  1        6
siesta:     -4.68258  21.41544   0.00000  1        7
siesta:     -2.35420  22.75985   0.00000  1        8
siesta:     -2.35420  25.44831   0.00000  1        9
siesta:      4.63094  26.79272   0.00000  1       10
siesta:      4.63094  29.48119   0.00000  1       11
siesta:     -0.02582  29.48119   0.00000  1       12
siesta:     -4.68258  29.48119   0.00000  1       13
siesta:      2.30256  30.82560   0.00000  1       14
siesta:      2.30256  33.51406   0.00000  1       15
siesta:     -7.01096  30.82560   0.00000  1       16
siesta:     -0.02582   2.59549   0.00000  2       17
siesta:     -0.02582   5.28395   0.00000  2       18
siesta:     -2.35420  38.89134   0.00000  2       19
siesta:     -2.35420  41.57980   0.00000  2       20
siesta:      2.30256  38.89134   0.00000  2       21
siesta:      2.30256  41.57980   0.00000  2       22
siesta:      4.63094  34.85847   0.00000  2       23
siesta:      4.63094  37.54693   0.00000  2       24
siesta:      6.95932  33.51406   0.00000  2       25
siesta:      9.28770  26.79272   0.00000  2       26
siesta:      9.28770  29.48119   0.00000  2       27
siesta:     -4.68258  34.85847   0.00000  2       28
siesta:     -4.68258  37.54693   0.00000  2       29
siesta:      2.30256   6.62836   0.00000  2       30
siesta:      2.30256   9.31683   0.00000  2       31
siesta:      4.63094  10.66124   0.00000  2       32
siesta:      4.63094  13.34970   0.00000  2       33
siesta:      6.95932  14.69411   0.00000  2       34
siesta:      6.95932  17.38257   0.00000  2       35
siesta:      9.28770  18.72698   0.00000  2       36
siesta:      9.28770  21.41544   0.00000  2       37
siesta:     11.61608  22.75985   0.00000  2       38
siesta:     11.61608  25.44831   0.00000  2       39
siesta:     -2.35420   6.62836   0.00000  2       40
siesta:     -2.35420   9.31683   0.00000  2       41
siesta:     -0.02582  10.66124   0.00000  2       42
siesta:     -0.02582  13.34970   0.00000  2       43
siesta:      2.30256  14.69411   0.00000  2       44
siesta:      2.30256  17.38257   0.00000  2       45
siesta:      4.63094  18.72698   0.00000  2       46
siesta:      4.63094  21.41544   0.00000  2       47
siesta:      6.95932  22.75985   0.00000  2       48
siesta:      6.95932  25.44831   0.00000  2       49
siesta:     -4.68258  10.66124   0.00000  2       50
siesta:     -4.68258  13.34970   0.00000  2       51
siesta:     -2.35420  14.69411   0.00000  2       52
siesta:      2.30256  25.44831   0.00000  2       53
siesta:     -7.01096  14.69411   0.00000  2       54
siesta:     -7.01096  17.38257   0.00000  2       55
siesta:     -9.33934  18.72698   0.00000  2       56
siesta:     -9.33934  21.41544   0.00000  2       57
siesta:     -7.01096  22.75985   0.00000  2       58
siesta:     -7.01096  25.44831   0.00000  2       59
siesta:    -11.66772  22.75985   0.00000  2       60
siesta:    -11.66772  25.44831   0.00000  2       61
siesta:     -9.33934  26.79272   0.00000  2       62
siesta:     -9.33934  29.48119   0.00000  2       63
siesta:     -0.02582  26.79272   0.00000  2       64
siesta:     -4.68258  26.79272   0.00000  2       65
siesta:     -2.35420  30.82560   0.00000  2       66
siesta:     -2.35420  33.51406   0.00000  2       67
siesta:     -7.01096  33.51406   0.00000  2       68
siesta:     -0.02582  34.85847   0.00000  2       69
siesta:     -0.02582  37.54693   0.00000  2       70
siesta:     -0.02582  42.92421   0.00000  2       71
siesta:     -0.02582  45.61267   0.00000  2       72

siesta: System type = slab      

initatomlists: Number of atoms, orbitals, and projectors:     72   936  1152

siesta: ******************** Simulation parameters ****************************
siesta:
siesta: The following are some of the parameters of the simulation.
siesta: A complete list of the parameters used, including default values,
siesta: can be found in file out.fdf
siesta:
redata: Non-Collinear-spin run           =     F
redata: SpinPolarized (Up/Down) run      =     F
redata: Number of spin components        =     1
redata: Long output                      =     F
redata: Number of Atomic Species         =        2
redata: Charge density info will appear in .RHO file
redata: Write Mulliken Pop.              =     NO
redata: Mesh Cutoff                      =   200.0000  Ry
redata: Net charge of the system         =     0.0000 |e|
redata: Max. number of SCF Iter          =      500
redata: SCF convergence failure will abort job
redata: Performing Pulay mixing using    =    10 iterations
redata: Mix DM in first SCF step ?       =     F
redata: Write Pulay info on disk?        =     F
redata: Discard 1st Pulay DM after  kick =     F
redata: New DM Mixing Weight             =     0.0500
redata: New DM Occupancy tolerance       = 0.000000000001
redata: No kicks to SCF
redata: DM Mixing Weight for Kicks       =     0.5000
redata: DM Tolerance for SCF             =     0.000100
redata: Require Energy convergence for SCF =     F
redata: DM Energy tolerance for SCF      =     0.000100 eV
redata: Require Harris convergence for SCF =     F
redata: DM Harris energy tolerance for SCF =     0.000100 eV
redata: Using Saved Data (generic)   =     F
redata: Use continuation files for DM    =     T
redata: Neglect nonoverlap interactions  =     F
redata: Method of Calculation            =     Diagonalization
redata: Divide and Conquer               =     T
redata: Electronic Temperature           =     0.0019  Ry
redata: Fix the spin of the system       =     F
redata: Dynamics option                  =     Verlet MD run
redata: Initial MD time step             =        1
redata:   Final MD time step             =        1
redata: Length of MD time step           =     1.0000  fs
redata: Initial Temperature of MD run    =     0.0000  K
redata: Perform a MD quench              =     F
redata: ***********************************************************************
Total number of electrons:   304.000000
Total ionic charge:   304.000000

* ProcessorY, Blocksize:    2  24

k-point displ. along   1 input, could be:     0.50    0.00
k-point displ. along   2 input, could be:     0.50    0.00
 Kpoints in:          231 . Kpoints trimmed:          231

siesta: k-grid: Number of k-points =   231
siesta: k-grid: Cutoff (effective) =     5.000 Ang
siesta: k-grid: Supercell and displacements
siesta: k-grid:   21   0   0      0.500
siesta: k-grid:    0  21   0      0.500
siesta: k-grid:    0   0   1      0.000
Naive supercell factors:     2    2    2

superc: Internal auxiliary supercell:     2 x     2 x     2  =       8
superc: Number of atoms, orbitals, and projectors:    576   7488   9216

* Maximum dynamic memory allocated =     4 MB

siesta:                 ==============================
                            Begin MD step =      1
                        ==============================

superc: Internal auxiliary supercell:     2 x     2 x     2  =       8
superc: Number of atoms, orbitals, and projectors:    576   7488   9216

outcell: Unit cell vectors (Ang):
       12.804619    7.392750    0.000000
        0.000000   14.785500    0.000000
        0.000000    0.000000   10.000000

outcell: Cell vector modules (Ang)   :   14.785500   14.785500   10.000000
outcell: Cell angles (23,13,12) (deg):     90.0000     90.0000     60.0000
outcell: Cell volume (Ang**3)        :   1893.2269
New_DM. Step:     1
Initializing Density Matrix...

InitMesh: MESH =   120 x   120 x    90 =     1296000
InitMesh: Mesh cutoff (required, used) =   200.000   223.865 Ry

* Maximum dynamic memory allocated =   188 MB

stepf: Fermi-Dirac step function

siesta: Program's energy decomposition (eV):
siesta: Ebs     =     -6178.053848
siesta: Eions   =     20974.960578
siesta: Ena     =      4890.886273
siesta: Ekin    =      7720.939539
siesta: Enl     =       176.287193
siesta: DEna    =        -0.000015
siesta: DUscf   =         0.000000
siesta: DUext   =         0.000000
siesta: Exc     =     -4567.397394
siesta: eta*DQ  =         0.000000
siesta: Emadel  =         0.000000
siesta: Emeta   =         0.000000
siesta: Emolmec =         0.000000
siesta: Ekinion =         0.000000
siesta: Eharris =    -12412.159016
siesta: Etot    =    -12754.244981
siesta: FreeEng =    -12754.244981

siesta: iscf   Eharris(eV)      E_KS(eV)   FreeEng(eV)   dDmax  Ef(eV)
siesta:    1   -12412.1590   -12754.2450   -12754.2450  5.7113 -6.9834
timer: Routine,Calls,Time,% = IterSCF        1    3398.851  99.66
elaps: Routine,Calls,Wall,% = IterSCF        1     425.733  99.66
siesta:    2   -18552.0172   -11552.3839   -11552.4479 15.7267 -7.3500
siesta:    3   -12416.4026   -12528.2977   -12528.3301  2.0508 -4.8992
siesta:    4   -12317.1019   -12441.2790   -12441.3396  1.4289 -4.5084
siesta:    5   -12274.1286   -12364.8370   -12364.8668  0.9138 -4.2973
siesta:    6   -12265.8475   -12320.7801   -12320.8311  0.7758 -4.0002
siesta:    7   -12241.0240   -12285.8984   -12285.9462  0.7608 -3.6961
siesta:    8   -12238.7519   -12277.3665   -12277.4195  0.7139 -3.7266
siesta:    9   -12238.2911   -12269.8364   -12269.8980  0.6425 -3.7361
siesta:   10   -12239.8205   -12245.0435   -12245.0960  0.2798 -3.8116
siesta:   11   -12238.5394   -12241.7987   -12241.8400  0.2895 -3.7915
siesta:   12   -12237.1025   -12234.6231   -12234.6827  0.3172 -3.7555
siesta:   13   -12236.6912   -12230.3408   -12230.4035  0.3039 -3.7664
siesta:   14   -12236.4871   -12233.6791   -12233.7527  0.2446 -3.7684
siesta:   15   -12236.0626   -12236.0280   -12236.0874  0.1512 -3.7949
siesta:   16   -12235.8856   -12237.1059   -12237.1634  0.1115 -3.8100
siesta:   17   -12235.7595   -12236.9510   -12237.0164  0.1514 -3.8123
siesta:   18   -12235.6888   -12236.9799   -12237.0405  0.0598 -3.8084
siesta:   19   -12235.6673   -12237.0571   -12237.1254  0.0620 -3.7991
siesta:   20   -12235.6565   -12236.7753   -12236.8442  0.0386 -3.7908
siesta:   21   -12235.6592   -12236.4359   -12236.5055  0.0472 -3.7813
siesta:   22   -12235.6463   -12236.4619   -12236.5307  0.0214 -3.7800
siesta:   23   -12235.6404   -12236.5114   -12236.5811  0.0187 -3.7788
siesta:   24   -12235.6393   -12236.5209   -12236.5906  0.0148 -3.7779
siesta:   25   -12235.6396   -12236.4145   -12236.4841  0.0121 -3.7768
siesta:   26   -12235.6391   -12236.2577   -12236.3272  0.0087 -3.7777
siesta:   27   -12235.6385   -12235.8874   -12235.9569  0.0033 -3.7777
siesta:   28   -12235.6384   -12235.7872   -12235.8566  0.0024 -3.7783
siesta:   29   -12235.6383   -12235.7462   -12235.8157  0.0019 -3.7782
siesta:   30   -12235.6382   -12235.7095   -12235.7790  0.0011 -3.7785
siesta:   31   -12235.6383   -12235.6960   -12235.7656  0.0008 -3.7786
siesta:   32   -12235.6382   -12235.6783   -12235.7478  0.0008 -3.7787
siesta:   33   -12235.6382   -12235.6715   -12235.7411  0.0004 -3.7787
siesta:   34   -12235.6382   -12235.6611   -12235.7307  0.0004 -3.7787
siesta:   35   -12235.6382   -12235.6446   -12235.7141  0.0002 -3.7787
siesta:   36   -12235.6382   -12235.6410   -12235.7105  0.0001 -3.7788

siesta: E_KS(eV) =           -12235.6423

siesta: E_KS - E_eggbox =    -12235.6423

siesta: Atomic forces (eV/Ang):
----------------------------------------
   Tot   -0.043411   -0.023389    0.000000
----------------------------------------
   Max  687.069483
   Res  172.858465    sqrt( Sum f_i^2 / 3N )
----------------------------------------
   Max  687.069483    constrained

Stress-tensor-Voigt (kbar):     -731.60    -3009.05       -0.08      -12.93        0.00        0.00
(Free)E + p*V (eV/cell)   -10762.3032
Target enthalpy (eV/cell)   -12235.7118

siesta: Stress tensor (static) (eV/Ang**3):
        -0.456623   -0.008073    0.000000
        -0.008072   -1.878084    0.000000
         0.000000    0.000000   -0.000051

siesta: Pressure (static):       1246.91147703  kBar

siesta: Stress tensor (total) (eV/Ang**3):
        -0.456623   -0.008073    0.000000
        -0.008072   -1.878084    0.000000
         0.000000    0.000000   -0.000051

siesta: Pressure (total):       1246.91147703  kBar

siesta: Temp_ion =       0.000 K

* Maximum dynamic memory allocated =   204 MB
Computing bands...

siesta: Program's energy decomposition (eV):
siesta: Ebs     =     -4943.487066
siesta: Eions   =     20974.960578
siesta: Ena     =      4890.886273
siesta: Ekin    =     10770.406338
siesta: Enl     =     -1506.573294
siesta: DEna    =      -785.948839
siesta: DUscf   =       109.799801
siesta: DUext   =         0.000000
siesta: Exc     =     -4739.251987
siesta: eta*DQ  =         0.000000
siesta: Emadel  =         0.000000
siesta: Emeta   =         0.000000
siesta: Emolmec =         0.000000
siesta: Ekinion =         0.000000
siesta: Eharris =    -12235.638239
siesta: Etot    =    -12235.642285
siesta: FreeEng =    -12235.711820

siesta: Final energy (eV):
siesta:  Band Struct. =   -4943.487066
siesta:       Kinetic =   10770.406338
siesta:       Hartree =   34775.699968
siesta:    Ext. field =       0.000000
siesta:   Exch.-corr. =   -4739.251987
siesta:  Ion-electron =  -79879.316512
siesta:       Ion-ion =   26836.819907
siesta:       Ekinion =       0.000000
siesta:         Total =  -12235.642285

siesta: Atomic forces (eV/Ang):
siesta:      1    3.937871    1.162829    0.000000
siesta:      2  -35.969103  -16.374435    0.000000
siesta:      3   17.887139  685.049057    0.000000
siesta:      4    1.448046   -4.423682    0.000000
siesta:      5    1.054036    1.527337    0.000000
siesta:      6   -0.972838    2.347379    0.000000
siesta:      7   -1.692427    0.577470    0.000000
siesta:      8   -1.372524   -0.525622    0.000000
siesta:      9   -0.974098    3.665153    0.000000
siesta:     10   -0.315310   -2.387308    0.000000
siesta:     11   -0.456674   -3.357333    0.000000
siesta:     12  -17.957952 -687.069483    0.000000
siesta:     13    3.493572   -5.535416    0.000000
siesta:     14   34.151748   13.159671    0.000000
siesta:     15    4.216925 -673.654550    0.000000
siesta:     16   -3.501567    1.550712    0.000000
siesta:     17   11.725009  646.539862    0.000000
siesta:     18    3.466275 -122.836492    0.000000
siesta:     19    1.609377  129.539253    0.000000
siesta:     20  -20.605026 -552.265920    0.000000
siesta:     21   -2.517187  128.520253    0.000000
siesta:     22   14.297530 -546.528967    0.000000
siesta:     23   25.665995    9.875508    0.000000
siesta:     24   31.866606 -550.949925    0.000000
siesta:     25   -1.412710   -1.455219    0.000000
siesta:     26    0.572452    1.708773    0.000000
siesta:     27   -1.684530    2.046063    0.000000
siesta:     28  -25.407409    6.384367    0.000000
siesta:     29  -33.859890 -551.104187    0.000000
siesta:     30   26.298754  655.786734    0.000000
siesta:     31   -0.340472 -122.972709    0.000000
siesta:     32   33.122401  551.348799    0.000000
siesta:     33   26.361932   -5.493365    0.000000
siesta:     34   -2.917376   -1.979096    0.000000
siesta:     35    2.757344    0.081219    0.000000
siesta:     36   -1.666317   -0.106049    0.000000
siesta:     37    2.174968   -2.403421    0.000000
siesta:     38   -0.228448    7.379644    0.000000
siesta:     39   -0.257345   -6.742227    0.000000
siesta:     40  -16.062222  550.549035    0.000000
siesta:     41    0.795066 -127.996370    0.000000
siesta:     42   -3.235733  547.396293    0.000000
siesta:     43   -1.258230 -128.051700    0.000000
siesta:     44   26.173077  556.985534    0.000000
siesta:     45   24.949301  -11.713576    0.000000
siesta:     46   -1.972984    3.751654    0.000000
siesta:     47   -0.142521   -1.790988    0.000000
siesta:     48   -1.302031    1.614072    0.000000
siesta:     49   -0.278621   -0.448929    0.000000
siesta:     50  -33.310460  550.554236    0.000000
siesta:     51  -26.474314   -6.787819    0.000000
siesta:     52  -12.208634  559.715169    0.000000
siesta:     53    0.361619    1.081468    0.000000
siesta:     54    2.944713   -0.927998    0.000000
siesta:     55   -2.287213    0.307089    0.000000
siesta:     56    1.523260   -0.790058    0.000000
siesta:     57   -1.246063   -2.004451    0.000000
siesta:     58    1.313512    0.320025    0.000000
siesta:     59    1.390492   -0.790561    0.000000
siesta:     60    0.302847    6.839075    0.000000
siesta:     61    0.275485   -6.173768    0.000000
siesta:     62   -1.356924    2.349421    0.000000
siesta:     63    1.171636    1.399476    0.000000
siesta:     64    0.252278    0.986623    0.000000
siesta:     65   -0.104170    0.848451    0.000000
siesta:     66  -26.445443   12.156083    0.000000
siesta:     67  -20.289812 -559.393870    0.000000
siesta:     68    1.876556   -1.121039    0.000000
siesta:     69   -3.037558  128.557328    0.000000
siesta:     70    6.003757 -546.861765    0.000000
siesta:     71   -1.631922  120.575192    0.000000
siesta:     72   -8.730932 -641.241399    0.000000
siesta: ----------------------------------------
siesta:    Tot   -0.043411   -0.023389    0.000000

siesta: Stress tensor (static) (eV/Ang**3):
siesta:    -0.456623   -0.008073    0.000000
siesta:    -0.008072   -1.878084    0.000000
siesta:     0.000000    0.000000   -0.000051

siesta: Cell volume =       1893.226884 Ang**3

siesta: Pressure (static):
siesta:                Solid            Molecule  Units
siesta:           0.00847616          0.13496380  Ry/Bohr**3
siesta:           0.77825252         12.39191750  eV/Ang**3
siesta:        1246.91147703      19854.25527808  kBar
(Free)E+ p_basis*V_orbitals  =      -12207.261620
(Free)Eharris+ p_basis*V_orbitals  =      -12207.258880

siesta: Electric dipole (a.u.)  =    0.000000    0.000000    0.000000
siesta: Electric dipole (Debye) =    0.000000    0.000000    0.000000

* Maximum dynamic memory allocated : Node    0 =   204 MB
* Maximum dynamic memory allocated : Node    1 =    72 MB
* Maximum dynamic memory allocated : Node    2 =    74 MB
* Maximum dynamic memory allocated : Node    3 =   195 MB
* Maximum dynamic memory allocated : Node    4 =   186 MB
* Maximum dynamic memory allocated : Node    5 =    70 MB
* Maximum dynamic memory allocated : Node    6 =    72 MB
* Maximum dynamic memory allocated : Node    7 =   172 MB

* Maximum memory occured during matrixMtoO                    

timer: CPU execution times:
timer:  Routine       Calls   Time/call    Tot.time        %
timer:  siesta            1  121105.312  121105.312   100.00
timer:  Setup             1       3.851       3.851     0.00
timer:  bands             3     243.688     731.064     0.60
timer:  writewave         1       0.046       0.046     0.00
timer:  KSV_init          1       0.005       0.005     0.00
timer:  IterMD            1  120365.179  120365.179    99.39
timer:  hsparse           1       0.279       0.279     0.00
timer:  overlap           1       7.113       7.113     0.01
timer:  IterSCF          36    3339.139  120209.019    99.26
timer:  kinefsm           2       3.671       7.343     0.01
timer:  nlefsm            2      17.603      35.207     0.03
timer:  DHSCF            37      77.487    2867.025     2.37
timer:  DHSCF1            1       0.744       0.744     0.00
timer:  DHSCF2            1      31.531      31.531     0.03
timer:  REORD           298       0.005       1.522     0.00
timer:  POISON           38       0.874      33.221     0.03
timer:  DHSCF3           37      75.818    2805.272     2.32
timer:  rhoofd           37      15.801     584.626     0.48
timer:  cellXC           37       3.273     121.110     0.10
timer:  vmat             37      35.093    1298.441     1.07
timer:  MolMec            2       0.000       0.000     0.00
timer:  diagon           36    3260.499  117377.952    96.92
timer:  c-eigval       8437       6.028   50861.077    42.00
timer:  c-buildHS      8437       0.047     400.503     0.33
timer:  cdiag         16753       6.160  103201.813    85.22
timer:  cdiag1        16753       0.384    6426.369     5.31
timer:  cdiag2        16753       1.771   29661.487    24.49
timer:  cdiag3        16753       3.738   62625.552    51.71
timer:  cdiag4        16753       0.150    2519.280     2.08
timer:  c-eigvec       8316       6.378   53042.941    43.80
timer:  c-buildD       8316       1.703   14162.856    11.69
timer:  DHSCF4            1      28.727      28.727     0.02
timer:  dfscf             1      26.842      26.842     0.02
timer:  overfsm           1       0.383       0.383     0.00
timer:  optical           1       4.591       4.591     0.00
  

elaps: ELAPSED times:
elaps:  Routine       Calls   Time/call    Tot.time        %
elaps:  siesta            1   15166.690   15166.690   100.00
elaps:  Setup             1       0.500       0.500     0.00
elaps:  bands             3      30.537      91.612     0.60
elaps:  writewave         1       0.006       0.006     0.00
elaps:  KSV_init          1       0.001       0.001     0.00
elaps:  IterMD            1   15073.974   15073.974    99.39
elaps:  hsparse           1       0.035       0.035     0.00
elaps:  overlap           1       0.901       0.901     0.01
elaps:  IterSCF          36     418.182   15054.535    99.26
elaps:  kinefsm           2       0.466       0.932     0.01
elaps:  nlefsm            2       2.207       4.414     0.03
elaps:  DHSCF            37       9.812     363.058     2.39
elaps:  DHSCF1            1       0.095       0.095     0.00
elaps:  DHSCF2            1       3.948       3.948     0.03
elaps:  REORD           298       0.001       0.204     0.00
elaps:  POISON           38       0.110       4.172     0.03
elaps:  DHSCF3           37       9.495     351.329     2.32
elaps:  rhoofd           37       4.557     168.616     1.11
elaps:  cellXC           37       0.410      15.156     0.10
elaps:  vmat             37       4.395     162.613     1.07
elaps:  MolMec            2       0.000       0.000     0.00
elaps:  diagon           36     408.324   14699.663    96.92
elaps:  c-eigval       8437       0.755    6369.427    42.00
elaps:  c-buildHS      8437       0.006      54.261     0.36
elaps:  cdiag         16753       0.770   12900.424    85.06
elaps:  cdiag1        16753       0.048     801.553     5.28
elaps:  cdiag2        16753       0.222    3715.228    24.50
elaps:  cdiag3        16753       0.469    7853.274    51.78
elaps:  cdiag4        16753       0.019     314.506     2.07
elaps:  c-eigvec       8316       0.797    6625.534    43.68
elaps:  c-buildD       8316       0.215    1790.561    11.81
elaps:  DHSCF4            1       7.594       7.594     0.05
elaps:  dfscf             1       7.185       7.185     0.05
elaps:  overfsm           1       0.048       0.048     0.00
elaps:  optical           1       0.001       0.001     0.00
  
>> End of run:   2-MAY-2016  15:15:35
