Siesta Version:                                        siesta-3.2-pl-3
Architecture  : x86_64-unknown-linux-gnu--unknown
Compiler flags: mpiifort -g -O2 -fPIC -xSSE4.1 -fp-model source -shared-intel 
PARALLEL version

* Running on   12 nodes in parallel
>> Start of run:   7-MAY-2016   0:29:00

                           ***********************       
                           *  WELCOME TO SIESTA  *       
                           ***********************       

reinit: Reading from standard input
************************** Dump of input data file ****************************
#(1) General system descriptors
SystemName            GRP_doping    # Descriptive name of the system
SystemLabel           GRP_doping    # Short name for naming files
%include STRUCT.fdf
%include KPT.fdf
%include BASIS.fdf
#%include TS.fdf # for transiesta calculation
#(4) DFT, Grid, SCF
XC.functional         GGA           # LDA or GGA (default = LDA)
XC.authors            PBE           # CA (Ceperley-Aldr) = PZ
                                    #    (Perdew-Zunger) - LDA - Default
                                    # PW92 (Perdew-Wang-92) - LDA
                                    # PBE (Perdew-Burke-Ernzerhof) - GGA
MeshCutoff            200.000000    Ry      # Default: 50.0 Ry ~ 0.444 Bohr
                                    #         100.0 Ry ~ 0.314 Bohr
MaxSCFIterations      500           # Default: 50
DM.MixingWeight       0.05          # Default: 0.25
DM.NumberPulay        10            # Default: 0
DM.PulayOnFile        F             # SystemLabel.P1, SystemLabel.P2
DM.Tolerance          1.d-4         # Default: 1.d-4
DM.UseSaveDM          .true.        # because of the bug
SCFMustConverge       .true.
NeglNonOverlapInt     F             # Default: F
#(5) Eigenvalue problem: order-N or diagonalization
SolutionMethod        Diagon        # or Transiesta
ElectronicTemperature 300.0 K       # Default: 300.0 K
#(6) Molecular dynamics and relaxations
#MD.TypeOfRun          CG            # Type of dynamics:
#MD.VariableCell       F
#MD.NumCGsteps         0           # 0 for single-point / 100 for gopt
#MD.MaxCGDispl         0.2 Bohr      # Default: 0.2 Bohr
#MD.MaxForceTol        0.02 eV/Ang   # Default: 0.04 eV/Ang
#MD.MaxStressTol       1.0 GPa       # Default: 1.0 GPa
# Geometry Constraints
#%block GeometryConstraints
#	position from 1 to 44
#%endblock GeometryConstraints
BandLinesScale   pi/a
%block BandLines
 1   0.00000000  0.00000000  0.00000000
50   0.00000000  0.07809418  0.00000000
50   0.04509075  0.07809242  0.00000000
20   0.00000000  0.00000000  0.00000000
%endblock BandLines
************************** End of input data file *****************************

reinit: -----------------------------------------------------------------------
reinit: System Name: GRP_doping
reinit: -----------------------------------------------------------------------
reinit: System Label: GRP_doping                                                  
reinit: -----------------------------------------------------------------------

initatom: Reading input for the pseudopotentials and atomic orbitals ----------
 Species number:            1  Label: N Atomic number:           7
 Species number:            2  Label: C Atomic number:           6
Ground state valence configuration:   2s02  2p03
Reading pseudopotential information in formatted form from N.psf

Valence configuration for pseudopotential generation:
2s( 2.00) rc: 1.48
2p( 3.00) rc: 1.48
3d( 0.00) rc: 1.48
4f( 0.00) rc: 1.48
Ground state valence configuration:   2s02  2p02
Reading pseudopotential information in formatted form from C.psf

Valence configuration for pseudopotential generation:
2s( 2.00) rc: 1.54
2p( 2.00) rc: 1.54
3d( 0.00) rc: 1.54
4f( 0.00) rc: 1.54
For N, standard SIESTA heuristics set lmxkb to 3
 (one more than the basis l, including polarization orbitals).
Use PS.lmax or PS.KBprojectors blocks to override.
For C, standard SIESTA heuristics set lmxkb to 3
 (one more than the basis l, including polarization orbitals).
Use PS.lmax or PS.KBprojectors blocks to override.

<basis_specs>
===============================================================================
N                    Z=   7    Mass=  14.010        Charge= 0.17977+309
Lmxo=1 Lmxkb= 3    BasisType=split      Semic=F
L=0  Nsemic=0  Cnfigmx=2
          n=1  nzeta=2  polorb=0
            splnorm:   0.15000    
               vcte:    0.0000    
               rinn:    0.0000    
                rcs:    0.0000      0.0000    
            lambdas:    1.0000      1.0000    
L=1  Nsemic=0  Cnfigmx=2
          n=1  nzeta=2  polorb=1
            splnorm:   0.15000    
               vcte:    0.0000    
               rinn:    0.0000    
                rcs:    0.0000      0.0000    
            lambdas:    1.0000      1.0000    
-------------------------------------------------------------------------------
L=0  Nkbl=1  erefs: 0.17977+309
L=1  Nkbl=1  erefs: 0.17977+309
L=2  Nkbl=1  erefs: 0.17977+309
L=3  Nkbl=1  erefs: 0.17977+309
===============================================================================
</basis_specs>

atom: Called for N                     (Z =   7)

read_vps: Pseudopotential generation method:
read_vps: ATM3      Troullier-Martins                       
Total valence charge:    5.00000

read_vps: Pseudopotential includes a core correction:
read_vps: Pseudo-core for xc-correction

xc_check: Exchange-correlation functional:
xc_check: GGA Perdew, Burke & Ernzerhof 1996
V l=0 = -2*Zval/r beyond r=  1.4606
V l=1 = -2*Zval/r beyond r=  1.4606
V l=2 = -2*Zval/r beyond r=  1.4606
V l=3 = -2*Zval/r beyond r=  1.4606
All V_l potentials equal beyond r=  1.4606
This should be close to max(r_c) in ps generation
All pots = -2*Zval/r beyond r=  1.4606

VLOCAL1: 99.0% of the norm of Vloc inside     20.347 Ry
VLOCAL1: 99.9% of the norm of Vloc inside     46.372 Ry
atom: Maximum radius for 4*pi*r*r*local-pseudopot. charge    1.76189
atom: Maximum radius for r*vlocal+2*Zval:    1.53550
GHOST: No ghost state for L =  0
GHOST: No ghost state for L =  1
GHOST: No ghost state for L =  2
GHOST: No ghost state for L =  3

KBgen: Kleinman-Bylander projectors: 
   l= 0   rc=  1.634559   el= -1.363963   Ekb=  5.296955   kbcos=  0.335621
   l= 1   rc=  1.614250   el= -0.521451   Ekb= -5.259161   kbcos= -0.433408
   l= 2   rc=  1.718383   el=  0.001991   Ekb= -1.271464   kbcos= -0.007566
   l= 3   rc=  1.761893   el=  0.003093   Ekb= -0.494769   kbcos= -0.001015

KBgen: Total number of  Kleinman-Bylander projectors:   16
atom: -------------------------------------------------------------------------

atom: SANKEY-TYPE ORBITALS:
atom: Selected multiple-zeta basis: split     

SPLIT: Orbitals with angular momentum L= 0

SPLIT: Basis orbitals for state 2s

SPLIT: PAO cut-off radius determined from an
SPLIT: energy shift=  0.007350 Ry

   izeta = 1
                 lambda =    1.000000
                     rc =    4.071465
                 energy =   -1.356470
                kinetic =    1.176977
    potential(screened) =   -2.533447
       potential(ionic) =   -8.057990

   izeta = 2
                 rmatch =    2.905100
              splitnorm =    0.150000
                 energy =   -1.158343
                kinetic =    1.813009
    potential(screened) =   -2.971352
       potential(ionic) =   -8.901931

SPLIT: Orbitals with angular momentum L= 1

SPLIT: Basis orbitals for state 2p

SPLIT: PAO cut-off radius determined from an
SPLIT: energy shift=  0.007350 Ry

   izeta = 1
                 lambda =    1.000000
                     rc =    4.972977
                 energy =   -0.513884
                kinetic =    3.441732
    potential(screened) =   -3.955616
       potential(ionic) =   -9.287901

   izeta = 2
                 rmatch =    3.054066
              splitnorm =    0.150000
                 energy =   -0.318226
                kinetic =    5.125348
    potential(screened) =   -5.443573
       potential(ionic) =  -11.380999

POLgen: Perturbative polarization orbital with L=  2

POLgen: Polarization orbital for state 2p

   izeta = 1
                     rc =    4.972977
                 energy =    1.607437
                kinetic =    3.268125
    potential(screened) =   -1.660688
       potential(ionic) =   -5.973652
atom: Total number of Sankey-type orbitals: 13

atm_pop: Valence configuration (for local Pseudopot. screening):
 2s( 2.00)                                                            
 2p( 3.00)                                                            
Vna: chval, zval:    5.00000   5.00000

Vna:  Cut-off radius for the neutral-atom potential:   4.972977
comcore: Pseudo-core radius Rcore=  1.554824

atom: _________________________________________________________________________

<basis_specs>
===============================================================================
C                    Z=   6    Mass=  12.010        Charge= 0.17977+309
Lmxo=1 Lmxkb= 3    BasisType=split      Semic=F
L=0  Nsemic=0  Cnfigmx=2
          n=1  nzeta=2  polorb=0
            splnorm:   0.15000    
               vcte:    0.0000    
               rinn:    0.0000    
                rcs:    0.0000      0.0000    
            lambdas:    1.0000      1.0000    
L=1  Nsemic=0  Cnfigmx=2
          n=1  nzeta=2  polorb=1
            splnorm:   0.15000    
               vcte:    0.0000    
               rinn:    0.0000    
                rcs:    0.0000      0.0000    
            lambdas:    1.0000      1.0000    
-------------------------------------------------------------------------------
L=0  Nkbl=1  erefs: 0.17977+309
L=1  Nkbl=1  erefs: 0.17977+309
L=2  Nkbl=1  erefs: 0.17977+309
L=3  Nkbl=1  erefs: 0.17977+309
===============================================================================
</basis_specs>

atom: Called for C                     (Z =   6)

read_vps: Pseudopotential generation method:
read_vps: ATM3      Troullier-Martins                       
Total valence charge:    4.00000

read_vps: Pseudopotential includes a core correction:
read_vps: Pseudo-core for xc-correction

xc_check: Exchange-correlation functional:
xc_check: GGA Perdew, Burke & Ernzerhof 1996
V l=0 = -2*Zval/r beyond r=  1.5227
V l=1 = -2*Zval/r beyond r=  1.5227
V l=2 = -2*Zval/r beyond r=  1.5227
V l=3 = -2*Zval/r beyond r=  1.5038
All V_l potentials equal beyond r=  1.5227
This should be close to max(r_c) in ps generation
All pots = -2*Zval/r beyond r=  1.5227

VLOCAL1: 99.0% of the norm of Vloc inside     18.722 Ry
VLOCAL1: 99.9% of the norm of Vloc inside     42.668 Ry
atom: Maximum radius for 4*pi*r*r*local-pseudopot. charge    1.83678
atom: Maximum radius for r*vlocal+2*Zval:    1.58088
GHOST: No ghost state for L =  0
GHOST: No ghost state for L =  1
GHOST: No ghost state for L =  2
GHOST: No ghost state for L =  3

KBgen: Kleinman-Bylander projectors: 
   l= 0   rc=  1.704034   el= -1.009801   Ekb=  5.335044   kbcos=  0.316824
   l= 1   rc=  1.704034   el= -0.388707   Ekb= -3.785862   kbcos= -0.366464
   l= 2   rc=  1.791422   el=  0.001971   Ekb= -0.970471   kbcos= -0.009212
   l= 3   rc=  1.859892   el=  0.003065   Ekb= -0.399525   kbcos= -0.001223

KBgen: Total number of  Kleinman-Bylander projectors:   16
atom: -------------------------------------------------------------------------

atom: SANKEY-TYPE ORBITALS:
atom: Selected multiple-zeta basis: split     

SPLIT: Orbitals with angular momentum L= 0

SPLIT: Basis orbitals for state 2s

SPLIT: PAO cut-off radius determined from an
SPLIT: energy shift=  0.007350 Ry

   izeta = 1
                 lambda =    1.000000
                     rc =    4.632753
                 energy =   -1.002270
                kinetic =    0.855760
    potential(screened) =   -1.858031
       potential(ionic) =   -5.417575

   izeta = 2
                 rmatch =    3.431921
              splitnorm =    0.150000
                 energy =   -0.867111
                kinetic =    1.300804
    potential(screened) =   -2.167915
       potential(ionic) =   -5.962684

SPLIT: Orbitals with angular momentum L= 1

SPLIT: Basis orbitals for state 2p

SPLIT: PAO cut-off radius determined from an
SPLIT: energy shift=  0.007350 Ry

   izeta = 1
                 lambda =    1.000000
                     rc =    5.658549
                 energy =   -0.381140
                kinetic =    2.399701
    potential(screened) =   -2.780841
       potential(ionic) =   -6.206085

   izeta = 2
                 rmatch =    3.653288
              splitnorm =    0.150000
                 energy =   -0.249149
                kinetic =    3.542762
    potential(screened) =   -3.791911
       potential(ionic) =   -7.581078

POLgen: Perturbative polarization orbital with L=  2

POLgen: Polarization orbital for state 2p

   izeta = 1
                     rc =    5.658549
                 energy =    1.109913
                kinetic =    2.304789
    potential(screened) =   -1.194876
       potential(ionic) =   -4.013592
atom: Total number of Sankey-type orbitals: 13

atm_pop: Valence configuration (for local Pseudopot. screening):
 2s( 2.00)                                                            
 2p( 2.00)                                                            
Vna: chval, zval:    4.00000   4.00000

Vna:  Cut-off radius for the neutral-atom potential:   5.658549
comcore: Pseudo-core radius Rcore=  1.791422

atom: _________________________________________________________________________

prinput: Basis input ----------------------------------------------------------

PAO.BasisType split     

%block ChemicalSpeciesLabel
    1    7 N                       # Species index, atomic number, species label
    2    6 C                       # Species index, atomic number, species label
%endblock ChemicalSpeciesLabel

%block PAO.Basis                 # Define Basis set
N                     2                    # Species label, number of l-shells
 n=2   0   2                         # n, l, Nzeta 
   4.071      2.905   
   1.000      1.000   
 n=2   1   2 P   1                   # n, l, Nzeta, Polarization, NzetaPol
   4.973      3.054   
   1.000      1.000   
C                     2                    # Species label, number of l-shells
 n=2   0   2                         # n, l, Nzeta 
   4.633      3.432   
   1.000      1.000   
 n=2   1   2 P   1                   # n, l, Nzeta, Polarization, NzetaPol
   5.659      3.653   
   1.000      1.000   
%endblock PAO.Basis

prinput: ----------------------------------------------------------------------

coor:   Atomic-coordinates input format  =     Fractional

siesta: Atomic coordinates (Bohr) and species
siesta:     -9.33934  18.72698   0.00000  1        1
siesta:     -9.33934  21.41544   0.00000  1        2
siesta:     -7.01096  22.75985   0.00000  1        3
siesta:     -7.01096  25.44831   0.00000  1        4
siesta:     -4.68258  26.79272   0.00000  1        5
siesta:     -4.68258  29.48119   0.00000  1        6
siesta:     -2.35420  30.82560   0.00000  1        7
siesta:     -0.02582   2.59549   0.00000  2        8
siesta:     -0.02582   5.28395   0.00000  2        9
siesta:     -2.35420  38.89134   0.00000  2       10
siesta:     -2.35420  41.57980   0.00000  2       11
siesta:      2.30256  38.89134   0.00000  2       12
siesta:      2.30256  41.57980   0.00000  2       13
siesta:      4.63094  34.85847   0.00000  2       14
siesta:      4.63094  37.54693   0.00000  2       15
siesta:      6.95932  30.82560   0.00000  2       16
siesta:      6.95932  33.51406   0.00000  2       17
siesta:      9.28770  26.79272   0.00000  2       18
siesta:      9.28770  29.48119   0.00000  2       19
siesta:     -4.68258  34.85847   0.00000  2       20
siesta:     -4.68258  37.54693   0.00000  2       21
siesta:      2.30256   6.62836   0.00000  2       22
siesta:      2.30256   9.31683   0.00000  2       23
siesta:      4.63094  10.66124   0.00000  2       24
siesta:      4.63094  13.34970   0.00000  2       25
siesta:      6.95932  14.69411   0.00000  2       26
siesta:      6.95932  17.38257   0.00000  2       27
siesta:      9.28770  18.72698   0.00000  2       28
siesta:      9.28770  21.41544   0.00000  2       29
siesta:     11.61608  22.75985   0.00000  2       30
siesta:     11.61608  25.44831   0.00000  2       31
siesta:     -2.35420   6.62836   0.00000  2       32
siesta:     -2.35420   9.31683   0.00000  2       33
siesta:     -0.02582  10.66124   0.00000  2       34
siesta:     -0.02582  13.34970   0.00000  2       35
siesta:      2.30256  14.69411   0.00000  2       36
siesta:      2.30256  17.38257   0.00000  2       37
siesta:      4.63094  18.72698   0.00000  2       38
siesta:      4.63094  21.41544   0.00000  2       39
siesta:      6.95932  22.75985   0.00000  2       40
siesta:      6.95932  25.44831   0.00000  2       41
siesta:     -4.68258  10.66124   0.00000  2       42
siesta:     -4.68258  13.34970   0.00000  2       43
siesta:     -2.35420  14.69411   0.00000  2       44
siesta:     -2.35420  17.38257   0.00000  2       45
siesta:     -0.02582  18.72698   0.00000  2       46
siesta:     -0.02582  21.41544   0.00000  2       47
siesta:      2.30256  22.75985   0.00000  2       48
siesta:      2.30256  25.44831   0.00000  2       49
siesta:     -7.01096  14.69411   0.00000  2       50
siesta:     -7.01096  17.38257   0.00000  2       51
siesta:     -4.68258  18.72698   0.00000  2       52
siesta:     -4.68258  21.41544   0.00000  2       53
siesta:     -2.35420  22.75985   0.00000  2       54
siesta:     -2.35420  25.44831   0.00000  2       55
siesta:    -11.66772  22.75985   0.00000  2       56
siesta:    -11.66772  25.44831   0.00000  2       57
siesta:     -9.33934  26.79272   0.00000  2       58
siesta:     -9.33934  29.48119   0.00000  2       59
siesta:      4.63094  26.79272   0.00000  2       60
siesta:      4.63094  29.48119   0.00000  2       61
siesta:     -0.02582  26.79272   0.00000  2       62
siesta:     -0.02582  29.48119   0.00000  2       63
siesta:      2.30256  30.82560   0.00000  2       64
siesta:      2.30256  33.51406   0.00000  2       65
siesta:     -2.35420  33.51406   0.00000  2       66
siesta:     -7.01096  30.82560   0.00000  2       67
siesta:     -7.01096  33.51406   0.00000  2       68
siesta:     -0.02582  34.85847   0.00000  2       69
siesta:     -0.02582  37.54693   0.00000  2       70
siesta:     -0.02582  42.92421   0.00000  2       71
siesta:     -0.02582  45.61267   0.00000  2       72

siesta: System type = slab      

initatomlists: Number of atoms, orbitals, and projectors:     72   936  1152

siesta: ******************** Simulation parameters ****************************
siesta:
siesta: The following are some of the parameters of the simulation.
siesta: A complete list of the parameters used, including default values,
siesta: can be found in file out.fdf
siesta:
redata: Non-Collinear-spin run           =     F
redata: SpinPolarized (Up/Down) run      =     F
redata: Number of spin components        =     1
redata: Long output                      =     F
redata: Number of Atomic Species         =        2
redata: Charge density info will appear in .RHO file
redata: Write Mulliken Pop.              =     NO
redata: Mesh Cutoff                      =   200.0000  Ry
redata: Net charge of the system         =     0.0000 |e|
redata: Max. number of SCF Iter          =      500
redata: SCF convergence failure will abort job
redata: Performing Pulay mixing using    =    10 iterations
redata: Mix DM in first SCF step ?       =     F
redata: Write Pulay info on disk?        =     F
redata: Discard 1st Pulay DM after  kick =     F
redata: New DM Mixing Weight             =     0.0500
redata: New DM Occupancy tolerance       = 0.000000000001
redata: No kicks to SCF
redata: DM Mixing Weight for Kicks       =     0.5000
redata: DM Tolerance for SCF             =     0.000100
redata: Require Energy convergence for SCF =     F
redata: DM Energy tolerance for SCF      =     0.000100 eV
redata: Require Harris convergence for SCF =     F
redata: DM Harris energy tolerance for SCF =     0.000100 eV
redata: Using Saved Data (generic)   =     F
redata: Use continuation files for DM    =     T
redata: Neglect nonoverlap interactions  =     F
redata: Method of Calculation            =     Diagonalization
redata: Divide and Conquer               =     T
redata: Electronic Temperature           =     0.0019  Ry
redata: Fix the spin of the system       =     F
redata: Dynamics option                  =     Verlet MD run
redata: Initial MD time step             =        1
redata:   Final MD time step             =        1
redata: Length of MD time step           =     1.0000  fs
redata: Initial Temperature of MD run    =     0.0000  K
redata: Perform a MD quench              =     F
redata: ***********************************************************************
Total number of electrons:   295.000000
Total ionic charge:   295.000000

* ProcessorY, Blocksize:    3  24

k-point displ. along   1 input, could be:     0.50    0.00
k-point displ. along   2 input, could be:     0.50    0.00
 Kpoints in:          231 . Kpoints trimmed:          231

siesta: k-grid: Number of k-points =   231
siesta: k-grid: Cutoff (effective) =     5.000 Ang
siesta: k-grid: Supercell and displacements
siesta: k-grid:   21   0   0      0.500
siesta: k-grid:    0  21   0      0.500
siesta: k-grid:    0   0   1      0.000
Naive supercell factors:     2    2    2

superc: Internal auxiliary supercell:     2 x     2 x     2  =       8
superc: Number of atoms, orbitals, and projectors:    576   7488   9216

* Maximum dynamic memory allocated =     4 MB

siesta:                 ==============================
                            Begin MD step =      1
                        ==============================

superc: Internal auxiliary supercell:     2 x     2 x     2  =       8
superc: Number of atoms, orbitals, and projectors:    576   7488   9216

outcell: Unit cell vectors (Ang):
       12.804619    7.392750    0.000000
        0.000000   14.785500    0.000000
        0.000000    0.000000   10.000000

outcell: Cell vector modules (Ang)   :   14.785500   14.785500   10.000000
outcell: Cell angles (23,13,12) (deg):     90.0000     90.0000     60.0000
outcell: Cell volume (Ang**3)        :   1893.2269
New_DM. Step:     1
Initializing Density Matrix...

InitMesh: MESH =   120 x   120 x    90 =     1296000
InitMesh: Mesh cutoff (required, used) =   200.000   223.865 Ry

* Maximum dynamic memory allocated =   138 MB

stepf: Fermi-Dirac step function

siesta: Program's energy decomposition (eV):
siesta: Ebs     =     -5977.164834
siesta: Eions   =     19528.238980
siesta: Ena     =      4782.399055
siesta: Ekin    =      6965.634232
siesta: Enl     =       429.865442
siesta: DEna    =        -0.000015
siesta: DUscf   =         0.000000
siesta: DUext   =         0.000000
siesta: Exc     =     -4338.278294
siesta: eta*DQ  =         0.000000
siesta: Emadel  =         0.000000
siesta: Emeta   =         0.000000
siesta: Emolmec =         0.000000
siesta: Ekinion =         0.000000
siesta: Eharris =    -11362.915836
siesta: Etot    =    -11688.618561
siesta: FreeEng =    -11688.618561

siesta: iscf   Eharris(eV)      E_KS(eV)   FreeEng(eV)   dDmax  Ef(eV)
siesta:    1   -11362.9158   -11688.6186   -11688.6186  6.3866 -7.3573
timer: Routine,Calls,Time,% = IterSCF        1    3008.731  99.60
elaps: Routine,Calls,Wall,% = IterSCF        1     251.327  99.60
siesta:    2   -16307.5471   -10653.3527   -10653.3909 11.0079 -4.4414
siesta:    3   -11371.4315   -11453.5221   -11453.5821  1.6479 -4.2625
siesta:    4   -11281.3197   -11380.8837   -11380.9387  1.1994 -4.4698
siesta:    5   -11247.0084   -11324.2667   -11324.3051  0.8865 -4.5884
siesta:    6   -11234.9508   -11289.0067   -11289.0521  0.7574 -4.3202
siesta:    7   -11211.7271   -11258.2192   -11258.2820  0.6594 -4.2055
siesta:    8   -11209.6091   -11243.2827   -11243.3258  0.5393 -4.1781
siesta:    9   -11207.9445   -11236.8056   -11236.8634  0.4959 -4.2165
siesta:   10   -11207.5981   -11224.8238   -11224.8741  0.3353 -4.2969
siesta:   11   -11207.2642   -11216.3161   -11216.3800  0.3207 -4.2724
siesta:   12   -11207.7008   -11200.5094   -11200.5611  0.3524 -4.1765
siesta:   13   -11207.9266   -11197.5776   -11197.6334  0.3551 -4.1339
siesta:   14   -11207.6164   -11201.7035   -11201.7576  0.3305 -4.1676
siesta:   15   -11206.7190   -11204.5062   -11204.5654  0.3003 -4.2566
siesta:   16   -11206.4578   -11205.7167   -11205.7624  0.2693 -4.2724
siesta:   17   -11206.2405   -11203.5430   -11203.5904  0.1110 -4.2544
siesta:   18   -11206.1695   -11202.4818   -11202.5348  0.1827 -4.2641
siesta:   19   -11206.0289   -11201.5150   -11201.5621  0.0573 -4.2620
siesta:   20   -11206.0141   -11201.4521   -11201.5005  0.1118 -4.2726
siesta:   21   -11205.9937   -11201.8824   -11201.9318  0.0279 -4.2693
siesta:   22   -11205.9851   -11203.0218   -11203.0737  0.0211 -4.2694
siesta:   23   -11205.9849   -11203.8655   -11203.9181  0.0273 -4.2695
siesta:   24   -11205.9813   -11204.1339   -11204.1851  0.0316 -4.2651
siesta:   25   -11205.9800   -11204.6928   -11204.7459  0.0157 -4.2675
siesta:   26   -11205.9787   -11204.8062   -11204.8577  0.0159 -4.2653
siesta:   27   -11205.9783   -11204.9887   -11205.0412  0.0062 -4.2659
siesta:   28   -11205.9778   -11205.0858   -11205.1379  0.0042 -4.2665
siesta:   29   -11205.9776   -11205.2208   -11205.2729  0.0047 -4.2675
siesta:   30   -11205.9774   -11205.3332   -11205.3850  0.0037 -4.2676
siesta:   31   -11205.9774   -11205.4440   -11205.4960  0.0031 -4.2680
siesta:   32   -11205.9775   -11205.6173   -11205.6693  0.0033 -4.2682
siesta:   33   -11205.9774   -11205.7967   -11205.8486  0.0015 -4.2688
siesta:   34   -11205.9774   -11205.8678   -11205.9198  0.0011 -4.2690
siesta:   35   -11205.9773   -11205.9009   -11205.9528  0.0006 -4.2692
siesta:   36   -11205.9773   -11205.9115   -11205.9635  0.0005 -4.2693
siesta:   37   -11205.9773   -11205.9287   -11205.9806  0.0004 -4.2693
siesta:   38   -11205.9773   -11205.9376   -11205.9896  0.0003 -4.2692
siesta:   39   -11205.9773   -11205.9515   -11206.0035  0.0002 -4.2692
siesta:   40   -11205.9773   -11205.9578   -11206.0098  0.0002 -4.2691
siesta:   41   -11205.9773   -11205.9658   -11206.0178  0.0002 -4.2691
siesta:   42   -11205.9773   -11205.9678   -11206.0198  0.0001 -4.2690

siesta: E_KS(eV) =           -11205.9704

siesta: E_KS - E_eggbox =    -11205.9704

siesta: Atomic forces (eV/Ang):
----------------------------------------
   Tot   -0.173798   -0.011675    0.000000
----------------------------------------
   Max  574.726230
   Res  161.761761    sqrt( Sum f_i^2 / 3N )
----------------------------------------
   Max  574.726230    constrained

Stress-tensor-Voigt (kbar):     -712.46    -2825.52       -0.11       -4.48        0.00        0.00
(Free)E + p*V (eV/cell)    -9812.4317
Target enthalpy (eV/cell)   -11206.0224

siesta: Stress tensor (static) (eV/Ang**3):
        -0.444678   -0.002796    0.000000
        -0.002796   -1.763529    0.000000
         0.000000    0.000000   -0.000071

siesta: Pressure (static):       1179.36342571  kBar

siesta: Stress tensor (total) (eV/Ang**3):
        -0.444678   -0.002796    0.000000
        -0.002796   -1.763529    0.000000
         0.000000    0.000000   -0.000071

siesta: Pressure (total):       1179.36342571  kBar

siesta: Temp_ion =       0.000 K

* Maximum dynamic memory allocated =   150 MB
Computing bands...

siesta: Program's energy decomposition (eV):
siesta: Ebs     =     -4748.488385
siesta: Eions   =     19528.238980
siesta: Ena     =      4782.399055
siesta: Ekin    =      9906.780710
siesta: Enl     =     -1208.549138
siesta: DEna    =      -756.377874
siesta: DUscf   =       100.956554
siesta: DUext   =         0.000000
siesta: Exc     =     -4502.940711
siesta: eta*DQ  =         0.000000
siesta: Emadel  =         0.000000
siesta: Emeta   =         0.000000
siesta: Emolmec =         0.000000
siesta: Ekinion =         0.000000
siesta: Eharris =    -11205.977297
siesta: Etot    =    -11205.970383
siesta: FreeEng =    -11206.022375

siesta: Final energy (eV):
siesta:  Band Struct. =   -4748.488385
siesta:       Kinetic =    9906.780710
siesta:       Hartree =   32086.554492
siesta:    Ext. field =       0.000000
siesta:   Exch.-corr. =   -4502.940711
siesta:  Ion-electron =  -73719.619813
siesta:       Ion-ion =   25023.254939
siesta:       Ekinion =       0.000000
siesta:         Total =  -11205.970383

siesta: Atomic forces (eV/Ang):
siesta:      1    0.979165    1.772176    0.000000
siesta:      2   -2.256881   -2.376909    0.000000
siesta:      3    2.251498    0.346445    0.000000
siesta:      4   -1.671677   -0.344620    0.000000
siesta:      5    1.665198   -2.332226    0.000000
siesta:      6   -1.927934   -3.390854    0.000000
siesta:      7  -25.975807    7.037260    0.000000
siesta:      8   -8.323420  552.569293    0.000000
siesta:      9   -2.641141 -126.347881    0.000000
siesta:     10    0.889006  127.611851    0.000000
siesta:     11  -16.078091 -549.454616    0.000000
siesta:     12   -1.530238  127.676824    0.000000
siesta:     13   17.012707 -548.522297    0.000000
siesta:     14   27.128846    6.121557    0.000000
siesta:     15   33.752598 -549.856573    0.000000
siesta:     16    2.104822   -0.034118    0.000000
siesta:     17   -2.903024    2.012059    0.000000
siesta:     18    2.160880    2.010369    0.000000
siesta:     19   -1.582783    0.161264    0.000000
siesta:     20  -26.069427    6.614556    0.000000
siesta:     21  -33.164281 -549.844363    0.000000
siesta:     22   14.855301  548.768169    0.000000
siesta:     23   -0.795368 -127.513762    0.000000
siesta:     24   33.620368  549.842953    0.000000
siesta:     25   26.811739   -6.282852    0.000000
siesta:     26   -2.702806   -1.913205    0.000000
siesta:     27    2.050059   -0.161554    0.000000
siesta:     28   -1.314285    0.043356    0.000000
siesta:     29    2.242906   -2.178963    0.000000
siesta:     30   -0.230592    7.396320    0.000000
siesta:     31   -0.257514   -7.454006    0.000000
siesta:     32  -19.983812  551.493109    0.000000
siesta:     33    0.280026 -126.803087    0.000000
siesta:     34    0.856492  544.261037    0.000000
siesta:     35   -0.758011 -128.003808    0.000000
siesta:     36   21.611605  558.009346    0.000000
siesta:     37   22.663968   -5.909420    0.000000
siesta:     38   -1.284569    2.282797    0.000000
siesta:     39    0.390303   -0.236536    0.000000
siesta:     40   -0.357445    0.495577    0.000000
siesta:     41   -0.197637   -0.618623    0.000000
siesta:     42  -34.414915  550.146435    0.000000
siesta:     43  -26.278888   -7.145476    0.000000
siesta:     44  -20.086612  558.875068    0.000000
siesta:     45  -22.880096   -5.343435    0.000000
siesta:     46   -0.425217  563.307406    0.000000
siesta:     47   -0.540503    1.458495    0.000000
siesta:     48   -0.000146    0.245837    0.000000
siesta:     49   -0.293191   -0.484509    0.000000
siesta:     50    1.636710   -0.384072    0.000000
siesta:     51   -1.229739    0.427928    0.000000
siesta:     52    0.712658    2.751744    0.000000
siesta:     53   -1.201686    0.212589    0.000000
siesta:     54   -0.096528   -0.508353    0.000000
siesta:     55   -0.867033    1.706546    0.000000
siesta:     56    1.589626    2.495096    0.000000
siesta:     57    0.818231   -4.503546    0.000000
siesta:     58   -0.913633    1.042850    0.000000
siesta:     59    1.709507    0.347714    0.000000
siesta:     60    0.468240    0.562717    0.000000
siesta:     61   -1.353979   -2.542397    0.000000
siesta:     62   -0.757591   -0.703217    0.000000
siesta:     63   10.318113 -574.726230    0.000000
siesta:     64   23.406928    6.475833    0.000000
siesta:     65   22.232845 -558.288117    0.000000
siesta:     66  -10.919241 -556.833636    0.000000
siesta:     67   -1.933194    0.353261    0.000000
siesta:     68    2.599463    0.548282    0.000000
siesta:     69   -0.875758  127.196976    0.000000
siesta:     70   -1.130636 -543.506167    0.000000
siesta:     71   -0.602441  128.643997    0.000000
siesta:     72   -0.185830 -548.787343    0.000000
siesta: ----------------------------------------
siesta:    Tot   -0.173798   -0.011675    0.000000

siesta: Stress tensor (static) (eV/Ang**3):
siesta:    -0.444678   -0.002796    0.000000
siesta:    -0.002796   -1.763529    0.000000
siesta:     0.000000    0.000000   -0.000071

siesta: Cell volume =       1893.226884 Ang**3

siesta: Pressure (static):
siesta:                Solid            Molecule  Units
siesta:           0.00801699          0.12603932  Ry/Bohr**3
siesta:           0.73609280         11.57250207  eV/Ang**3
siesta:        1179.36342571      18541.39281781  kBar
(Free)E+ p_basis*V_orbitals  =      -11176.285501
(Free)Eharris+ p_basis*V_orbitals  =      -11176.294950

siesta: Electric dipole (a.u.)  =    0.000000    0.000000    0.000000
siesta: Electric dipole (Debye) =    0.000000    0.000000    0.000000

* Maximum dynamic memory allocated : Node    0 =   148 MB
* Maximum dynamic memory allocated : Node    1 =    59 MB
* Maximum dynamic memory allocated : Node    2 =    60 MB
* Maximum dynamic memory allocated : Node    3 =   135 MB
* Maximum dynamic memory allocated : Node    4 =   150 MB
* Maximum dynamic memory allocated : Node    5 =    55 MB
* Maximum dynamic memory allocated : Node    6 =    56 MB
* Maximum dynamic memory allocated : Node    7 =   142 MB
* Maximum dynamic memory allocated : Node    8 =   132 MB
* Maximum dynamic memory allocated : Node    9 =    53 MB
* Maximum dynamic memory allocated : Node   10 =    55 MB
* Maximum dynamic memory allocated : Node   11 =   126 MB

* Maximum memory occured during matrixMtoO                    

timer: CPU execution times:
timer:  Routine       Calls   Time/call    Tot.time        %
timer:  siesta            1  123399.389  123399.389   100.00
timer:  Setup             1       3.344       3.344     0.00
timer:  bands             3     226.061     678.184     0.55
timer:  writewave         1       0.024       0.024     0.00
timer:  KSV_init          1       0.005       0.005     0.00
timer:  IterMD            1  122710.927  122710.927    99.44
timer:  hsparse           1       0.165       0.165     0.00
timer:  overlap           1       5.718       5.718     0.00
timer:  IterSCF          42    2918.568  122579.842    99.34
timer:  kinefsm           2       2.910       5.820     0.00
timer:  nlefsm            2      18.908      37.816     0.03
timer:  DHSCF            43      68.069    2926.955     2.37
timer:  DHSCF1            1       0.904       0.904     0.00
timer:  DHSCF2            1      25.219      25.219     0.02
timer:  REORD           346       0.002       0.825     0.00
timer:  POISON           44       0.450      19.822     0.02
timer:  DHSCF3           43      66.942    2878.517     2.33
timer:  rhoofd           43      13.338     573.547     0.46
timer:  cellXC           43       2.406     103.437     0.08
timer:  vmat             43      30.174    1297.471     1.05
timer:  MolMec            2       0.000       0.000     0.00
timer:  diagon           42    2849.336  119672.091    96.98
timer:  c-eigval       9823       5.600   55009.844    44.58
timer:  c-buildHS      9823       0.033     325.567     0.26
timer:  cdiag         19525       5.687  111030.510    89.98
timer:  cdiag1        19525       0.261    5098.184     4.13
timer:  cdiag2        19525       1.831   35748.768    28.97
timer:  cdiag3        19525       3.401   66394.793    53.80
timer:  cdiag4        19525       0.088    1709.172     1.39
timer:  c-eigvec       9702       5.836   56621.654    45.88
timer:  c-buildD       9702       0.893    8665.903     7.02
timer:  DHSCF4            1      22.076      22.076     0.02
timer:  dfscf             1      20.633      20.633     0.02
timer:  overfsm           1       0.287       0.287     0.00
timer:  optical           1       6.326       6.326     0.01
  

elaps: ELAPSED times:
elaps:  Routine       Calls   Time/call    Tot.time        %
elaps:  siesta            1   10307.486   10307.486   100.00
elaps:  Setup             1       0.278       0.278     0.00
elaps:  bands             3      18.898      56.694     0.55
elaps:  writewave         1       0.002       0.002     0.00
elaps:  KSV_init          1       0.000       0.000     0.00
elaps:  IterMD            1   10249.981   10249.981    99.44
elaps:  hsparse           1       0.016       0.016     0.00
elaps:  overlap           1       0.710       0.710     0.01
elaps:  IterSCF          42     243.786   10239.032    99.34
elaps:  kinefsm           2       0.362       0.724     0.01
elaps:  nlefsm            2       1.621       3.242     0.03
elaps:  DHSCF            43       5.726     246.197     2.39
elaps:  DHSCF1            1       0.077       0.077     0.00
elaps:  DHSCF2            1       2.105       2.105     0.02
elaps:  REORD           346       0.000       0.105     0.00
elaps:  POISON           44       0.038       1.673     0.02
elaps:  DHSCF3           43       5.593     240.483     2.33
elaps:  rhoofd           43       2.261      97.225     0.94
elaps:  cellXC           43       0.200       8.621     0.08
elaps:  vmat             43       2.521     108.420     1.05
elaps:  MolMec            2       0.000       0.000     0.00
elaps:  diagon           42     238.007    9996.310    96.98
elaps:  c-eigval       9823       0.468    4594.886    44.58
elaps:  c-buildHS      9823       0.003      33.518     0.33
elaps:  cdiag         19525       0.472    9208.144    89.33
elaps:  cdiag1        19525       0.021     419.352     4.07
elaps:  cdiag2        19525       0.153    2988.720    29.00
elaps:  cdiag3        19525       0.284    5554.632    53.89
elaps:  cdiag4        19525       0.007     135.575     1.32
elaps:  c-eigvec       9702       0.482    4674.869    45.35
elaps:  c-buildD       9702       0.080     778.253     7.55
elaps:  DHSCF4            1       3.486       3.486     0.03
elaps:  dfscf             1       3.296       3.296     0.03
elaps:  overfsm           1       0.029       0.029     0.00
elaps:  optical           1       0.000       0.000     0.00
  
>> End of run:   7-MAY-2016   3:20:48
