Siesta Version:                                        siesta-3.2-pl-3
Architecture  : x86_64-unknown-linux-gnu--unknown
Compiler flags: mpiifort -g -O2 -fPIC -xSSE4.1 -fp-model source -shared-intel 
PARALLEL version

* Running on   12 nodes in parallel
>> Start of run:   6-APR-2016  14:33:52

                           ***********************       
                           *  WELCOME TO SIESTA  *       
                           ***********************       

reinit: Reading from standard input
************************** Dump of input data file ****************************
#(1) General system descriptors
SystemName            GRP_doping    # Descriptive name of the system
SystemLabel           GRP_doping    # Short name for naming files
%include STRUCT.fdf
%include KPT.fdf
%include BASIS.fdf
#%include TS.fdf # for transiesta calculation
#(4) DFT, Grid, SCF
XC.functional         GGA           # LDA or GGA (default = LDA)
XC.authors            PBE           # CA (Ceperley-Aldr) = PZ
                                    #    (Perdew-Zunger) - LDA - Default
                                    # PW92 (Perdew-Wang-92) - LDA
                                    # PBE (Perdew-Burke-Ernzerhof) - GGA
MeshCutoff            200.000000    Ry      # Default: 50.0 Ry ~ 0.444 Bohr
                                    #         100.0 Ry ~ 0.314 Bohr
MaxSCFIterations      500           # Default: 50
DM.MixingWeight       0.05          # Default: 0.25
DM.NumberPulay        10            # Default: 0
DM.PulayOnFile        F             # SystemLabel.P1, SystemLabel.P2
DM.Tolerance          1.d-4         # Default: 1.d-4
DM.UseSaveDM          .true.        # because of the bug
SCFMustConverge       .true.
NeglNonOverlapInt     F             # Default: F
Diag.ParallelOverK    .true.
#(5) Eigenvalue problem: order-N or diagonalization
SolutionMethod        Diagon        # or Transiesta
ElectronicTemperature 300.0 K       # Default: 300.0 K
#(6) Molecular dynamics and relaxations
#MD.TypeOfRun          CG            # Type of dynamics:
#MD.VariableCell       F
#MD.NumCGsteps         0           # 0 for single-point / 100 for gopt
#MD.MaxCGDispl         0.2 Bohr      # Default: 0.2 Bohr
#MD.MaxForceTol        0.02 eV/Ang   # Default: 0.04 eV/Ang
#MD.MaxStressTol       1.0 GPa       # Default: 1.0 GPa
************************** End of input data file *****************************

reinit: -----------------------------------------------------------------------
reinit: System Name: GRP_doping
reinit: -----------------------------------------------------------------------
reinit: System Label: GRP_doping                                                  
reinit: -----------------------------------------------------------------------

initatom: Reading input for the pseudopotentials and atomic orbitals ----------
 Species number:            1  Label: C Atomic number:           6
 Species number:            2  Label: N Atomic number:           7
Ground state valence configuration:   2s02  2p02
Reading pseudopotential information in formatted form from C.psf

Valence configuration for pseudopotential generation:
2s( 2.00) rc: 1.54
2p( 2.00) rc: 1.54
3d( 0.00) rc: 1.54
4f( 0.00) rc: 1.54
Ground state valence configuration:   2s02  2p03
Reading pseudopotential information in formatted form from N.psf

Valence configuration for pseudopotential generation:
2s( 2.00) rc: 1.48
2p( 3.00) rc: 1.48
3d( 0.00) rc: 1.48
4f( 0.00) rc: 1.48
For C, standard SIESTA heuristics set lmxkb to 3
 (one more than the basis l, including polarization orbitals).
Use PS.lmax or PS.KBprojectors blocks to override.
For N, standard SIESTA heuristics set lmxkb to 3
 (one more than the basis l, including polarization orbitals).
Use PS.lmax or PS.KBprojectors blocks to override.

<basis_specs>
===============================================================================
C                    Z=   6    Mass=  12.010        Charge= 0.17977+309
Lmxo=1 Lmxkb= 3    BasisType=split      Semic=F
L=0  Nsemic=0  Cnfigmx=2
          n=1  nzeta=2  polorb=0
            splnorm:   0.15000    
               vcte:    0.0000    
               rinn:    0.0000    
                rcs:    0.0000      0.0000    
            lambdas:    1.0000      1.0000    
L=1  Nsemic=0  Cnfigmx=2
          n=1  nzeta=2  polorb=1
            splnorm:   0.15000    
               vcte:    0.0000    
               rinn:    0.0000    
                rcs:    0.0000      0.0000    
            lambdas:    1.0000      1.0000    
-------------------------------------------------------------------------------
L=0  Nkbl=1  erefs: 0.17977+309
L=1  Nkbl=1  erefs: 0.17977+309
L=2  Nkbl=1  erefs: 0.17977+309
L=3  Nkbl=1  erefs: 0.17977+309
===============================================================================
</basis_specs>

atom: Called for C                     (Z =   6)

read_vps: Pseudopotential generation method:
read_vps: ATM3      Troullier-Martins                       
Total valence charge:    4.00000

read_vps: Pseudopotential includes a core correction:
read_vps: Pseudo-core for xc-correction

xc_check: Exchange-correlation functional:
xc_check: GGA Perdew, Burke & Ernzerhof 1996
V l=0 = -2*Zval/r beyond r=  1.5227
V l=1 = -2*Zval/r beyond r=  1.5227
V l=2 = -2*Zval/r beyond r=  1.5227
V l=3 = -2*Zval/r beyond r=  1.5038
All V_l potentials equal beyond r=  1.5227
This should be close to max(r_c) in ps generation
All pots = -2*Zval/r beyond r=  1.5227

VLOCAL1: 99.0% of the norm of Vloc inside     18.722 Ry
VLOCAL1: 99.9% of the norm of Vloc inside     42.668 Ry
atom: Maximum radius for 4*pi*r*r*local-pseudopot. charge    1.83678
atom: Maximum radius for r*vlocal+2*Zval:    1.58088
GHOST: No ghost state for L =  0
GHOST: No ghost state for L =  1
GHOST: No ghost state for L =  2
GHOST: No ghost state for L =  3

KBgen: Kleinman-Bylander projectors: 
   l= 0   rc=  1.704034   el= -1.009801   Ekb=  5.335044   kbcos=  0.316824
   l= 1   rc=  1.704034   el= -0.388707   Ekb= -3.785862   kbcos= -0.366464
   l= 2   rc=  1.791422   el=  0.001971   Ekb= -0.970471   kbcos= -0.009212
   l= 3   rc=  1.859892   el=  0.003065   Ekb= -0.399525   kbcos= -0.001223

KBgen: Total number of  Kleinman-Bylander projectors:   16
atom: -------------------------------------------------------------------------

atom: SANKEY-TYPE ORBITALS:
atom: Selected multiple-zeta basis: split     

SPLIT: Orbitals with angular momentum L= 0

SPLIT: Basis orbitals for state 2s

SPLIT: PAO cut-off radius determined from an
SPLIT: energy shift=  0.007350 Ry

   izeta = 1
                 lambda =    1.000000
                     rc =    4.632753
                 energy =   -1.002270
                kinetic =    0.855760
    potential(screened) =   -1.858031
       potential(ionic) =   -5.417575

   izeta = 2
                 rmatch =    3.431921
              splitnorm =    0.150000
                 energy =   -0.867111
                kinetic =    1.300804
    potential(screened) =   -2.167915
       potential(ionic) =   -5.962684

SPLIT: Orbitals with angular momentum L= 1

SPLIT: Basis orbitals for state 2p

SPLIT: PAO cut-off radius determined from an
SPLIT: energy shift=  0.007350 Ry

   izeta = 1
                 lambda =    1.000000
                     rc =    5.658549
                 energy =   -0.381140
                kinetic =    2.399701
    potential(screened) =   -2.780841
       potential(ionic) =   -6.206085

   izeta = 2
                 rmatch =    3.653288
              splitnorm =    0.150000
                 energy =   -0.249149
                kinetic =    3.542762
    potential(screened) =   -3.791911
       potential(ionic) =   -7.581078

POLgen: Perturbative polarization orbital with L=  2

POLgen: Polarization orbital for state 2p

   izeta = 1
                     rc =    5.658549
                 energy =    1.109913
                kinetic =    2.304789
    potential(screened) =   -1.194876
       potential(ionic) =   -4.013592
atom: Total number of Sankey-type orbitals: 13

atm_pop: Valence configuration (for local Pseudopot. screening):
 2s( 2.00)                                                            
 2p( 2.00)                                                            
Vna: chval, zval:    4.00000   4.00000

Vna:  Cut-off radius for the neutral-atom potential:   5.658549
comcore: Pseudo-core radius Rcore=  1.791422

atom: _________________________________________________________________________

<basis_specs>
===============================================================================
N                    Z=   7    Mass=  14.010        Charge= 0.17977+309
Lmxo=1 Lmxkb= 3    BasisType=split      Semic=F
L=0  Nsemic=0  Cnfigmx=2
          n=1  nzeta=2  polorb=0
            splnorm:   0.15000    
               vcte:    0.0000    
               rinn:    0.0000    
                rcs:    0.0000      0.0000    
            lambdas:    1.0000      1.0000    
L=1  Nsemic=0  Cnfigmx=2
          n=1  nzeta=2  polorb=1
            splnorm:   0.15000    
               vcte:    0.0000    
               rinn:    0.0000    
                rcs:    0.0000      0.0000    
            lambdas:    1.0000      1.0000    
-------------------------------------------------------------------------------
L=0  Nkbl=1  erefs: 0.17977+309
L=1  Nkbl=1  erefs: 0.17977+309
L=2  Nkbl=1  erefs: 0.17977+309
L=3  Nkbl=1  erefs: 0.17977+309
===============================================================================
</basis_specs>

atom: Called for N                     (Z =   7)

read_vps: Pseudopotential generation method:
read_vps: ATM3      Troullier-Martins                       
Total valence charge:    5.00000

read_vps: Pseudopotential includes a core correction:
read_vps: Pseudo-core for xc-correction

xc_check: Exchange-correlation functional:
xc_check: GGA Perdew, Burke & Ernzerhof 1996
V l=0 = -2*Zval/r beyond r=  1.4606
V l=1 = -2*Zval/r beyond r=  1.4606
V l=2 = -2*Zval/r beyond r=  1.4606
V l=3 = -2*Zval/r beyond r=  1.4606
All V_l potentials equal beyond r=  1.4606
This should be close to max(r_c) in ps generation
All pots = -2*Zval/r beyond r=  1.4606

VLOCAL1: 99.0% of the norm of Vloc inside     20.347 Ry
VLOCAL1: 99.9% of the norm of Vloc inside     46.372 Ry
atom: Maximum radius for 4*pi*r*r*local-pseudopot. charge    1.76189
atom: Maximum radius for r*vlocal+2*Zval:    1.53550
GHOST: No ghost state for L =  0
GHOST: No ghost state for L =  1
GHOST: No ghost state for L =  2
GHOST: No ghost state for L =  3

KBgen: Kleinman-Bylander projectors: 
   l= 0   rc=  1.634559   el= -1.363963   Ekb=  5.296955   kbcos=  0.335621
   l= 1   rc=  1.614250   el= -0.521451   Ekb= -5.259161   kbcos= -0.433408
   l= 2   rc=  1.718383   el=  0.001991   Ekb= -1.271464   kbcos= -0.007566
   l= 3   rc=  1.761893   el=  0.003093   Ekb= -0.494769   kbcos= -0.001015

KBgen: Total number of  Kleinman-Bylander projectors:   16
atom: -------------------------------------------------------------------------

atom: SANKEY-TYPE ORBITALS:
atom: Selected multiple-zeta basis: split     

SPLIT: Orbitals with angular momentum L= 0

SPLIT: Basis orbitals for state 2s

SPLIT: PAO cut-off radius determined from an
SPLIT: energy shift=  0.007350 Ry

   izeta = 1
                 lambda =    1.000000
                     rc =    4.071465
                 energy =   -1.356470
                kinetic =    1.176977
    potential(screened) =   -2.533447
       potential(ionic) =   -8.057990

   izeta = 2
                 rmatch =    2.905100
              splitnorm =    0.150000
                 energy =   -1.158343
                kinetic =    1.813009
    potential(screened) =   -2.971352
       potential(ionic) =   -8.901931

SPLIT: Orbitals with angular momentum L= 1

SPLIT: Basis orbitals for state 2p

SPLIT: PAO cut-off radius determined from an
SPLIT: energy shift=  0.007350 Ry

   izeta = 1
                 lambda =    1.000000
                     rc =    4.972977
                 energy =   -0.513884
                kinetic =    3.441732
    potential(screened) =   -3.955616
       potential(ionic) =   -9.287901

   izeta = 2
                 rmatch =    3.054066
              splitnorm =    0.150000
                 energy =   -0.318226
                kinetic =    5.125348
    potential(screened) =   -5.443573
       potential(ionic) =  -11.380999

POLgen: Perturbative polarization orbital with L=  2

POLgen: Polarization orbital for state 2p

   izeta = 1
                     rc =    4.972977
                 energy =    1.607437
                kinetic =    3.268125
    potential(screened) =   -1.660688
       potential(ionic) =   -5.973652
atom: Total number of Sankey-type orbitals: 13

atm_pop: Valence configuration (for local Pseudopot. screening):
 2s( 2.00)                                                            
 2p( 3.00)                                                            
Vna: chval, zval:    5.00000   5.00000

Vna:  Cut-off radius for the neutral-atom potential:   4.972977
comcore: Pseudo-core radius Rcore=  1.554824

atom: _________________________________________________________________________

prinput: Basis input ----------------------------------------------------------

PAO.BasisType split     

%block ChemicalSpeciesLabel
    1    6 C                       # Species index, atomic number, species label
    2    7 N                       # Species index, atomic number, species label
%endblock ChemicalSpeciesLabel

%block PAO.Basis                 # Define Basis set
C                     2                    # Species label, number of l-shells
 n=2   0   2                         # n, l, Nzeta 
   4.633      3.432   
   1.000      1.000   
 n=2   1   2 P   1                   # n, l, Nzeta, Polarization, NzetaPol
   5.659      3.653   
   1.000      1.000   
N                     2                    # Species label, number of l-shells
 n=2   0   2                         # n, l, Nzeta 
   4.071      2.905   
   1.000      1.000   
 n=2   1   2 P   1                   # n, l, Nzeta, Polarization, NzetaPol
   4.973      3.054   
   1.000      1.000   
%endblock PAO.Basis

prinput: ----------------------------------------------------------------------

coor:   Atomic-coordinates input format  =     Cartesian coordinates
coor:                                          (in Angstroms)

siesta: Atomic coordinates (Bohr) and species
siesta:      2.23554   1.32097   0.00000  1        1
siesta:      4.56367   2.66461   0.00000  1        2
siesta:     32.50328  21.48508   0.00000  1        3
siesta:     34.83141  22.82873   0.00000  1        4
siesta:     34.83116  17.45226   0.00000  1        5
siesta:     37.15930  18.79590   0.00000  1        6
siesta:     32.50291  13.41944   0.00000  1        7
siesta:     34.83104  14.76308   0.00000  1        8
siesta:     30.17465   9.38661   0.00000  1        9
siesta:     32.50278  10.73026   0.00000  1       10
siesta:     27.84639   5.35379   0.00000  1       11
siesta:     30.17453   6.69743   0.00000  1       12
siesta:     27.84714  21.48508   0.00000  1       13
siesta:     30.17527  22.82873   0.00000  1       14
siesta:      6.89168   1.32097   0.00000  1       15
siesta:      9.21981   2.66461   0.00000  1       16
siesta:     11.54782   1.32097   0.00000  1       17
siesta:     13.87595   2.66461   0.00000  1       18
siesta:     16.20396   1.32097   0.00000  1       19
siesta:     18.53210   2.66461   0.00000  1       20
siesta:     20.86199   1.32097   0.00000  1       21
siesta:     23.19013   2.66461   0.00000  1       22
siesta:     25.51813   1.32097   0.00000  1       23
siesta:     27.84627   2.66461   0.00000  1       24
siesta:      4.56380   5.35379   0.00000  1       25
siesta:      6.89193   6.69743   0.00000  1       26
siesta:      9.21994   5.35379   0.00000  1       27
siesta:     11.54807   6.69743   0.00000  1       28
siesta:     13.87608   5.35379   0.00000  1       29
siesta:     16.20421   6.69743   0.00000  1       30
siesta:     18.53411   5.35379   0.00000  1       31
siesta:     20.86224   6.69743   0.00000  1       32
siesta:     23.19025   5.35379   0.00000  1       33
siesta:     25.51838   6.69743   0.00000  1       34
siesta:      6.89205   9.38661   0.00000  1       35
siesta:      9.22019  10.73026   0.00000  1       36
siesta:     11.54820   9.38661   0.00000  1       37
siesta:     13.87633  10.73026   0.00000  1       38
siesta:     16.20434   9.38661   0.00000  1       39
siesta:     18.53247  10.73026   0.00000  1       40
siesta:      9.22031  13.41944   0.00000  1       41
siesta:     11.54845  14.76308   0.00000  1       42
siesta:     13.87645  13.41944   0.00000  1       43
siesta:     16.20459  14.76308   0.00000  1       44
siesta:     18.53448  13.41944   0.00000  1       45
siesta:     20.86262  14.76308   0.00000  1       46
siesta:     11.54857  17.45226   0.00000  1       47
siesta:     13.87670  18.79590   0.00000  1       48
siesta:     16.20471  17.45226   0.00000  1       49
siesta:     18.53284  18.79590   0.00000  1       50
siesta:     13.87683  21.48508   0.00000  1       51
siesta:     16.20496  22.82873   0.00000  1       52
siesta:     18.53486  21.48508   0.00000  1       53
siesta:     20.86299  22.82873   0.00000  1       54
siesta:     25.51851   9.38661   0.00000  1       55
siesta:     27.84664  10.73026   0.00000  1       56
siesta:     23.19063  13.41944   0.00000  1       57
siesta:     25.51876  14.76308   0.00000  1       58
siesta:     20.86274  17.45226   0.00000  1       59
siesta:     23.19088  18.79590   0.00000  1       60
siesta:     27.84677  13.41944   0.00000  1       61
siesta:     30.17490  14.76308   0.00000  1       62
siesta:     25.51888  17.45226   0.00000  1       63
siesta:     27.84702  18.79590   0.00000  1       64
siesta:     23.19100  21.48508   0.00000  1       65
siesta:     25.51913  22.82873   0.00000  1       66
siesta:     30.17503  17.45226   0.00000  1       67
siesta:     32.50316  18.79590   0.00000  1       68
siesta:     37.16131  21.48508   0.00000  1       69
siesta:     39.48945  22.82873   0.00000  1       70
siesta:     20.86237   9.38661   0.00000  2       71
siesta:     23.19050  10.73026   0.00000  2       72

siesta: System type = slab      

initatomlists: Number of atoms, orbitals, and projectors:     72   936  1152

siesta: ******************** Simulation parameters ****************************
siesta:
siesta: The following are some of the parameters of the simulation.
siesta: A complete list of the parameters used, including default values,
siesta: can be found in file out.fdf
siesta:
redata: Non-Collinear-spin run           =     F
redata: SpinPolarized (Up/Down) run      =     F
redata: Number of spin components        =     1
redata: Long output                      =     F
redata: Number of Atomic Species         =        2
redata: Charge density info will appear in .RHO file
redata: Write Mulliken Pop.              =     NO
redata: Mesh Cutoff                      =   200.0000  Ry
redata: Net charge of the system         =     0.0000 |e|
redata: Max. number of SCF Iter          =      500
redata: SCF convergence failure will abort job
redata: Performing Pulay mixing using    =    10 iterations
redata: Mix DM in first SCF step ?       =     F
redata: Write Pulay info on disk?        =     F
redata: Discard 1st Pulay DM after  kick =     F
redata: New DM Mixing Weight             =     0.0500
redata: New DM Occupancy tolerance       = 0.000000000001
redata: No kicks to SCF
redata: DM Mixing Weight for Kicks       =     0.5000
redata: DM Tolerance for SCF             =     0.000100
redata: Require Energy convergence for SCF =     F
redata: DM Energy tolerance for SCF      =     0.000100 eV
redata: Require Harris convergence for SCF =     F
redata: DM Harris energy tolerance for SCF =     0.000100 eV
redata: Using Saved Data (generic)   =     F
redata: Use continuation files for DM    =     T
redata: Neglect nonoverlap interactions  =     F
redata: Method of Calculation            =     Diagonalization
redata: Divide and Conquer               =     T
redata: Electronic Temperature           =     0.0019  Ry
redata: Fix the spin of the system       =     F
redata: Dynamics option                  =     Verlet MD run
redata: Initial MD time step             =        1
redata:   Final MD time step             =        1
redata: Length of MD time step           =     1.0000  fs
redata: Initial Temperature of MD run    =     0.0000  K
redata: Perform a MD quench              =     F
redata: ***********************************************************************
Total number of electrons:   290.000000
Total ionic charge:   290.000000

* ProcessorY, Blocksize:    3  24

k-point displ. along   1 input, could be:     0.50    0.00
k-point displ. along   2 input, could be:     0.50    0.00
 Kpoints in:          231 . Kpoints trimmed:          231

siesta: k-grid: Number of k-points =   231
siesta: k-grid: Cutoff (effective) =     5.000 Ang
siesta: k-grid: Supercell and displacements
siesta: k-grid:   21   0   0      0.500
siesta: k-grid:    0  21   0      0.500
siesta: k-grid:    0   0   1      0.000
Naive supercell factors:     2    2    2

superc: Internal auxiliary supercell:     2 x     2 x     2  =       8
superc: Number of atoms, orbitals, and projectors:    576   7488   9216

* Maximum dynamic memory allocated =     4 MB

siesta:                 ==============================
                            Begin MD step =      1
                        ==============================

superc: Internal auxiliary supercell:     2 x     2 x     2  =       8
superc: Number of atoms, orbitals, and projectors:    576   7488   9216

outcell: Unit cell vectors (Ang):
       14.785000    0.000000    0.000000
        7.393000   12.805052    0.000000
        0.000000    0.000000   10.000000

outcell: Cell vector modules (Ang)   :   14.785000   14.786000   10.000000
outcell: Cell angles (23,13,12) (deg):     90.0000     90.0000     60.0000
outcell: Cell volume (Ang**3)        :   1893.2269
New_DM. Step:     1
Initializing Density Matrix...

iodm: Reading Density Matrix from files

InitMesh: MESH =   120 x   120 x    90 =     1296000
InitMesh: Mesh cutoff (required, used) =   200.000   223.865 Ry

* Maximum dynamic memory allocated =   138 MB

stepf: Fermi-Dirac step function

siesta: Program's energy decomposition (eV):
siesta: Ebs     =     -3990.056692
siesta: Eions   =     18724.504759
siesta: Ena     =      3995.724568
siesta: Ekin    =      7999.101592
siesta: Enl     =      -851.676504
siesta: DEna    =      -277.953778
siesta: DUscf   =        24.733905
siesta: DUext   =         0.000000
siesta: Exc     =     -4086.056014
siesta: eta*DQ  =         0.000000
siesta: Emadel  =         0.000000
siesta: Emeta   =         0.000000
siesta: Emolmec =         0.000000
siesta: Ekinion =         0.000000
siesta: Eharris =    -11920.630996
siesta: Etot    =    -11920.630990
siesta: FreeEng =    -11920.630990

siesta: iscf   Eharris(eV)      E_KS(eV)   FreeEng(eV)   dDmax  Ef(eV)
siesta:    1   -11920.6310   -11920.6310   -11920.6310  0.0004 -4.0526
timer: Routine,Calls,Time,% = IterSCF        1    1170.407  99.01
elaps: Routine,Calls,Wall,% = IterSCF        1      97.773  99.01
siesta:    2   -11920.6309   -11920.6310   -11920.6479  0.0017 -4.0489
siesta:    3   -11920.6310   -11920.6310   -11920.6480  0.0000 -4.0520

siesta: E_KS(eV) =           -11920.6310

siesta: E_KS - E_eggbox =    -11920.6310

siesta: Atomic forces (eV/Ang):
----------------------------------------
   Tot    0.208508   -0.285349    0.000000
----------------------------------------
   Max    1.054103
   Res    0.241114    sqrt( Sum f_i^2 / 3N )
----------------------------------------
   Max    1.054103    constrained

Stress-tensor-Voigt (kbar):      -29.83      -28.37        0.04       -0.92        0.00        0.00
(Free)E + p*V (eV/cell)   -11897.7378
Target enthalpy (eV/cell)   -11920.6479

siesta: Stress tensor (static) (eV/Ang**3):
        -0.018619   -0.000573    0.000000
        -0.000573   -0.017709    0.000000
         0.000000    0.000000    0.000024

siesta: Pressure (static):         19.38827885  kBar

siesta: Stress tensor (total) (eV/Ang**3):
        -0.018619   -0.000573    0.000000
        -0.000573   -0.017709    0.000000
         0.000000    0.000000    0.000024

siesta: Pressure (total):         19.38827885  kBar

siesta: Temp_ion =       0.000 K

* Maximum dynamic memory allocated =   233 MB

siesta: Program's energy decomposition (eV):
siesta: Ebs     =     -3990.048183
siesta: Eions   =     18724.504759
siesta: Ena     =      3995.724568
siesta: Ekin    =      7999.109056
siesta: Enl     =      -851.679231
siesta: DEna    =      -277.956901
siesta: DUscf   =        24.733640
siesta: DUext   =         0.000000
siesta: Exc     =     -4086.057357
siesta: eta*DQ  =         0.000000
siesta: Emadel  =         0.000000
siesta: Emeta   =         0.000000
siesta: Emolmec =         0.000000
siesta: Ekinion =         0.000000
siesta: Eharris =    -11920.630971
siesta: Etot    =    -11920.630984
siesta: FreeEng =    -11920.647922

siesta: Final energy (eV):
siesta:  Band Struct. =   -3990.048183
siesta:       Kinetic =    7999.109056
siesta:       Hartree =   23490.905696
siesta:    Ext. field =       0.000000
siesta:   Exch.-corr. =   -4086.057357
siesta:  Ion-electron =  -54373.048890
siesta:       Ion-ion =   15048.460511
siesta:       Ekinion =       0.000000
siesta:         Total =  -11920.630984

siesta: Atomic forces (eV/Ang):
siesta:      1   -0.157487    0.068774    0.000000
siesta:      2    0.070142    0.135255    0.000000
siesta:      3   -0.019874    0.001316    0.000000
siesta:      4    0.135720   -0.086999    0.000000
siesta:      5    0.079200    0.032402    0.000000
siesta:      6   -0.042834   -0.037872    0.000000
siesta:      7    0.158855   -0.157623    0.000000
siesta:      8   -0.026841   -0.049098    0.000000
siesta:      9   -0.050881   -0.373479    0.000000
siesta:     10   -0.027939    0.184852    0.000000
siesta:     11   -0.022096    0.316399    0.000000
siesta:     12    0.025362    0.078863    0.000000
siesta:     13   -0.021221    0.067615    0.000000
siesta:     14    0.023716   -0.049606    0.000000
siesta:     15    0.075678    0.005588    0.000000
siesta:     16   -0.074315   -0.042868    0.000000
siesta:     17    0.070826   -0.021939    0.000000
siesta:     18    0.048660   -0.204238    0.000000
siesta:     19   -0.129401    0.097586    0.000000
siesta:     20    0.379688   -0.134598    0.000000
siesta:     21   -0.106292    0.006395    0.000000
siesta:     22   -0.274216    0.186670    0.000000
siesta:     23    0.054465   -0.175499    0.000000
siesta:     24    0.114380   -0.112121    0.000000
siesta:     25    0.034723   -0.145639    0.000000
siesta:     26    0.005154    0.033066    0.000000
siesta:     27    0.047624    0.035175    0.000000
siesta:     28   -0.152305    0.147746    0.000000
siesta:     29    0.363218    0.191381    0.000000
siesta:     30   -0.372244   -0.237613    0.000000
siesta:     31    0.132522    0.577482    0.000000
siesta:     32    0.682366    0.491354    0.000000
siesta:     33   -0.791389    0.115317    0.000000
siesta:     34    0.285780    0.753883    0.000000
siesta:     35    0.043687   -0.068327    0.000000
siesta:     36   -0.054782    0.066347    0.000000
siesta:     37    0.048735   -0.199792    0.000000
siesta:     38    0.057037    0.363357    0.000000
siesta:     39    0.591783   -0.159339    0.000000
siesta:     40    0.800739    0.352549    0.000000
siesta:     41   -0.015390   -0.035689    0.000000
siesta:     42   -0.045458    0.144073    0.000000
siesta:     43    0.005075   -0.098041    0.000000
siesta:     44    0.057832   -0.332270    0.000000
siesta:     45   -0.323392   -0.755834    0.000000
siesta:     46    0.793213   -0.122320    0.000000
siesta:     47   -0.077899   -0.145971    0.000000
siesta:     48    0.139248   -0.098702    0.000000
siesta:     49   -0.094214    0.096033    0.000000
siesta:     50   -0.002276    0.138026    0.000000
siesta:     51    0.138931    0.053171    0.000000
siesta:     52   -0.076349   -0.045787    0.000000
siesta:     53   -0.016859   -0.176693    0.000000
siesta:     54    0.147246    0.016075    0.000000
siesta:     55   -0.765818   -0.357309    0.000000
siesta:     56   -0.587109    0.149839    0.000000
siesta:     57   -0.677181   -0.502302    0.000000
siesta:     58   -0.164494   -0.577619    0.000000
siesta:     59    0.245798   -0.192232    0.000000
siesta:     60    0.070313   -0.028337    0.000000
siesta:     61    0.407371    0.220298    0.000000
siesta:     62   -0.353404   -0.199608    0.000000
siesta:     63   -0.334203    0.116456    0.000000
siesta:     64    0.140911   -0.127454    0.000000
siesta:     65   -0.093560    0.098811    0.000000
siesta:     66    0.024716    0.017727    0.000000
siesta:     67   -0.044189    0.191248    0.000000
siesta:     68   -0.060754   -0.009056    0.000000
siesta:     69   -0.189852    0.005183    0.000000
siesta:     70   -0.040281    0.202766    0.000000
siesta:     71   -1.054103   -0.616082    0.000000
siesta:     72    1.048697    0.633530    0.000000
siesta: ----------------------------------------
siesta:    Tot    0.208508   -0.285349    0.000000

siesta: Stress tensor (static) (eV/Ang**3):
siesta:    -0.018619   -0.000573    0.000000
siesta:    -0.000573   -0.017709    0.000000
siesta:     0.000000    0.000000    0.000024

siesta: Cell volume =       1893.226895 Ang**3

siesta: Pressure (static):
siesta:                Solid            Molecule  Units
siesta:           0.00013180          0.00016254  Ry/Bohr**3
siesta:           0.01210108          0.01492384  eV/Ang**3
siesta:          19.38827885         23.91089314  kBar
(Free)E+ p_basis*V_orbitals  =      -11890.196230
(Free)Eharris+ p_basis*V_orbitals  =      -11890.196212

siesta: Electric dipole (a.u.)  =    0.000000    0.000000    0.000000
siesta: Electric dipole (Debye) =    0.000000    0.000000    0.000000

* Maximum dynamic memory allocated : Node    0 =   233 MB
* Maximum dynamic memory allocated : Node    1 =   146 MB
* Maximum dynamic memory allocated : Node    2 =   147 MB
* Maximum dynamic memory allocated : Node    3 =   222 MB
* Maximum dynamic memory allocated : Node    4 =   228 MB
* Maximum dynamic memory allocated : Node    5 =   141 MB
* Maximum dynamic memory allocated : Node    6 =   143 MB
* Maximum dynamic memory allocated : Node    7 =   221 MB
* Maximum dynamic memory allocated : Node    8 =   229 MB
* Maximum dynamic memory allocated : Node    9 =   141 MB
* Maximum dynamic memory allocated : Node   10 =   143 MB
* Maximum dynamic memory allocated : Node   11 =   223 MB

* Maximum memory occured during cdiag                         

timer: CPU execution times:
timer:  Routine       Calls   Time/call    Tot.time        %
timer:  siesta            1    3528.427    3528.427   100.00
timer:  Setup             1       3.420       3.420     0.10
timer:  bands             1       0.009       0.009     0.00
timer:  writewave         1       0.023       0.023     0.00
timer:  KSV_init          1       0.004       0.004     0.00
timer:  IterMD            1    3518.586    3518.586    99.72
timer:  hsparse           1       0.181       0.181     0.01
timer:  overlap           1       4.497       4.497     0.13
timer:  IterSCF           3    1132.453    3397.359    96.29
timer:  kinefsm           2       2.286       4.571     0.13
timer:  nlefsm            2      19.014      38.027     1.08
timer:  DHSCF             4      71.028     284.112     8.05
timer:  DHSCF1            1       0.896       0.896     0.03
timer:  DHSCF2            1      24.241      24.241     0.69
timer:  REORD            34       0.002       0.070     0.00
timer:  POISON            5       0.470       2.351     0.07
timer:  DHSCF3            4      59.224     236.896     6.71
timer:  rhoofd            4      12.063      48.253     1.37
timer:  cellXC            4       2.541      10.162     0.29
timer:  vmat              4      29.572     118.288     3.35
timer:  MolMec            2       0.000       0.001     0.00
timer:  diagon            3    1051.310    3153.931    89.39
timer:  cdiag           120      17.876    2064.199    58.50
timer:  cdiag1          120       0.875     100.989     2.86
timer:  cdiag2          120       3.038     350.662     9.94
timer:  cdiag3          120      13.762    1589.235    45.04
timer:  cdiag4          120       0.199      22.964     0.65
timer:  DHSCF4            1      22.011      22.011     0.62
timer:  dfscf             1      20.559      20.559     0.58
timer:  overfsm           1       0.267       0.267     0.01
timer:  optical           1       5.878       5.878     0.17
  

elaps: ELAPSED times:
elaps:  Routine       Calls   Time/call    Tot.time        %
elaps:  siesta            1     294.756     294.756   100.00
elaps:  Setup             1       0.286       0.286     0.10
elaps:  bands             1       0.001       0.001     0.00
elaps:  writewave         1       0.002       0.002     0.00
elaps:  KSV_init          1       0.000       0.000     0.00
elaps:  IterMD            1     293.934     293.934    99.72
elaps:  hsparse           1       0.018       0.018     0.01
elaps:  overlap           1       0.374       0.374     0.13
elaps:  IterSCF           3      94.603     283.808    96.29
elaps:  kinefsm           2       0.193       0.385     0.13
elaps:  nlefsm            2       1.796       3.591     1.22
elaps:  DHSCF             4       6.312      25.249     8.57
elaps:  DHSCF1            1       0.077       0.077     0.03
elaps:  DHSCF2            1       2.024       2.024     0.69
elaps:  REORD            34       0.000       0.010     0.00
elaps:  POISON            5       0.040       0.198     0.07
elaps:  DHSCF3            4       4.947      19.787     6.71
elaps:  rhoofd            4       1.783       7.132     2.42
elaps:  cellXC            4       0.212       0.848     0.29
elaps:  vmat              4       2.470       9.879     3.35
elaps:  MolMec            2       0.000       0.000     0.00
elaps:  diagon            3      87.824     263.473    89.39
elaps:  cdiag           120       1.465     175.762    59.63
elaps:  cdiag1          120       0.070       8.426     2.86
elaps:  cdiag2          120       0.242      29.022     9.85
elaps:  cdiag3          120       1.135     136.222    46.22
elaps:  cdiag4          120       0.017       2.065     0.70
elaps:  DHSCF4            1       3.355       3.355     1.14
elaps:  dfscf             1       3.165       3.165     1.07
elaps:  overfsm           1       0.027       0.027     0.01
elaps:  optical           1       0.000       0.000     0.00
  
>> End of run:   6-APR-2016  14:38:47
