Siesta Version:                                        siesta-3.2-pl-3
Architecture  : x86_64-unknown-linux-gnu--unknown
Compiler flags: mpiifort -g -O2 -fPIC -xSSE4.1 -fp-model source -shared-intel 
PARALLEL version

* Running on   12 nodes in parallel
>> Start of run:   6-MAY-2016  12:16:07

                           ***********************       
                           *  WELCOME TO SIESTA  *       
                           ***********************       

reinit: Reading from standard input
************************** Dump of input data file ****************************
#(1) General system descriptors
SystemName            GRP_doping    # Descriptive name of the system
SystemLabel           GRP_doping    # Short name for naming files
%include STRUCT.fdf
%include KPT.fdf
%include BASIS.fdf
#%include TS.fdf # for transiesta calculation
#(4) DFT, Grid, SCF
XC.functional         GGA           # LDA or GGA (default = LDA)
XC.authors            PBE           # CA (Ceperley-Aldr) = PZ
                                    #    (Perdew-Zunger) - LDA - Default
                                    # PW92 (Perdew-Wang-92) - LDA
                                    # PBE (Perdew-Burke-Ernzerhof) - GGA
MeshCutoff            200.000000    Ry      # Default: 50.0 Ry ~ 0.444 Bohr
                                    #         100.0 Ry ~ 0.314 Bohr
MaxSCFIterations      500           # Default: 50
DM.MixingWeight       0.05          # Default: 0.25
DM.NumberPulay        10            # Default: 0
DM.PulayOnFile        F             # SystemLabel.P1, SystemLabel.P2
DM.Tolerance          1.d-4         # Default: 1.d-4
DM.UseSaveDM          .true.        # because of the bug
SCFMustConverge       .true.
NeglNonOverlapInt     F             # Default: F
#(5) Eigenvalue problem: order-N or diagonalization
SolutionMethod        Diagon        # or Transiesta
ElectronicTemperature 300.0 K       # Default: 300.0 K
#(6) Molecular dynamics and relaxations
#MD.TypeOfRun          CG            # Type of dynamics:
#MD.VariableCell       F
#MD.NumCGsteps         0           # 0 for single-point / 100 for gopt
#MD.MaxCGDispl         0.2 Bohr      # Default: 0.2 Bohr
#MD.MaxForceTol        0.02 eV/Ang   # Default: 0.04 eV/Ang
#MD.MaxStressTol       1.0 GPa       # Default: 1.0 GPa
# Geometry Constraints
#%block GeometryConstraints
#	position from 1 to 44
#%endblock GeometryConstraints
BandLinesScale   pi/a
%block BandLines
 1   0.00000000  0.00000000  0.00000000
50   0.00000000  0.07809418  0.00000000
50   0.04509075  0.07809242  0.00000000
20   0.00000000  0.00000000  0.00000000
%endblock BandLines
************************** End of input data file *****************************

reinit: -----------------------------------------------------------------------
reinit: System Name: GRP_doping
reinit: -----------------------------------------------------------------------
reinit: System Label: GRP_doping                                                  
reinit: -----------------------------------------------------------------------

initatom: Reading input for the pseudopotentials and atomic orbitals ----------
 Species number:            1  Label: N Atomic number:           7
 Species number:            2  Label: C Atomic number:           6
Ground state valence configuration:   2s02  2p03
Reading pseudopotential information in formatted form from N.psf

Valence configuration for pseudopotential generation:
2s( 2.00) rc: 1.48
2p( 3.00) rc: 1.48
3d( 0.00) rc: 1.48
4f( 0.00) rc: 1.48
Ground state valence configuration:   2s02  2p02
Reading pseudopotential information in formatted form from C.psf

Valence configuration for pseudopotential generation:
2s( 2.00) rc: 1.54
2p( 2.00) rc: 1.54
3d( 0.00) rc: 1.54
4f( 0.00) rc: 1.54
For N, standard SIESTA heuristics set lmxkb to 3
 (one more than the basis l, including polarization orbitals).
Use PS.lmax or PS.KBprojectors blocks to override.
For C, standard SIESTA heuristics set lmxkb to 3
 (one more than the basis l, including polarization orbitals).
Use PS.lmax or PS.KBprojectors blocks to override.

<basis_specs>
===============================================================================
N                    Z=   7    Mass=  14.010        Charge= 0.17977+309
Lmxo=1 Lmxkb= 3    BasisType=split      Semic=F
L=0  Nsemic=0  Cnfigmx=2
          n=1  nzeta=2  polorb=0
            splnorm:   0.15000    
               vcte:    0.0000    
               rinn:    0.0000    
                rcs:    0.0000      0.0000    
            lambdas:    1.0000      1.0000    
L=1  Nsemic=0  Cnfigmx=2
          n=1  nzeta=2  polorb=1
            splnorm:   0.15000    
               vcte:    0.0000    
               rinn:    0.0000    
                rcs:    0.0000      0.0000    
            lambdas:    1.0000      1.0000    
-------------------------------------------------------------------------------
L=0  Nkbl=1  erefs: 0.17977+309
L=1  Nkbl=1  erefs: 0.17977+309
L=2  Nkbl=1  erefs: 0.17977+309
L=3  Nkbl=1  erefs: 0.17977+309
===============================================================================
</basis_specs>

atom: Called for N                     (Z =   7)

read_vps: Pseudopotential generation method:
read_vps: ATM3      Troullier-Martins                       
Total valence charge:    5.00000

read_vps: Pseudopotential includes a core correction:
read_vps: Pseudo-core for xc-correction

xc_check: Exchange-correlation functional:
xc_check: GGA Perdew, Burke & Ernzerhof 1996
V l=0 = -2*Zval/r beyond r=  1.4606
V l=1 = -2*Zval/r beyond r=  1.4606
V l=2 = -2*Zval/r beyond r=  1.4606
V l=3 = -2*Zval/r beyond r=  1.4606
All V_l potentials equal beyond r=  1.4606
This should be close to max(r_c) in ps generation
All pots = -2*Zval/r beyond r=  1.4606

VLOCAL1: 99.0% of the norm of Vloc inside     20.347 Ry
VLOCAL1: 99.9% of the norm of Vloc inside     46.372 Ry
atom: Maximum radius for 4*pi*r*r*local-pseudopot. charge    1.76189
atom: Maximum radius for r*vlocal+2*Zval:    1.53550
GHOST: No ghost state for L =  0
GHOST: No ghost state for L =  1
GHOST: No ghost state for L =  2
GHOST: No ghost state for L =  3

KBgen: Kleinman-Bylander projectors: 
   l= 0   rc=  1.634559   el= -1.363963   Ekb=  5.296955   kbcos=  0.335621
   l= 1   rc=  1.614250   el= -0.521451   Ekb= -5.259161   kbcos= -0.433408
   l= 2   rc=  1.718383   el=  0.001991   Ekb= -1.271464   kbcos= -0.007566
   l= 3   rc=  1.761893   el=  0.003093   Ekb= -0.494769   kbcos= -0.001015

KBgen: Total number of  Kleinman-Bylander projectors:   16
atom: -------------------------------------------------------------------------

atom: SANKEY-TYPE ORBITALS:
atom: Selected multiple-zeta basis: split     

SPLIT: Orbitals with angular momentum L= 0

SPLIT: Basis orbitals for state 2s

SPLIT: PAO cut-off radius determined from an
SPLIT: energy shift=  0.007350 Ry

   izeta = 1
                 lambda =    1.000000
                     rc =    4.071465
                 energy =   -1.356470
                kinetic =    1.176977
    potential(screened) =   -2.533447
       potential(ionic) =   -8.057990

   izeta = 2
                 rmatch =    2.905100
              splitnorm =    0.150000
                 energy =   -1.158343
                kinetic =    1.813009
    potential(screened) =   -2.971352
       potential(ionic) =   -8.901931

SPLIT: Orbitals with angular momentum L= 1

SPLIT: Basis orbitals for state 2p

SPLIT: PAO cut-off radius determined from an
SPLIT: energy shift=  0.007350 Ry

   izeta = 1
                 lambda =    1.000000
                     rc =    4.972977
                 energy =   -0.513884
                kinetic =    3.441732
    potential(screened) =   -3.955616
       potential(ionic) =   -9.287901

   izeta = 2
                 rmatch =    3.054066
              splitnorm =    0.150000
                 energy =   -0.318226
                kinetic =    5.125348
    potential(screened) =   -5.443573
       potential(ionic) =  -11.380999

POLgen: Perturbative polarization orbital with L=  2

POLgen: Polarization orbital for state 2p

   izeta = 1
                     rc =    4.972977
                 energy =    1.607437
                kinetic =    3.268125
    potential(screened) =   -1.660688
       potential(ionic) =   -5.973652
atom: Total number of Sankey-type orbitals: 13

atm_pop: Valence configuration (for local Pseudopot. screening):
 2s( 2.00)                                                            
 2p( 3.00)                                                            
Vna: chval, zval:    5.00000   5.00000

Vna:  Cut-off radius for the neutral-atom potential:   4.972977
comcore: Pseudo-core radius Rcore=  1.554824

atom: _________________________________________________________________________

<basis_specs>
===============================================================================
C                    Z=   6    Mass=  12.010        Charge= 0.17977+309
Lmxo=1 Lmxkb= 3    BasisType=split      Semic=F
L=0  Nsemic=0  Cnfigmx=2
          n=1  nzeta=2  polorb=0
            splnorm:   0.15000    
               vcte:    0.0000    
               rinn:    0.0000    
                rcs:    0.0000      0.0000    
            lambdas:    1.0000      1.0000    
L=1  Nsemic=0  Cnfigmx=2
          n=1  nzeta=2  polorb=1
            splnorm:   0.15000    
               vcte:    0.0000    
               rinn:    0.0000    
                rcs:    0.0000      0.0000    
            lambdas:    1.0000      1.0000    
-------------------------------------------------------------------------------
L=0  Nkbl=1  erefs: 0.17977+309
L=1  Nkbl=1  erefs: 0.17977+309
L=2  Nkbl=1  erefs: 0.17977+309
L=3  Nkbl=1  erefs: 0.17977+309
===============================================================================
</basis_specs>

atom: Called for C                     (Z =   6)

read_vps: Pseudopotential generation method:
read_vps: ATM3      Troullier-Martins                       
Total valence charge:    4.00000

read_vps: Pseudopotential includes a core correction:
read_vps: Pseudo-core for xc-correction

xc_check: Exchange-correlation functional:
xc_check: GGA Perdew, Burke & Ernzerhof 1996
V l=0 = -2*Zval/r beyond r=  1.5227
V l=1 = -2*Zval/r beyond r=  1.5227
V l=2 = -2*Zval/r beyond r=  1.5227
V l=3 = -2*Zval/r beyond r=  1.5038
All V_l potentials equal beyond r=  1.5227
This should be close to max(r_c) in ps generation
All pots = -2*Zval/r beyond r=  1.5227

VLOCAL1: 99.0% of the norm of Vloc inside     18.722 Ry
VLOCAL1: 99.9% of the norm of Vloc inside     42.668 Ry
atom: Maximum radius for 4*pi*r*r*local-pseudopot. charge    1.83678
atom: Maximum radius for r*vlocal+2*Zval:    1.58088
GHOST: No ghost state for L =  0
GHOST: No ghost state for L =  1
GHOST: No ghost state for L =  2
GHOST: No ghost state for L =  3

KBgen: Kleinman-Bylander projectors: 
   l= 0   rc=  1.704034   el= -1.009801   Ekb=  5.335044   kbcos=  0.316824
   l= 1   rc=  1.704034   el= -0.388707   Ekb= -3.785862   kbcos= -0.366464
   l= 2   rc=  1.791422   el=  0.001971   Ekb= -0.970471   kbcos= -0.009212
   l= 3   rc=  1.859892   el=  0.003065   Ekb= -0.399525   kbcos= -0.001223

KBgen: Total number of  Kleinman-Bylander projectors:   16
atom: -------------------------------------------------------------------------

atom: SANKEY-TYPE ORBITALS:
atom: Selected multiple-zeta basis: split     

SPLIT: Orbitals with angular momentum L= 0

SPLIT: Basis orbitals for state 2s

SPLIT: PAO cut-off radius determined from an
SPLIT: energy shift=  0.007350 Ry

   izeta = 1
                 lambda =    1.000000
                     rc =    4.632753
                 energy =   -1.002270
                kinetic =    0.855760
    potential(screened) =   -1.858031
       potential(ionic) =   -5.417575

   izeta = 2
                 rmatch =    3.431921
              splitnorm =    0.150000
                 energy =   -0.867111
                kinetic =    1.300804
    potential(screened) =   -2.167915
       potential(ionic) =   -5.962684

SPLIT: Orbitals with angular momentum L= 1

SPLIT: Basis orbitals for state 2p

SPLIT: PAO cut-off radius determined from an
SPLIT: energy shift=  0.007350 Ry

   izeta = 1
                 lambda =    1.000000
                     rc =    5.658549
                 energy =   -0.381140
                kinetic =    2.399701
    potential(screened) =   -2.780841
       potential(ionic) =   -6.206085

   izeta = 2
                 rmatch =    3.653288
              splitnorm =    0.150000
                 energy =   -0.249149
                kinetic =    3.542762
    potential(screened) =   -3.791911
       potential(ionic) =   -7.581078

POLgen: Perturbative polarization orbital with L=  2

POLgen: Polarization orbital for state 2p

   izeta = 1
                     rc =    5.658549
                 energy =    1.109913
                kinetic =    2.304789
    potential(screened) =   -1.194876
       potential(ionic) =   -4.013592
atom: Total number of Sankey-type orbitals: 13

atm_pop: Valence configuration (for local Pseudopot. screening):
 2s( 2.00)                                                            
 2p( 2.00)                                                            
Vna: chval, zval:    4.00000   4.00000

Vna:  Cut-off radius for the neutral-atom potential:   5.658549
comcore: Pseudo-core radius Rcore=  1.791422

atom: _________________________________________________________________________

prinput: Basis input ----------------------------------------------------------

PAO.BasisType split     

%block ChemicalSpeciesLabel
    1    7 N                       # Species index, atomic number, species label
    2    6 C                       # Species index, atomic number, species label
%endblock ChemicalSpeciesLabel

%block PAO.Basis                 # Define Basis set
N                     2                    # Species label, number of l-shells
 n=2   0   2                         # n, l, Nzeta 
   4.071      2.905   
   1.000      1.000   
 n=2   1   2 P   1                   # n, l, Nzeta, Polarization, NzetaPol
   4.973      3.054   
   1.000      1.000   
C                     2                    # Species label, number of l-shells
 n=2   0   2                         # n, l, Nzeta 
   4.633      3.432   
   1.000      1.000   
 n=2   1   2 P   1                   # n, l, Nzeta, Polarization, NzetaPol
   5.659      3.653   
   1.000      1.000   
%endblock PAO.Basis

prinput: ----------------------------------------------------------------------

coor:   Atomic-coordinates input format  =     Fractional

siesta: Atomic coordinates (Bohr) and species
siesta:     -2.35420  38.89134   0.00000  1        1
siesta:     -2.35420  41.57980   0.00000  1        2
siesta:     -4.68258  34.85847   0.00000  1        3
siesta:     -4.68258  37.54693   0.00000  1        4
siesta:     -4.68258  21.41544   0.00000  1        5
siesta:     -2.35420  22.75985   0.00000  1        6
siesta:     -9.33934  21.41544   0.00000  1        7
siesta:     -7.01096  25.44831   0.00000  1        8
siesta:    -11.66772  22.75985   0.00000  1        9
siesta:     -0.02582  26.79272   0.00000  1       10
siesta:     -0.02582  29.48119   0.00000  1       11
siesta:     -4.68258  26.79272   0.00000  1       12
siesta:     -4.68258  29.48119   0.00000  1       13
siesta:      2.30256  33.51406   0.00000  1       14
siesta:     -0.02582  34.85847   0.00000  1       15
siesta:     -0.02582   2.59549   0.00000  2       16
siesta:     -0.02582   5.28395   0.00000  2       17
siesta:      2.30256  38.89134   0.00000  2       18
siesta:      2.30256  41.57980   0.00000  2       19
siesta:      4.63094  34.85847   0.00000  2       20
siesta:      4.63094  37.54693   0.00000  2       21
siesta:      6.95932  30.82560   0.00000  2       22
siesta:      6.95932  33.51406   0.00000  2       23
siesta:      9.28770  26.79272   0.00000  2       24
siesta:      9.28770  29.48119   0.00000  2       25
siesta:      2.30256   6.62836   0.00000  2       26
siesta:      2.30256   9.31683   0.00000  2       27
siesta:      4.63094  10.66124   0.00000  2       28
siesta:      4.63094  13.34970   0.00000  2       29
siesta:      6.95932  14.69411   0.00000  2       30
siesta:      6.95932  17.38257   0.00000  2       31
siesta:      9.28770  18.72698   0.00000  2       32
siesta:      9.28770  21.41544   0.00000  2       33
siesta:     11.61608  22.75985   0.00000  2       34
siesta:     11.61608  25.44831   0.00000  2       35
siesta:     -2.35420   6.62836   0.00000  2       36
siesta:     -2.35420   9.31683   0.00000  2       37
siesta:     -0.02582  10.66124   0.00000  2       38
siesta:     -0.02582  13.34970   0.00000  2       39
siesta:      2.30256  14.69411   0.00000  2       40
siesta:      2.30256  17.38257   0.00000  2       41
siesta:      4.63094  18.72698   0.00000  2       42
siesta:      4.63094  21.41544   0.00000  2       43
siesta:      6.95932  22.75985   0.00000  2       44
siesta:      6.95932  25.44831   0.00000  2       45
siesta:     -4.68258  10.66124   0.00000  2       46
siesta:     -4.68258  13.34970   0.00000  2       47
siesta:     -2.35420  14.69411   0.00000  2       48
siesta:     -2.35420  17.38257   0.00000  2       49
siesta:     -0.02582  18.72698   0.00000  2       50
siesta:     -0.02582  21.41544   0.00000  2       51
siesta:      2.30256  22.75985   0.00000  2       52
siesta:      2.30256  25.44831   0.00000  2       53
siesta:     -7.01096  14.69411   0.00000  2       54
siesta:     -7.01096  17.38257   0.00000  2       55
siesta:     -4.68258  18.72698   0.00000  2       56
siesta:     -2.35420  25.44831   0.00000  2       57
siesta:     -9.33934  18.72698   0.00000  2       58
siesta:     -7.01096  22.75985   0.00000  2       59
siesta:    -11.66772  25.44831   0.00000  2       60
siesta:     -9.33934  26.79272   0.00000  2       61
siesta:     -9.33934  29.48119   0.00000  2       62
siesta:      4.63094  26.79272   0.00000  2       63
siesta:      4.63094  29.48119   0.00000  2       64
siesta:      2.30256  30.82560   0.00000  2       65
siesta:     -2.35420  30.82560   0.00000  2       66
siesta:     -2.35420  33.51406   0.00000  2       67
siesta:     -7.01096  30.82560   0.00000  2       68
siesta:     -7.01096  33.51406   0.00000  2       69
siesta:     -0.02582  37.54693   0.00000  2       70
siesta:     -0.02582  42.92421   0.00000  2       71
siesta:     -0.02582  45.61267   0.00000  2       72

siesta: System type = slab      

initatomlists: Number of atoms, orbitals, and projectors:     72   936  1152

siesta: ******************** Simulation parameters ****************************
siesta:
siesta: The following are some of the parameters of the simulation.
siesta: A complete list of the parameters used, including default values,
siesta: can be found in file out.fdf
siesta:
redata: Non-Collinear-spin run           =     F
redata: SpinPolarized (Up/Down) run      =     F
redata: Number of spin components        =     1
redata: Long output                      =     F
redata: Number of Atomic Species         =        2
redata: Charge density info will appear in .RHO file
redata: Write Mulliken Pop.              =     NO
redata: Mesh Cutoff                      =   200.0000  Ry
redata: Net charge of the system         =     0.0000 |e|
redata: Max. number of SCF Iter          =      500
redata: SCF convergence failure will abort job
redata: Performing Pulay mixing using    =    10 iterations
redata: Mix DM in first SCF step ?       =     F
redata: Write Pulay info on disk?        =     F
redata: Discard 1st Pulay DM after  kick =     F
redata: New DM Mixing Weight             =     0.0500
redata: New DM Occupancy tolerance       = 0.000000000001
redata: No kicks to SCF
redata: DM Mixing Weight for Kicks       =     0.5000
redata: DM Tolerance for SCF             =     0.000100
redata: Require Energy convergence for SCF =     F
redata: DM Energy tolerance for SCF      =     0.000100 eV
redata: Require Harris convergence for SCF =     F
redata: DM Harris energy tolerance for SCF =     0.000100 eV
redata: Using Saved Data (generic)   =     F
redata: Use continuation files for DM    =     T
redata: Neglect nonoverlap interactions  =     F
redata: Method of Calculation            =     Diagonalization
redata: Divide and Conquer               =     T
redata: Electronic Temperature           =     0.0019  Ry
redata: Fix the spin of the system       =     F
redata: Dynamics option                  =     Verlet MD run
redata: Initial MD time step             =        1
redata:   Final MD time step             =        1
redata: Length of MD time step           =     1.0000  fs
redata: Initial Temperature of MD run    =     0.0000  K
redata: Perform a MD quench              =     F
redata: ***********************************************************************
Total number of electrons:   303.000000
Total ionic charge:   303.000000

* ProcessorY, Blocksize:    3  24

k-point displ. along   1 input, could be:     0.50    0.00
k-point displ. along   2 input, could be:     0.50    0.00
 Kpoints in:          231 . Kpoints trimmed:          231

siesta: k-grid: Number of k-points =   231
siesta: k-grid: Cutoff (effective) =     5.000 Ang
siesta: k-grid: Supercell and displacements
siesta: k-grid:   21   0   0      0.500
siesta: k-grid:    0  21   0      0.500
siesta: k-grid:    0   0   1      0.000
Naive supercell factors:     2    2    2

superc: Internal auxiliary supercell:     2 x     2 x     2  =       8
superc: Number of atoms, orbitals, and projectors:    576   7488   9216

* Maximum dynamic memory allocated =     4 MB

siesta:                 ==============================
                            Begin MD step =      1
                        ==============================

superc: Internal auxiliary supercell:     2 x     2 x     2  =       8
superc: Number of atoms, orbitals, and projectors:    576   7488   9216

outcell: Unit cell vectors (Ang):
       12.804619    7.392750    0.000000
        0.000000   14.785500    0.000000
        0.000000    0.000000   10.000000

outcell: Cell vector modules (Ang)   :   14.785500   14.785500   10.000000
outcell: Cell angles (23,13,12) (deg):     90.0000     90.0000     60.0000
outcell: Cell volume (Ang**3)        :   1893.2269
New_DM. Step:     1
Initializing Density Matrix...

InitMesh: MESH =   120 x   120 x    90 =     1296000
InitMesh: Mesh cutoff (required, used) =   200.000   223.865 Ry

* Maximum dynamic memory allocated =   134 MB

stepf: Fermi-Dirac step function

siesta: Program's energy decomposition (eV):
siesta: Ebs     =     -6204.005387
siesta: Eions   =     20814.213734
siesta: Ena     =      4881.692019
siesta: Ekin    =      7637.016727
siesta: Enl     =       189.578184
siesta: DEna    =        -0.000015
siesta: DUscf   =         0.000000
siesta: DUext   =         0.000000
siesta: Exc     =     -4549.118736
siesta: eta*DQ  =         0.000000
siesta: Emadel  =         0.000000
siesta: Emeta   =         0.000000
siesta: Emolmec =         0.000000
siesta: Ekinion =         0.000000
siesta: Eharris =    -12291.179010
siesta: Etot    =    -12655.045555
siesta: FreeEng =    -12655.045555

siesta: iscf   Eharris(eV)      E_KS(eV)   FreeEng(eV)   dDmax  Ef(eV)
siesta:    1   -12291.1790   -12655.0456   -12655.0456  6.3251 -7.0513
timer: Routine,Calls,Time,% = IterSCF        1    3019.579  99.60
elaps: Routine,Calls,Wall,% = IterSCF        1     252.228  99.60
siesta:    2   -16888.5505   -11643.7727   -11643.8079 24.3692 -3.8720
siesta:    3   -12218.8996   -12466.0533   -12466.0897  2.7712 -4.7889
siesta:    4   -12190.2418   -12316.9472   -12316.9697  1.3145 -4.1808
siesta:    5   -12149.9041   -12262.0306   -12262.0757  1.0620 -4.1398
siesta:    6   -12139.1126   -12214.3361   -12214.3716  0.9418 -3.9422
siesta:    7   -12136.7191   -12204.6657   -12204.6910  0.9009 -3.9204
siesta:    8   -12133.9178   -12194.1054   -12194.1496  0.8245 -3.9980
siesta:    9   -12131.8686   -12180.5557   -12180.5966  0.7209 -3.9911
siesta:   10   -12132.0217   -12148.1031   -12148.1464  0.4583 -3.9799
siesta:   11   -12131.5475   -12138.8301   -12138.8813  0.3709 -3.9672
siesta:   12   -12131.4438   -12121.7339   -12121.7800  0.2487 -3.9205
siesta:   13   -12131.0801   -12115.5494   -12115.5932  0.1795 -3.9802
siesta:   14   -12130.8148   -12116.1760   -12116.2233  0.1472 -3.9574
siesta:   15   -12130.3424   -12115.1130   -12115.1630  0.1219 -3.9486
siesta:   16   -12130.1917   -12114.8434   -12114.8918  0.0951 -3.9502
siesta:   17   -12130.1452   -12117.1037   -12117.1513  0.0780 -3.9627
siesta:   18   -12130.1056   -12119.1203   -12119.1660  0.0651 -3.9838
siesta:   19   -12130.1004   -12123.3235   -12123.3680  0.0557 -3.9987
siesta:   20   -12130.0986   -12126.2717   -12126.3158  0.0410 -4.0050
siesta:   21   -12130.0912   -12128.2371   -12128.2815  0.0255 -4.0036
siesta:   22   -12130.0856   -12129.0057   -12129.0503  0.0171 -4.0031
siesta:   23   -12130.0841   -12129.2297   -12129.2747  0.0153 -4.0038
siesta:   24   -12130.0836   -12129.4158   -12129.4607  0.0119 -4.0023
siesta:   25   -12130.0833   -12129.5269   -12129.5717  0.0105 -4.0005
siesta:   26   -12130.0833   -12129.6175   -12129.6623  0.0069 -3.9986
siesta:   27   -12130.0832   -12129.6881   -12129.7328  0.0057 -3.9977
siesta:   28   -12130.0830   -12129.8436   -12129.8883  0.0033 -3.9964
siesta:   29   -12130.0829   -12129.9133   -12129.9582  0.0019 -3.9963
siesta:   30   -12130.0829   -12130.0284   -12130.0733  0.0008 -3.9967
siesta:   31   -12130.0829   -12130.0856   -12130.1304  0.0005 -3.9969
siesta:   32   -12130.0829   -12130.1061   -12130.1509  0.0003 -3.9969
siesta:   33   -12130.0829   -12130.1053   -12130.1502  0.0003 -3.9969
siesta:   34   -12130.0829   -12130.1072   -12130.1521  0.0002 -3.9969
siesta:   35   -12130.0829   -12130.1038   -12130.1487  0.0002 -3.9970
siesta:   36   -12130.0829   -12130.1017   -12130.1465  0.0001 -3.9970
siesta:   37   -12130.0829   -12130.0977   -12130.1426  0.0001 -3.9970

siesta: E_KS(eV) =           -12130.0942

siesta: E_KS - E_eggbox =    -12130.0942

siesta: Atomic forces (eV/Ang):
----------------------------------------
   Tot   -0.094183   -0.187550    0.000000
----------------------------------------
   Max  682.097573
   Res  176.151423    sqrt( Sum f_i^2 / 3N )
----------------------------------------
   Max  682.097573    constrained

Stress-tensor-Voigt (kbar):     -660.11    -3131.02       -0.12       -6.52        0.00        0.00
(Free)E + p*V (eV/cell)   -10636.8319
Target enthalpy (eV/cell)   -12130.1390

siesta: Stress tensor (static) (eV/Ang**3):
        -0.412005   -0.004070    0.000000
        -0.004070   -1.954208    0.000000
         0.000000    0.000000   -0.000075

siesta: Pressure (static):       1263.75116307  kBar

siesta: Stress tensor (total) (eV/Ang**3):
        -0.412005   -0.004070    0.000000
        -0.004070   -1.954208    0.000000
         0.000000    0.000000   -0.000075

siesta: Pressure (total):       1263.75116307  kBar

siesta: Temp_ion =       0.000 K

* Maximum dynamic memory allocated =   145 MB
Computing bands...

siesta: Program's energy decomposition (eV):
siesta: Ebs     =     -4958.222122
siesta: Eions   =     20814.213734
siesta: Ena     =      4881.692019
siesta: Ekin    =     10741.903243
siesta: Enl     =     -1524.423558
siesta: DEna    =      -799.746523
siesta: DUscf   =       108.576131
siesta: DUext   =         0.000000
siesta: Exc     =     -4723.881735
siesta: eta*DQ  =         0.000000
siesta: Emadel  =         0.000000
siesta: Emeta   =         0.000000
siesta: Emolmec =         0.000000
siesta: Ekinion =         0.000000
siesta: Eharris =    -12130.082905
siesta: Etot    =    -12130.094157
siesta: FreeEng =    -12130.139006

siesta: Final energy (eV):
siesta:  Band Struct. =   -4958.222122
siesta:       Kinetic =   10741.903243
siesta:       Hartree =   34840.181892
siesta:    Ext. field =       0.000000
siesta:   Exch.-corr. =   -4723.881735
siesta:  Ion-electron =  -80010.644258
siesta:       Ion-ion =   27022.346701
siesta:       Ekinion =       0.000000
siesta:         Total =  -12130.094157

siesta: Atomic forces (eV/Ang):
siesta:      1    3.422475  112.256105    0.000000
siesta:      2  -26.040709 -650.719273    0.000000
siesta:      3  -27.992553    3.379939    0.000000
siesta:      4  -30.414348 -656.293068    0.000000
siesta:      5   -1.351934    0.677908    0.000000
siesta:      6   -0.451159    0.736566    0.000000
siesta:      7    2.481486   -1.735194    0.000000
siesta:      8   -0.087546   -2.642659    0.000000
siesta:      9   -0.860701    4.328562    0.000000
siesta:     10   -0.826825    0.994319    0.000000
siesta:     11    0.481086 -682.097573    0.000000
siesta:     12    2.459457   -0.812713    0.000000
siesta:     13    0.591087   -2.809135    0.000000
siesta:     14   18.678173 -678.487988    0.000000
siesta:     15    0.627889  118.777366    0.000000
siesta:     16    2.465627  644.821424    0.000000
siesta:     17   -5.787787 -113.016434    0.000000
siesta:     18   -0.583282  125.226395    0.000000
siesta:     19   13.924137 -548.441507    0.000000
siesta:     20   27.046226    8.826727    0.000000
siesta:     21   30.972486 -548.371467    0.000000
siesta:     22    1.896831    0.371458    0.000000
siesta:     23   -2.737721    1.812002    0.000000
siesta:     24    2.159220    2.257267    0.000000
siesta:     25   -1.482216   -0.016597    0.000000
siesta:     26   10.029837  650.498372    0.000000
siesta:     27   -2.085223 -117.086423    0.000000
siesta:     28   34.298763  550.609797    0.000000
siesta:     29   26.324122   -5.284842    0.000000
siesta:     30   -3.120936   -2.077008    0.000000
siesta:     31    2.272291   -0.132209    0.000000
siesta:     32   -1.361990    0.154888    0.000000
siesta:     33    2.209742   -2.232901    0.000000
siesta:     34   -0.180999    7.427329    0.000000
siesta:     35   -0.198487   -7.426861    0.000000
siesta:     36  -20.074016  548.469645    0.000000
siesta:     37    3.463536 -123.553478    0.000000
siesta:     38  -21.388958  549.136549    0.000000
siesta:     39    0.683445 -125.545393    0.000000
siesta:     40   21.694417  559.680767    0.000000
siesta:     41   23.041268   -6.689924    0.000000
siesta:     42   -1.202980    2.636575    0.000000
siesta:     43    0.578386   -0.506130    0.000000
siesta:     44   -0.255879    0.921331    0.000000
siesta:     45   -0.034708   -1.162901    0.000000
siesta:     46  -21.145118  655.784500    0.000000
siesta:     47  -26.039583   -4.411146    0.000000
siesta:     48   -7.854237  680.930389    0.000000
siesta:     49  -24.284101   -4.277909    0.000000
siesta:     50   -1.866728  563.140473    0.000000
siesta:     51    0.069627   -0.092499    0.000000
siesta:     52   -1.705849    0.760110    0.000000
siesta:     53    1.506210   -0.567654    0.000000
siesta:     54    2.211034   -0.427000    0.000000
siesta:     55   -1.018486    0.518939    0.000000
siesta:     56    2.474780    2.786370    0.000000
siesta:     57   -3.009948    0.794053    0.000000
siesta:     58   -0.903876    2.014744    0.000000
siesta:     59    0.435090    1.064958    0.000000
siesta:     60   -0.072324   -5.716211    0.000000
siesta:     61   -0.670036    3.499560    0.000000
siesta:     62    0.381430   -1.393262    0.000000
siesta:     63   -0.694920    0.946402    0.000000
siesta:     64   -0.508518   -3.060110    0.000000
siesta:     65   25.687046    9.942585    0.000000
siesta:     66  -29.214627    9.319173    0.000000
siesta:     67   -7.202630 -570.161737    0.000000
siesta:     68   -0.892093    1.850542    0.000000
siesta:     69    1.686736   -0.678397    0.000000
siesta:     70   10.262285 -543.920824    0.000000
siesta:     71   -1.948544  133.153892    0.000000
siesta:     72    0.942168 -548.847101    0.000000
siesta: ----------------------------------------
siesta:    Tot   -0.094183   -0.187550    0.000000

siesta: Stress tensor (static) (eV/Ang**3):
siesta:    -0.412005   -0.004070    0.000000
siesta:    -0.004070   -1.954208    0.000000
siesta:     0.000000    0.000000   -0.000075

siesta: Cell volume =       1893.226884 Ang**3

siesta: Pressure (static):
siesta:                Solid            Molecule  Units
siesta:           0.00859064          0.13906199  Ry/Bohr**3
siesta:           0.78876291         12.76819876  eV/Ang**3
siesta:        1263.75116307      20457.13082737  kBar
(Free)E+ p_basis*V_orbitals  =      -12101.545842
(Free)Eharris+ p_basis*V_orbitals  =      -12101.531038

siesta: Electric dipole (a.u.)  =    0.000000    0.000000    0.000000
siesta: Electric dipole (Debye) =    0.000000    0.000000    0.000000

* Maximum dynamic memory allocated : Node    0 =   143 MB
* Maximum dynamic memory allocated : Node    1 =    58 MB
* Maximum dynamic memory allocated : Node    2 =    60 MB
* Maximum dynamic memory allocated : Node    3 =   132 MB
* Maximum dynamic memory allocated : Node    4 =   145 MB
* Maximum dynamic memory allocated : Node    5 =    53 MB
* Maximum dynamic memory allocated : Node    6 =    54 MB
* Maximum dynamic memory allocated : Node    7 =   139 MB
* Maximum dynamic memory allocated : Node    8 =   129 MB
* Maximum dynamic memory allocated : Node    9 =    53 MB
* Maximum dynamic memory allocated : Node   10 =    54 MB
* Maximum dynamic memory allocated : Node   11 =   123 MB

* Maximum memory occured during matrixMtoO                    

timer: CPU execution times:
timer:  Routine       Calls   Time/call    Tot.time        %
timer:  siesta            1  108992.436  108992.436   100.00
timer:  Setup             1       3.309       3.309     0.00
timer:  bands             3     226.029     678.088     0.62
timer:  writewave         1       0.022       0.022     0.00
timer:  KSV_init          1       0.006       0.006     0.00
timer:  IterMD            1  108304.091  108304.091    99.37
timer:  hsparse           1       0.159       0.159     0.00
timer:  overlap           1       7.157       7.157     0.01
timer:  IterSCF          37    2923.772  108179.551    99.25
timer:  kinefsm           2       3.621       7.242     0.01
timer:  nlefsm            2      18.320      36.640     0.03
timer:  DHSCF            38      65.656    2494.924     2.29
timer:  DHSCF1            1       0.901       0.901     0.00
timer:  DHSCF2            1      24.872      24.872     0.02
timer:  REORD           306       0.002       0.716     0.00
timer:  POISON           39       0.446      17.408     0.02
timer:  DHSCF3           38      64.424    2448.102     2.25
timer:  rhoofd           38      12.806     486.636     0.45
timer:  cellXC           38       2.456      93.331     0.09
timer:  vmat             38      28.685    1090.025     1.00
timer:  MolMec            2       0.000       0.000     0.00
timer:  diagon           37    2856.812  105702.045    96.98
timer:  c-eigval       8668       5.595   48499.693    44.50
timer:  c-buildHS      8668       0.033     286.391     0.26
timer:  cdiag         17215       5.691   97974.098    89.89
timer:  cdiag1        17215       0.259    4455.524     4.09
timer:  cdiag2        17215       1.836   31614.159    29.01
timer:  cdiag3        17215       3.392   58400.818    53.58
timer:  cdiag4        17215       0.088    1506.649     1.38
timer:  c-eigvec       8547       5.849   49993.108    45.87
timer:  c-buildD       8547       0.917    7840.553     7.19
timer:  DHSCF4            1      20.795      20.795     0.02
timer:  dfscf             1      19.374      19.374     0.02
timer:  overfsm           1       0.281       0.281     0.00
timer:  optical           1       6.348       6.348     0.01
  

elaps: ELAPSED times:
elaps:  Routine       Calls   Time/call    Tot.time        %
elaps:  siesta            1    9103.993    9103.993   100.00
elaps:  Setup             1       0.279       0.279     0.00
elaps:  bands             3      18.896      56.687     0.62
elaps:  writewave         1       0.002       0.002     0.00
elaps:  KSV_init          1       0.000       0.000     0.00
elaps:  IterMD            1    9046.494    9046.494    99.37
elaps:  hsparse           1       0.016       0.016     0.00
elaps:  overlap           1       0.709       0.709     0.01
elaps:  IterSCF          37     244.219    9036.092    99.25
elaps:  kinefsm           2       0.361       0.723     0.01
elaps:  nlefsm            2       1.622       3.244     0.04
elaps:  DHSCF            38       5.526     210.001     2.31
elaps:  DHSCF1            1       0.077       0.077     0.00
elaps:  DHSCF2            1       2.077       2.077     0.02
elaps:  REORD           306       0.000       0.091     0.00
elaps:  POISON           39       0.038       1.465     0.02
elaps:  DHSCF3           38       5.381     204.490     2.25
elaps:  rhoofd           38       2.093      79.540     0.87
elaps:  cellXC           38       0.205       7.782     0.09
elaps:  vmat             38       2.396      91.055     1.00
elaps:  MolMec            2       0.000       0.000     0.00
elaps:  diagon           37     238.629    8829.275    96.98
elaps:  c-eigval       8668       0.467    4051.077    44.50
elaps:  c-buildHS      8668       0.003      29.523     0.32
elaps:  cdiag         17215       0.472    8133.744    89.34
elaps:  cdiag1        17215       0.021     364.918     4.01
elaps:  cdiag2        17215       0.154    2643.128    29.03
elaps:  cdiag3        17215       0.284    4885.537    53.66
elaps:  cdiag4        17215       0.007     120.882     1.33
elaps:  c-eigvec       8547       0.484    4136.677    45.44
elaps:  c-buildD       8547       0.081     693.775     7.62
elaps:  DHSCF4            1       3.311       3.311     0.04
elaps:  dfscf             1       3.125       3.125     0.03
elaps:  overfsm           1       0.029       0.029     0.00
elaps:  optical           1       0.000       0.000     0.00
  
>> End of run:   6-MAY-2016  14:47:51
