Siesta Version:                                        siesta-3.2-pl-3
Architecture  : x86_64-unknown-linux-gnu--unknown
Compiler flags: mpiifort -g -O2 -fPIC -xSSE4.1 -fp-model source -shared-intel 
PARALLEL version

* Running on    8 nodes in parallel
>> Start of run:  14-APR-2016  21:50:55

                           ***********************       
                           *  WELCOME TO SIESTA  *       
                           ***********************       

reinit: Reading from standard input
************************** Dump of input data file ****************************
#(1) General system descriptors
SystemName            GRP_doping    # Descriptive name of the system
SystemLabel           GRP_doping    # Short name for naming files
%include STRUCT.fdf
%include KPT.fdf
%include BASIS.fdf
#%include TS.fdf # for transiesta calculation
#(4) DFT, Grid, SCF
XC.functional         GGA           # LDA or GGA (default = LDA)
XC.authors            PBE           # CA (Ceperley-Aldr) = PZ
                                    #    (Perdew-Zunger) - LDA - Default
                                    # PW92 (Perdew-Wang-92) - LDA
                                    # PBE (Perdew-Burke-Ernzerhof) - GGA
MeshCutoff            200.000000    Ry      # Default: 50.0 Ry ~ 0.444 Bohr
                                    #         100.0 Ry ~ 0.314 Bohr
MaxSCFIterations      500           # Default: 50
DM.MixingWeight       0.05          # Default: 0.25
DM.NumberPulay        10            # Default: 0
DM.PulayOnFile        F             # SystemLabel.P1, SystemLabel.P2
DM.Tolerance          1.d-4         # Default: 1.d-4
DM.UseSaveDM          .true.        # because of the bug
SCFMustConverge       .true.
NeglNonOverlapInt     F             # Default: F
#(5) Eigenvalue problem: order-N or diagonalization
SolutionMethod        Diagon        # or Transiesta
ElectronicTemperature 300.0 K       # Default: 300.0 K
#(6) Molecular dynamics and relaxations
#MD.TypeOfRun          CG            # Type of dynamics:
#MD.VariableCell       F
#MD.NumCGsteps         0           # 0 for single-point / 100 for gopt
#MD.MaxCGDispl         0.2 Bohr      # Default: 0.2 Bohr
#MD.MaxForceTol        0.02 eV/Ang   # Default: 0.04 eV/Ang
#MD.MaxStressTol       1.0 GPa       # Default: 1.0 GPa
# Geometry Constraints
#%block GeometryConstraints
#	position from 1 to 44
#%endblock GeometryConstraints
BandLinesScale   pi/a
%block BandLines
 1   0.00000000  0.00000000  0.00000000
50   0.00000000  0.07809418  0.00000000
50   0.04509075  0.07809242  0.00000000
20   0.00000000  0.00000000  0.00000000
%endblock BandLines
************************** End of input data file *****************************

reinit: -----------------------------------------------------------------------
reinit: System Name: GRP_doping
reinit: -----------------------------------------------------------------------
reinit: System Label: GRP_doping                                                  
reinit: -----------------------------------------------------------------------

initatom: Reading input for the pseudopotentials and atomic orbitals ----------
 Species number:            1  Label: B Atomic number:           5
 Species number:            2  Label: C Atomic number:           6
Ground state valence configuration:   2s02  2p01
Reading pseudopotential information in formatted form from B.psf

Valence configuration for pseudopotential generation:
2s( 2.00) rc: 1.74
2p( 1.00) rc: 1.74
3d( 0.00) rc: 1.74
4f( 0.00) rc: 1.74
Ground state valence configuration:   2s02  2p02
Reading pseudopotential information in formatted form from C.psf

Valence configuration for pseudopotential generation:
2s( 2.00) rc: 1.54
2p( 2.00) rc: 1.54
3d( 0.00) rc: 1.54
4f( 0.00) rc: 1.54
For B, standard SIESTA heuristics set lmxkb to 3
 (one more than the basis l, including polarization orbitals).
Use PS.lmax or PS.KBprojectors blocks to override.
For C, standard SIESTA heuristics set lmxkb to 3
 (one more than the basis l, including polarization orbitals).
Use PS.lmax or PS.KBprojectors blocks to override.

<basis_specs>
===============================================================================
B                    Z=   5    Mass=  10.810        Charge= 0.17977+309
Lmxo=1 Lmxkb= 3    BasisType=split      Semic=F
L=0  Nsemic=0  Cnfigmx=2
          n=1  nzeta=2  polorb=0
            splnorm:   0.15000    
               vcte:    0.0000    
               rinn:    0.0000    
                rcs:    0.0000      0.0000    
            lambdas:    1.0000      1.0000    
L=1  Nsemic=0  Cnfigmx=2
          n=1  nzeta=2  polorb=1
            splnorm:   0.15000    
               vcte:    0.0000    
               rinn:    0.0000    
                rcs:    0.0000      0.0000    
            lambdas:    1.0000      1.0000    
-------------------------------------------------------------------------------
L=0  Nkbl=1  erefs: 0.17977+309
L=1  Nkbl=1  erefs: 0.17977+309
L=2  Nkbl=1  erefs: 0.17977+309
L=3  Nkbl=1  erefs: 0.17977+309
===============================================================================
</basis_specs>

atom: Called for B                     (Z =   5)

read_vps: Pseudopotential generation method:
read_vps: ATM3      Troullier-Martins                       
Total valence charge:    3.00000

read_vps: Pseudopotential includes a core correction:
read_vps: Pseudo-core for xc-correction

xc_check: Exchange-correlation functional:
xc_check: GGA Perdew, Burke & Ernzerhof 1996
V l=0 = -2*Zval/r beyond r=  1.7165
V l=1 = -2*Zval/r beyond r=  1.7165
V l=2 = -2*Zval/r beyond r=  1.7165
V l=3 = -2*Zval/r beyond r=  1.6951
All V_l potentials equal beyond r=  1.7165
This should be close to max(r_c) in ps generation
All pots = -2*Zval/r beyond r=  1.7165

VLOCAL1: 99.0% of the norm of Vloc inside     14.733 Ry
VLOCAL1: 99.9% of the norm of Vloc inside     33.577 Ry
atom: Maximum radius for 4*pi*r*r*local-pseudopot. charge    2.04484
atom: Maximum radius for r*vlocal+2*Zval:    1.75994
GHOST: No ghost state for L =  0
GHOST: No ghost state for L =  1
GHOST: No ghost state for L =  2
GHOST: No ghost state for L =  3

KBgen: Kleinman-Bylander projectors: 
   l= 0   rc=  1.897051   el= -0.693730   Ekb=  4.595746   kbcos=  0.286105
   l= 1   rc=  1.920920   el= -0.265236   Ekb= -2.350715   kbcos= -0.315747
   l= 2   rc=  2.044840   el=  0.002055   Ekb= -0.690767   kbcos= -0.013822
   l= 3   rc=  2.149707   el=  0.003188   Ekb= -0.315358   kbcos= -0.002055

KBgen: Total number of  Kleinman-Bylander projectors:   16
atom: -------------------------------------------------------------------------

atom: SANKEY-TYPE ORBITALS:
atom: Selected multiple-zeta basis: split     

SPLIT: Orbitals with angular momentum L= 0

SPLIT: Basis orbitals for state 2s

SPLIT: PAO cut-off radius determined from an
SPLIT: energy shift=  0.007350 Ry

   izeta = 1
                 lambda =    1.000000
                     rc =    5.422032
                 energy =   -0.686029
                kinetic =    0.576707
    potential(screened) =   -1.262736
       potential(ionic) =   -3.271094

   izeta = 2
                 rmatch =    4.222573
              splitnorm =    0.150000
                 energy =   -0.602132
                kinetic =    0.858975
    potential(screened) =   -1.461107
       potential(ionic) =   -3.582536

SPLIT: Orbitals with angular momentum L= 1

SPLIT: Basis orbitals for state 2p

SPLIT: PAO cut-off radius determined from an
SPLIT: energy shift=  0.007350 Ry

   izeta = 1
                 lambda =    1.000000
                     rc =    6.790259
                 energy =   -0.258578
                kinetic =    1.481412
    potential(screened) =   -1.739989
       potential(ionic) =   -3.657461

   izeta = 2
                 rmatch =    4.608740
              splitnorm =    0.150000
                 energy =   -0.173757
                kinetic =    2.186690
    potential(screened) =   -2.360447
       potential(ionic) =   -4.464260

POLgen: Perturbative polarization orbital with L=  2

POLgen: Polarization orbital for state 2p

   izeta = 1
                     rc =    6.790259
                 energy =    0.684082
                kinetic =    1.471481
    potential(screened) =   -0.787399
       potential(ionic) =   -2.406985
atom: Total number of Sankey-type orbitals: 13

atm_pop: Valence configuration (for local Pseudopot. screening):
 2s( 2.00)                                                            
 2p( 1.00)                                                            
Vna: chval, zval:    3.00000   3.00000

Vna:  Cut-off radius for the neutral-atom potential:   6.790259
comcore: Pseudo-core radius Rcore=  2.122997

atom: _________________________________________________________________________

<basis_specs>
===============================================================================
C                    Z=   6    Mass=  12.010        Charge= 0.17977+309
Lmxo=1 Lmxkb= 3    BasisType=split      Semic=F
L=0  Nsemic=0  Cnfigmx=2
          n=1  nzeta=2  polorb=0
            splnorm:   0.15000    
               vcte:    0.0000    
               rinn:    0.0000    
                rcs:    0.0000      0.0000    
            lambdas:    1.0000      1.0000    
L=1  Nsemic=0  Cnfigmx=2
          n=1  nzeta=2  polorb=1
            splnorm:   0.15000    
               vcte:    0.0000    
               rinn:    0.0000    
                rcs:    0.0000      0.0000    
            lambdas:    1.0000      1.0000    
-------------------------------------------------------------------------------
L=0  Nkbl=1  erefs: 0.17977+309
L=1  Nkbl=1  erefs: 0.17977+309
L=2  Nkbl=1  erefs: 0.17977+309
L=3  Nkbl=1  erefs: 0.17977+309
===============================================================================
</basis_specs>

atom: Called for C                     (Z =   6)

read_vps: Pseudopotential generation method:
read_vps: ATM3      Troullier-Martins                       
Total valence charge:    4.00000

read_vps: Pseudopotential includes a core correction:
read_vps: Pseudo-core for xc-correction

xc_check: Exchange-correlation functional:
xc_check: GGA Perdew, Burke & Ernzerhof 1996
V l=0 = -2*Zval/r beyond r=  1.5227
V l=1 = -2*Zval/r beyond r=  1.5227
V l=2 = -2*Zval/r beyond r=  1.5227
V l=3 = -2*Zval/r beyond r=  1.5038
All V_l potentials equal beyond r=  1.5227
This should be close to max(r_c) in ps generation
All pots = -2*Zval/r beyond r=  1.5227

VLOCAL1: 99.0% of the norm of Vloc inside     18.722 Ry
VLOCAL1: 99.9% of the norm of Vloc inside     42.668 Ry
atom: Maximum radius for 4*pi*r*r*local-pseudopot. charge    1.83678
atom: Maximum radius for r*vlocal+2*Zval:    1.58088
GHOST: No ghost state for L =  0
GHOST: No ghost state for L =  1
GHOST: No ghost state for L =  2
GHOST: No ghost state for L =  3

KBgen: Kleinman-Bylander projectors: 
   l= 0   rc=  1.704034   el= -1.009801   Ekb=  5.335044   kbcos=  0.316824
   l= 1   rc=  1.704034   el= -0.388707   Ekb= -3.785862   kbcos= -0.366464
   l= 2   rc=  1.791422   el=  0.001971   Ekb= -0.970471   kbcos= -0.009212
   l= 3   rc=  1.859892   el=  0.003065   Ekb= -0.399525   kbcos= -0.001223

KBgen: Total number of  Kleinman-Bylander projectors:   16
atom: -------------------------------------------------------------------------

atom: SANKEY-TYPE ORBITALS:
atom: Selected multiple-zeta basis: split     

SPLIT: Orbitals with angular momentum L= 0

SPLIT: Basis orbitals for state 2s

SPLIT: PAO cut-off radius determined from an
SPLIT: energy shift=  0.007350 Ry

   izeta = 1
                 lambda =    1.000000
                     rc =    4.632753
                 energy =   -1.002270
                kinetic =    0.855760
    potential(screened) =   -1.858031
       potential(ionic) =   -5.417575

   izeta = 2
                 rmatch =    3.431921
              splitnorm =    0.150000
                 energy =   -0.867111
                kinetic =    1.300804
    potential(screened) =   -2.167915
       potential(ionic) =   -5.962684

SPLIT: Orbitals with angular momentum L= 1

SPLIT: Basis orbitals for state 2p

SPLIT: PAO cut-off radius determined from an
SPLIT: energy shift=  0.007350 Ry

   izeta = 1
                 lambda =    1.000000
                     rc =    5.658549
                 energy =   -0.381140
                kinetic =    2.399701
    potential(screened) =   -2.780841
       potential(ionic) =   -6.206085

   izeta = 2
                 rmatch =    3.653288
              splitnorm =    0.150000
                 energy =   -0.249149
                kinetic =    3.542762
    potential(screened) =   -3.791911
       potential(ionic) =   -7.581078

POLgen: Perturbative polarization orbital with L=  2

POLgen: Polarization orbital for state 2p

   izeta = 1
                     rc =    5.658549
                 energy =    1.109913
                kinetic =    2.304789
    potential(screened) =   -1.194876
       potential(ionic) =   -4.013592
atom: Total number of Sankey-type orbitals: 13

atm_pop: Valence configuration (for local Pseudopot. screening):
 2s( 2.00)                                                            
 2p( 2.00)                                                            
Vna: chval, zval:    4.00000   4.00000

Vna:  Cut-off radius for the neutral-atom potential:   5.658549
comcore: Pseudo-core radius Rcore=  1.791422

atom: _________________________________________________________________________

prinput: Basis input ----------------------------------------------------------

PAO.BasisType split     

%block ChemicalSpeciesLabel
    1    5 B                       # Species index, atomic number, species label
    2    6 C                       # Species index, atomic number, species label
%endblock ChemicalSpeciesLabel

%block PAO.Basis                 # Define Basis set
B                     2                    # Species label, number of l-shells
 n=2   0   2                         # n, l, Nzeta 
   5.422      4.223   
   1.000      1.000   
 n=2   1   2 P   1                   # n, l, Nzeta, Polarization, NzetaPol
   6.790      4.609   
   1.000      1.000   
C                     2                    # Species label, number of l-shells
 n=2   0   2                         # n, l, Nzeta 
   4.633      3.432   
   1.000      1.000   
 n=2   1   2 P   1                   # n, l, Nzeta, Polarization, NzetaPol
   5.659      3.653   
   1.000      1.000   
%endblock PAO.Basis

prinput: ----------------------------------------------------------------------

coor:   Atomic-coordinates input format  =     Fractional

siesta: Atomic coordinates (Bohr) and species
siesta:     -0.02582  21.41544   0.00000  1        1
siesta:      2.30256  22.75985   0.00000  1        2
siesta:      2.30256  25.44831   0.00000  1        3
siesta:     -2.35420  22.75985   0.00000  1        4
siesta:     -2.35420  25.44831   0.00000  1        5
siesta:     -7.01096  25.44831   0.00000  1        6
siesta:     -0.02582  26.79272   0.00000  1        7
siesta:     -0.02582   2.59549   0.00000  2        8
siesta:     -0.02582   5.28395   0.00000  2        9
siesta:     -2.35420  38.89134   0.00000  2       10
siesta:     -2.35420  41.57980   0.00000  2       11
siesta:      2.30256  38.89134   0.00000  2       12
siesta:      2.30256  41.57980   0.00000  2       13
siesta:      4.63094  34.85847   0.00000  2       14
siesta:      4.63094  37.54693   0.00000  2       15
siesta:      6.95932  30.82560   0.00000  2       16
siesta:      6.95932  33.51406   0.00000  2       17
siesta:      9.28770  26.79272   0.00000  2       18
siesta:      9.28770  29.48119   0.00000  2       19
siesta:     -4.68258  34.85847   0.00000  2       20
siesta:     -4.68258  37.54693   0.00000  2       21
siesta:      2.30256   6.62836   0.00000  2       22
siesta:      2.30256   9.31683   0.00000  2       23
siesta:      4.63094  10.66124   0.00000  2       24
siesta:      4.63094  13.34970   0.00000  2       25
siesta:      6.95932  14.69411   0.00000  2       26
siesta:      6.95932  17.38257   0.00000  2       27
siesta:      9.28770  18.72698   0.00000  2       28
siesta:      9.28770  21.41544   0.00000  2       29
siesta:     11.61608  22.75985   0.00000  2       30
siesta:     11.61608  25.44831   0.00000  2       31
siesta:     -2.35420   6.62836   0.00000  2       32
siesta:     -2.35420   9.31683   0.00000  2       33
siesta:     -0.02582  10.66124   0.00000  2       34
siesta:     -0.02582  13.34970   0.00000  2       35
siesta:      2.30256  14.69411   0.00000  2       36
siesta:      2.30256  17.38257   0.00000  2       37
siesta:      4.63094  18.72698   0.00000  2       38
siesta:      4.63094  21.41544   0.00000  2       39
siesta:      6.95932  22.75985   0.00000  2       40
siesta:      6.95932  25.44831   0.00000  2       41
siesta:     -4.68258  10.66124   0.00000  2       42
siesta:     -4.68258  13.34970   0.00000  2       43
siesta:     -2.35420  14.69411   0.00000  2       44
siesta:     -2.35420  17.38257   0.00000  2       45
siesta:     -0.02582  18.72698   0.00000  2       46
siesta:     -7.01096  14.69411   0.00000  2       47
siesta:     -7.01096  17.38257   0.00000  2       48
siesta:     -4.68258  18.72698   0.00000  2       49
siesta:     -4.68258  21.41544   0.00000  2       50
siesta:     -9.33934  18.72698   0.00000  2       51
siesta:     -9.33934  21.41544   0.00000  2       52
siesta:     -7.01096  22.75985   0.00000  2       53
siesta:    -11.66772  22.75985   0.00000  2       54
siesta:    -11.66772  25.44831   0.00000  2       55
siesta:     -9.33934  26.79272   0.00000  2       56
siesta:     -9.33934  29.48119   0.00000  2       57
siesta:      4.63094  26.79272   0.00000  2       58
siesta:      4.63094  29.48119   0.00000  2       59
siesta:     -0.02582  29.48119   0.00000  2       60
siesta:     -4.68258  26.79272   0.00000  2       61
siesta:     -4.68258  29.48119   0.00000  2       62
siesta:      2.30256  30.82560   0.00000  2       63
siesta:      2.30256  33.51406   0.00000  2       64
siesta:     -2.35420  30.82560   0.00000  2       65
siesta:     -2.35420  33.51406   0.00000  2       66
siesta:     -7.01096  30.82560   0.00000  2       67
siesta:     -7.01096  33.51406   0.00000  2       68
siesta:     -0.02582  34.85847   0.00000  2       69
siesta:     -0.02582  37.54693   0.00000  2       70
siesta:     -0.02582  42.92421   0.00000  2       71
siesta:     -0.02582  45.61267   0.00000  2       72

siesta: System type = slab      

initatomlists: Number of atoms, orbitals, and projectors:     72   936  1152

siesta: ******************** Simulation parameters ****************************
siesta:
siesta: The following are some of the parameters of the simulation.
siesta: A complete list of the parameters used, including default values,
siesta: can be found in file out.fdf
siesta:
redata: Non-Collinear-spin run           =     F
redata: SpinPolarized (Up/Down) run      =     F
redata: Number of spin components        =     1
redata: Long output                      =     F
redata: Number of Atomic Species         =        2
redata: Charge density info will appear in .RHO file
redata: Write Mulliken Pop.              =     NO
redata: Mesh Cutoff                      =   200.0000  Ry
redata: Net charge of the system         =     0.0000 |e|
redata: Max. number of SCF Iter          =      500
redata: SCF convergence failure will abort job
redata: Performing Pulay mixing using    =    10 iterations
redata: Mix DM in first SCF step ?       =     F
redata: Write Pulay info on disk?        =     F
redata: Discard 1st Pulay DM after  kick =     F
redata: New DM Mixing Weight             =     0.0500
redata: New DM Occupancy tolerance       = 0.000000000001
redata: No kicks to SCF
redata: DM Mixing Weight for Kicks       =     0.5000
redata: DM Tolerance for SCF             =     0.000100
redata: Require Energy convergence for SCF =     F
redata: DM Energy tolerance for SCF      =     0.000100 eV
redata: Require Harris convergence for SCF =     F
redata: DM Harris energy tolerance for SCF =     0.000100 eV
redata: Using Saved Data (generic)   =     F
redata: Use continuation files for DM    =     T
redata: Neglect nonoverlap interactions  =     F
redata: Method of Calculation            =     Diagonalization
redata: Divide and Conquer               =     T
redata: Electronic Temperature           =     0.0019  Ry
redata: Fix the spin of the system       =     F
redata: Dynamics option                  =     Verlet MD run
redata: Initial MD time step             =        1
redata:   Final MD time step             =        1
redata: Length of MD time step           =     1.0000  fs
redata: Initial Temperature of MD run    =     0.0000  K
redata: Perform a MD quench              =     F
redata: ***********************************************************************
Total number of electrons:   281.000000
Total ionic charge:   281.000000

* ProcessorY, Blocksize:    2  24

k-point displ. along   1 input, could be:     0.50    0.00
k-point displ. along   2 input, could be:     0.50    0.00
 Kpoints in:          231 . Kpoints trimmed:          231

siesta: k-grid: Number of k-points =   231
siesta: k-grid: Cutoff (effective) =     5.000 Ang
siesta: k-grid: Supercell and displacements
siesta: k-grid:   21   0   0      0.500
siesta: k-grid:    0  21   0      0.500
siesta: k-grid:    0   0   1      0.000
Naive supercell factors:     2    2    2

superc: Internal auxiliary supercell:     2 x     2 x     2  =       8
superc: Number of atoms, orbitals, and projectors:    576   7488   9216

* Maximum dynamic memory allocated =     4 MB

siesta:                 ==============================
                            Begin MD step =      1
                        ==============================

superc: Internal auxiliary supercell:     2 x     2 x     2  =       8
superc: Number of atoms, orbitals, and projectors:    576   7488   9216

outcell: Unit cell vectors (Ang):
       12.804619    7.392750    0.000000
        0.000000   14.785500    0.000000
        0.000000    0.000000   10.000000

outcell: Cell vector modules (Ang)   :   14.785500   14.785500   10.000000
outcell: Cell angles (23,13,12) (deg):     90.0000     90.0000     60.0000
outcell: Cell volume (Ang**3)        :   1893.2269
New_DM. Step:     1
Initializing Density Matrix...

InitMesh: MESH =   120 x   120 x    90 =     1296000
InitMesh: Mesh cutoff (required, used) =   200.000   223.865 Ry

* Maximum dynamic memory allocated =   205 MB

stepf: Fermi-Dirac step function

siesta: Program's energy decomposition (eV):
siesta: Ebs     =     -5772.699451
siesta: Eions   =     17506.614093
siesta: Ena     =      4553.381609
siesta: Ekin    =      6009.009694
siesta: Enl     =       685.934510
siesta: DEna    =        -0.000013
siesta: DUscf   =         0.000000
siesta: DUext   =         0.000000
siesta: Exc     =     -4182.723256
siesta: eta*DQ  =         0.000000
siesta: Emadel  =         0.000000
siesta: Emeta   =         0.000000
siesta: Emolmec =         0.000000
siesta: Ekinion =         0.000000
siesta: Eharris =    -10117.127725
siesta: Etot    =    -10441.011548
siesta: FreeEng =    -10441.011548

siesta: iscf   Eharris(eV)      E_KS(eV)   FreeEng(eV)   dDmax  Ef(eV)
siesta:    1   -10117.1277   -10441.0115   -10441.0115  6.3756 -8.0528
timer: Routine,Calls,Time,% = IterSCF        1    4354.235  99.73
elaps: Routine,Calls,Wall,% = IterSCF        1     544.943  99.73
siesta:    2   -14219.4363    -9465.0512    -9465.2030 16.4816 -2.3882
siesta:    3   -10063.0440   -10277.8106   -10277.8632  3.2907 -7.1252
siesta:    4   -10038.4261   -10111.5721   -10111.6232  0.9699 -5.0821
siesta:    5    -9998.5266   -10077.1404   -10077.2133  0.8549 -5.2199
siesta:    6    -9978.0136   -10028.0510   -10028.0903  0.7248 -5.0191
siesta:    7    -9974.6864   -10008.3763   -10008.3950  0.6487 -5.0590
siesta:    8    -9971.7912   -10001.1174   -10001.1927  0.6179 -5.0440
siesta:    9    -9970.2790    -9992.8989    -9992.9378  0.5509 -5.0983
siesta:   10    -9971.7453    -9964.6212    -9964.6721  0.4146 -4.9024
siesta:   11    -9969.7495    -9958.9642    -9959.0241  0.2560 -4.8957
siesta:   12    -9968.7504    -9951.2451    -9951.3102  0.1659 -4.8657
siesta:   13    -9969.1342    -9942.6675    -9942.7338  0.1339 -4.8126
siesta:   14    -9968.4016    -9944.7688    -9944.8432  0.1114 -4.7994
siesta:   15    -9967.8445    -9945.1051    -9945.1769  0.0918 -4.8198
siesta:   16    -9967.3584    -9951.0450    -9951.0985  0.0741 -4.8349
siesta:   17    -9967.2918    -9953.9417    -9954.0033  0.0600 -4.8380
siesta:   18    -9967.2018    -9959.0010    -9959.0652  0.0415 -4.8471
siesta:   19    -9967.1921    -9961.6314    -9961.6977  0.0263 -4.8552
siesta:   20    -9967.1790    -9965.1533    -9965.2186  0.0242 -4.8712
siesta:   21    -9967.1642    -9966.9749    -9967.0378  0.0334 -4.8828
siesta:   22    -9967.1552    -9967.3593    -9967.4216  0.0346 -4.8849
siesta:   23    -9967.1516    -9967.2963    -9967.3588  0.0198 -4.8770
siesta:   24    -9967.1516    -9967.8016    -9967.8644  0.0078 -4.8703
siesta:   25    -9967.1506    -9967.8187    -9967.8812  0.0051 -4.8660
siesta:   26    -9967.1502    -9967.8416    -9967.9042  0.0037 -4.8666
siesta:   27    -9967.1498    -9967.6566    -9967.7192  0.0031 -4.8662
siesta:   28    -9967.1499    -9967.6417    -9967.7043  0.0024 -4.8667
siesta:   29    -9967.1499    -9967.3538    -9967.4163  0.0018 -4.8669
siesta:   30    -9967.1499    -9967.2886    -9967.3511  0.0012 -4.8671
siesta:   31    -9967.1499    -9967.2411    -9967.3036  0.0007 -4.8673
siesta:   32    -9967.1499    -9967.2324    -9967.2949  0.0005 -4.8674
siesta:   33    -9967.1499    -9967.2235    -9967.2860  0.0004 -4.8674
siesta:   34    -9967.1499    -9967.2125    -9967.2750  0.0003 -4.8674
siesta:   35    -9967.1499    -9967.1817    -9967.2442  0.0001 -4.8673

siesta: E_KS(eV) =            -9967.1677

siesta: E_KS - E_eggbox =     -9967.1677

siesta: Atomic forces (eV/Ang):
----------------------------------------
   Tot   -0.245546   -0.033835    0.000000
----------------------------------------
   Max  562.555241
   Res  161.274143    sqrt( Sum f_i^2 / 3N )
----------------------------------------
   Max  562.555241    constrained

Stress-tensor-Voigt (kbar):     -768.76    -2881.32       -0.39       -1.00        0.00        0.00
(Free)E + p*V (eV/cell)    -8529.3782
Target enthalpy (eV/cell)    -9967.2302

siesta: Stress tensor (static) (eV/Ang**3):
        -0.479814   -0.000624    0.000000
        -0.000624   -1.798356    0.000000
         0.000000    0.000000   -0.000244

siesta: Pressure (static):       1216.82071683  kBar

siesta: Stress tensor (total) (eV/Ang**3):
        -0.479814   -0.000624    0.000000
        -0.000624   -1.798356    0.000000
         0.000000    0.000000   -0.000244

siesta: Pressure (total):       1216.82071683  kBar

siesta: Temp_ion =       0.000 K

* Maximum dynamic memory allocated =   222 MB
Computing bands...

siesta: Program's energy decomposition (eV):
siesta: Ebs     =     -4436.744518
siesta: Eions   =     17506.614093
siesta: Ena     =      4553.381609
siesta: Ekin    =      8981.407204
siesta: Enl     =      -945.632798
siesta: DEna    =      -798.589766
siesta: DUscf   =       105.685069
siesta: DUext   =         0.000000
siesta: Exc     =     -4356.804884
siesta: eta*DQ  =         0.000000
siesta: Emadel  =         0.000000
siesta: Emeta   =         0.000000
siesta: Emolmec =         0.000000
siesta: Ekinion =         0.000000
siesta: Eharris =     -9967.149853
siesta: Etot    =     -9967.167659
siesta: FreeEng =     -9967.230172

siesta: Final energy (eV):
siesta:  Band Struct. =   -4436.744518
siesta:       Kinetic =    8981.407204
siesta:       Hartree =   29542.118016
siesta:    Ext. field =       0.000000
siesta:   Exch.-corr. =   -4356.804884
siesta:  Ion-electron =  -67738.715441
siesta:       Ion-ion =   23604.827446
siesta:       Ekinion =       0.000000
siesta:         Total =   -9967.167659

siesta: Atomic forces (eV/Ang):
siesta:      1   -0.023713   -4.126088    0.000000
siesta:      2    3.535760   -3.070725    0.000000
siesta:      3    3.469268    3.047291    0.000000
siesta:      4   -3.260001   -3.368036    0.000000
siesta:      5   -3.866232    3.487734    0.000000
siesta:      6    0.259173    0.091853    0.000000
siesta:      7    0.240821    4.119738    0.000000
siesta:      8    0.372218  550.781908    0.000000
siesta:      9    0.006411 -128.361649    0.000000
siesta:     10    1.500257  126.396310    0.000000
siesta:     11  -15.254499 -548.197544    0.000000
siesta:     12   -1.716626  126.548584    0.000000
siesta:     13   15.305267 -548.013804    0.000000
siesta:     14   26.757187    5.605234    0.000000
siesta:     15   33.526640 -548.869129    0.000000
siesta:     16    2.296129    0.320486    0.000000
siesta:     17   -2.532791    1.946712    0.000000
siesta:     18    2.520305    1.443424    0.000000
siesta:     19   -1.233556    0.617616    0.000000
siesta:     20  -26.785296    5.697573    0.000000
siesta:     21  -33.244124 -548.802853    0.000000
siesta:     22   15.006492  548.034094    0.000000
siesta:     23   -1.618398 -126.448985    0.000000
siesta:     24   33.338048  548.773570    0.000000
siesta:     25   26.799023   -5.486037    0.000000
siesta:     26   -2.529540   -2.029994    0.000000
siesta:     27    2.131161   -0.313473    0.000000
siesta:     28   -1.089019   -0.568539    0.000000
siesta:     29    2.439015   -1.498903    0.000000
siesta:     30   -0.259453    7.266566    0.000000
siesta:     31   -0.257830   -7.260258    0.000000
siesta:     32  -15.500056  547.782803    0.000000
siesta:     33    1.586259 -126.442731    0.000000
siesta:     34    0.179519  542.745498    0.000000
siesta:     35   -0.142281 -125.728416    0.000000
siesta:     36   23.184911  557.243109    0.000000
siesta:     37   21.135876   -5.467173    0.000000
siesta:     38   -0.478074    2.261395    0.000000
siesta:     39    2.652801   -1.810571    0.000000
siesta:     40    0.116677    0.050704    0.000000
siesta:     41    0.105344   -0.029509    0.000000
siesta:     42  -33.581008  548.891450    0.000000
siesta:     43  -26.932885   -5.632684    0.000000
siesta:     44  -22.609939  557.371675    0.000000
siesta:     45  -21.309287   -5.343147    0.000000
siesta:     46   -0.028587  562.209757    0.000000
siesta:     47    2.565450   -1.969010    0.000000
siesta:     48   -2.355282   -0.436169    0.000000
siesta:     49    0.950731    1.967882    0.000000
siesta:     50   -3.218343   -1.614933    0.000000
siesta:     51    1.402396   -0.454788    0.000000
siesta:     52   -2.631922   -1.671079    0.000000
siesta:     53    0.061143   -3.710414    0.000000
siesta:     54    0.035125    6.862742    0.000000
siesta:     55    0.597367   -7.221243    0.000000
siesta:     56   -6.683687    4.034924    0.000000
siesta:     57    1.580042   -0.054013    0.000000
siesta:     58    2.669192    1.819548    0.000000
siesta:     59   -0.680596   -2.259524    0.000000
siesta:     60   -0.498902 -562.555241    0.000000
siesta:     61    0.360238    3.496178    0.000000
siesta:     62    0.891244   -2.156232    0.000000
siesta:     63   21.226256    5.553526    0.000000
siesta:     64   23.241735 -557.310339    0.000000
siesta:     65  -21.156880    5.633208    0.000000
siesta:     66  -22.918050 -557.109645    0.000000
siesta:     67   -2.083338    1.011479    0.000000
siesta:     68    2.432002    1.641661    0.000000
siesta:     69    0.120959  125.593097    0.000000
siesta:     70   -0.039115 -542.676930    0.000000
siesta:     71   -0.251060  128.365060    0.000000
siesta:     72   -0.073620 -550.678415    0.000000
siesta: ----------------------------------------
siesta:    Tot   -0.245546   -0.033835    0.000000

siesta: Stress tensor (static) (eV/Ang**3):
siesta:    -0.479814   -0.000624    0.000000
siesta:    -0.000624   -1.798356    0.000000
siesta:     0.000000    0.000000   -0.000244

siesta: Cell volume =       1893.226884 Ang**3

siesta: Pressure (static):
siesta:                Solid            Molecule  Units
siesta:           0.00827161          0.12582061  Ry/Bohr**3
siesta:           0.75947155         11.55242011  eV/Ang**3
siesta:        1216.82071683      18509.21763253  kBar
(Free)E+ p_basis*V_orbitals  =       -9934.280880
(Free)Eharris+ p_basis*V_orbitals  =       -9934.249011

siesta: Electric dipole (a.u.)  =    0.000000    0.000000    0.000000
siesta: Electric dipole (Debye) =    0.000000    0.000000    0.000000

* Maximum dynamic memory allocated : Node    0 =   222 MB
* Maximum dynamic memory allocated : Node    1 =    77 MB
* Maximum dynamic memory allocated : Node    2 =    80 MB
* Maximum dynamic memory allocated : Node    3 =   210 MB
* Maximum dynamic memory allocated : Node    4 =   212 MB
* Maximum dynamic memory allocated : Node    5 =    76 MB
* Maximum dynamic memory allocated : Node    6 =    79 MB
* Maximum dynamic memory allocated : Node    7 =   195 MB

* Maximum memory occured during matrixMtoO                    

timer: CPU execution times:
timer:  Routine       Calls   Time/call    Tot.time        %
timer:  siesta            1  149722.018  149722.018   100.00
timer:  Setup             1       3.037       3.037     0.00
timer:  bands             3     268.715     806.146     0.54
timer:  writewave         1       0.021       0.021     0.00
timer:  KSV_init          1       0.000       0.000     0.00
timer:  IterMD            1  148906.961  148906.961    99.46
timer:  hsparse           1       0.393       0.393     0.00
timer:  overlap           1       5.969       5.969     0.00
timer:  IterSCF          35    4248.707  148704.738    99.32
timer:  kinefsm           2       3.132       6.263     0.00
timer:  nlefsm            2      20.032      40.065     0.03
timer:  DHSCF            36     105.186    3786.687     2.53
timer:  DHSCF1            1       0.993       0.993     0.00
timer:  DHSCF2            1      42.442      42.442     0.03
timer:  REORD           290       0.010       2.926     0.00
timer:  POISON           37       2.251      83.273     0.06
timer:  DHSCF3           36     102.881    3703.725     2.47
timer:  rhoofd           36      21.716     781.764     0.52
timer:  cellXC           36       3.464     124.707     0.08
timer:  vmat             36      49.876    1795.552     1.20
timer:  MolMec            2       0.000       0.000     0.00
timer:  diagon           35    4142.413  144984.461    96.84
timer:  c-eigval       8206       6.661   54656.559    36.51
timer:  c-buildHS      8206       0.118     966.644     0.65
timer:  cdiag         16291       6.843  111474.616    74.45
timer:  cdiag1        16291       0.429    6981.014     4.66
timer:  cdiag2        16291       1.902   30987.622    20.70
timer:  cdiag3        16291       3.936   64115.736    42.82
timer:  cdiag4        16291       0.203    3301.542     2.21
timer:  c-eigvec       8085       7.218   58356.785    38.98
timer:  c-buildD       8085       4.048   32731.988    21.86
timer:  DHSCF4            1      37.648      37.648     0.03
timer:  dfscf             1      35.100      35.100     0.02
timer:  overfsm           1       0.447       0.447     0.00
timer:  optical           1       5.121       5.121     0.00
  

elaps: ELAPSED times:
elaps:  Routine       Calls   Time/call    Tot.time        %
elaps:  siesta            1   18736.330   18736.330   100.00
elaps:  Setup             1       0.381       0.381     0.00
elaps:  bands             3      33.641     100.923     0.54
elaps:  writewave         1       0.002       0.002     0.00
elaps:  KSV_init          1       0.000       0.000     0.00
elaps:  IterMD            1   18634.352   18634.352    99.46
elaps:  hsparse           1       0.047       0.047     0.00
elaps:  overlap           1       0.983       0.983     0.01
elaps:  IterSCF          35     531.687   18609.054    99.32
elaps:  kinefsm           2       0.508       1.015     0.01
elaps:  nlefsm            2       2.530       5.060     0.03
elaps:  DHSCF            36      13.286     478.289     2.55
elaps:  DHSCF1            1       0.129       0.129     0.00
elaps:  DHSCF2            1       5.308       5.308     0.03
elaps:  REORD           290       0.001       0.380     0.00
elaps:  POISON           37       0.282      10.449     0.06
elaps:  DHSCF3           36      12.871     463.371     2.47
elaps:  rhoofd           36       5.688     204.751     1.09
elaps:  cellXC           36       0.433      15.571     0.08
elaps:  vmat             36       6.240     224.630     1.20
elaps:  MolMec            2       0.000       0.000     0.00
elaps:  diagon           35     518.410   18144.359    96.84
elaps:  c-eigval       8206       0.833    6838.486    36.50
elaps:  c-buildHS      8206       0.016     133.520     0.71
elaps:  cdiag         16291       0.843   13740.588    73.34
elaps:  cdiag1        16291       0.053     862.818     4.61
elaps:  cdiag2        16291       0.238    3877.266    20.69
elaps:  cdiag3        16291       0.493    8033.327    42.88
elaps:  cdiag4        16291       0.026     417.931     2.23
elaps:  c-eigvec       8085       0.882    7133.361    38.07
elaps:  c-buildD       8085       0.528    4266.175    22.77
elaps:  DHSCF4            1       9.223       9.223     0.05
elaps:  dfscf             1       8.713       8.713     0.05
elaps:  overfsm           1       0.058       0.058     0.00
elaps:  optical           1       0.000       0.000     0.00
  
>> End of run:  15-APR-2016   3:03:11
