Siesta Version:                                        siesta-3.2-pl-3
Architecture  : x86_64-unknown-linux-gnu--unknown
Compiler flags: mpiifort -g -O2 -fPIC -xSSE4.1 -fp-model source -shared-intel 
PARALLEL version

* Running on   12 nodes in parallel
>> Start of run:   5-MAY-2016   6:46:03

                           ***********************       
                           *  WELCOME TO SIESTA  *       
                           ***********************       

reinit: Reading from standard input
************************** Dump of input data file ****************************
#(1) General system descriptors
SystemName            GRP_doping    # Descriptive name of the system
SystemLabel           GRP_doping    # Short name for naming files
%include STRUCT.fdf
%include KPT.fdf
%include BASIS.fdf
#%include TS.fdf # for transiesta calculation
#(4) DFT, Grid, SCF
XC.functional         GGA           # LDA or GGA (default = LDA)
XC.authors            PBE           # CA (Ceperley-Aldr) = PZ
                                    #    (Perdew-Zunger) - LDA - Default
                                    # PW92 (Perdew-Wang-92) - LDA
                                    # PBE (Perdew-Burke-Ernzerhof) - GGA
MeshCutoff            200.000000    Ry      # Default: 50.0 Ry ~ 0.444 Bohr
                                    #         100.0 Ry ~ 0.314 Bohr
MaxSCFIterations      500           # Default: 50
DM.MixingWeight       0.05          # Default: 0.25
DM.NumberPulay        10            # Default: 0
DM.PulayOnFile        F             # SystemLabel.P1, SystemLabel.P2
DM.Tolerance          1.d-4         # Default: 1.d-4
DM.UseSaveDM          .true.        # because of the bug
SCFMustConverge       .true.
NeglNonOverlapInt     F             # Default: F
#(5) Eigenvalue problem: order-N or diagonalization
SolutionMethod        Diagon        # or Transiesta
ElectronicTemperature 300.0 K       # Default: 300.0 K
#(6) Molecular dynamics and relaxations
#MD.TypeOfRun          CG            # Type of dynamics:
#MD.VariableCell       F
#MD.NumCGsteps         0           # 0 for single-point / 100 for gopt
#MD.MaxCGDispl         0.2 Bohr      # Default: 0.2 Bohr
#MD.MaxForceTol        0.02 eV/Ang   # Default: 0.04 eV/Ang
#MD.MaxStressTol       1.0 GPa       # Default: 1.0 GPa
# Geometry Constraints
#%block GeometryConstraints
#	position from 1 to 44
#%endblock GeometryConstraints
BandLinesScale   pi/a
%block BandLines
 1   0.00000000  0.00000000  0.00000000
50   0.00000000  0.07809418  0.00000000
50   0.04509075  0.07809242  0.00000000
20   0.00000000  0.00000000  0.00000000
%endblock BandLines
************************** End of input data file *****************************

reinit: -----------------------------------------------------------------------
reinit: System Name: GRP_doping
reinit: -----------------------------------------------------------------------
reinit: System Label: GRP_doping                                                  
reinit: -----------------------------------------------------------------------

initatom: Reading input for the pseudopotentials and atomic orbitals ----------
 Species number:            1  Label: B Atomic number:           5
 Species number:            2  Label: C Atomic number:           6
Ground state valence configuration:   2s02  2p01
Reading pseudopotential information in formatted form from B.psf

Valence configuration for pseudopotential generation:
2s( 2.00) rc: 1.74
2p( 1.00) rc: 1.74
3d( 0.00) rc: 1.74
4f( 0.00) rc: 1.74
Ground state valence configuration:   2s02  2p02
Reading pseudopotential information in formatted form from C.psf

Valence configuration for pseudopotential generation:
2s( 2.00) rc: 1.54
2p( 2.00) rc: 1.54
3d( 0.00) rc: 1.54
4f( 0.00) rc: 1.54
For B, standard SIESTA heuristics set lmxkb to 3
 (one more than the basis l, including polarization orbitals).
Use PS.lmax or PS.KBprojectors blocks to override.
For C, standard SIESTA heuristics set lmxkb to 3
 (one more than the basis l, including polarization orbitals).
Use PS.lmax or PS.KBprojectors blocks to override.

<basis_specs>
===============================================================================
B                    Z=   5    Mass=  10.810        Charge= 0.17977+309
Lmxo=1 Lmxkb= 3    BasisType=split      Semic=F
L=0  Nsemic=0  Cnfigmx=2
          n=1  nzeta=2  polorb=0
            splnorm:   0.15000    
               vcte:    0.0000    
               rinn:    0.0000    
                rcs:    0.0000      0.0000    
            lambdas:    1.0000      1.0000    
L=1  Nsemic=0  Cnfigmx=2
          n=1  nzeta=2  polorb=1
            splnorm:   0.15000    
               vcte:    0.0000    
               rinn:    0.0000    
                rcs:    0.0000      0.0000    
            lambdas:    1.0000      1.0000    
-------------------------------------------------------------------------------
L=0  Nkbl=1  erefs: 0.17977+309
L=1  Nkbl=1  erefs: 0.17977+309
L=2  Nkbl=1  erefs: 0.17977+309
L=3  Nkbl=1  erefs: 0.17977+309
===============================================================================
</basis_specs>

atom: Called for B                     (Z =   5)

read_vps: Pseudopotential generation method:
read_vps: ATM3      Troullier-Martins                       
Total valence charge:    3.00000

read_vps: Pseudopotential includes a core correction:
read_vps: Pseudo-core for xc-correction

xc_check: Exchange-correlation functional:
xc_check: GGA Perdew, Burke & Ernzerhof 1996
V l=0 = -2*Zval/r beyond r=  1.7165
V l=1 = -2*Zval/r beyond r=  1.7165
V l=2 = -2*Zval/r beyond r=  1.7165
V l=3 = -2*Zval/r beyond r=  1.6951
All V_l potentials equal beyond r=  1.7165
This should be close to max(r_c) in ps generation
All pots = -2*Zval/r beyond r=  1.7165

VLOCAL1: 99.0% of the norm of Vloc inside     14.733 Ry
VLOCAL1: 99.9% of the norm of Vloc inside     33.577 Ry
atom: Maximum radius for 4*pi*r*r*local-pseudopot. charge    2.04484
atom: Maximum radius for r*vlocal+2*Zval:    1.75994
GHOST: No ghost state for L =  0
GHOST: No ghost state for L =  1
GHOST: No ghost state for L =  2
GHOST: No ghost state for L =  3

KBgen: Kleinman-Bylander projectors: 
   l= 0   rc=  1.897051   el= -0.693730   Ekb=  4.595746   kbcos=  0.286105
   l= 1   rc=  1.920920   el= -0.265236   Ekb= -2.350715   kbcos= -0.315747
   l= 2   rc=  2.044840   el=  0.002055   Ekb= -0.690767   kbcos= -0.013822
   l= 3   rc=  2.149707   el=  0.003188   Ekb= -0.315358   kbcos= -0.002055

KBgen: Total number of  Kleinman-Bylander projectors:   16
atom: -------------------------------------------------------------------------

atom: SANKEY-TYPE ORBITALS:
atom: Selected multiple-zeta basis: split     

SPLIT: Orbitals with angular momentum L= 0

SPLIT: Basis orbitals for state 2s

SPLIT: PAO cut-off radius determined from an
SPLIT: energy shift=  0.007350 Ry

   izeta = 1
                 lambda =    1.000000
                     rc =    5.422032
                 energy =   -0.686029
                kinetic =    0.576707
    potential(screened) =   -1.262736
       potential(ionic) =   -3.271094

   izeta = 2
                 rmatch =    4.222573
              splitnorm =    0.150000
                 energy =   -0.602132
                kinetic =    0.858975
    potential(screened) =   -1.461107
       potential(ionic) =   -3.582536

SPLIT: Orbitals with angular momentum L= 1

SPLIT: Basis orbitals for state 2p

SPLIT: PAO cut-off radius determined from an
SPLIT: energy shift=  0.007350 Ry

   izeta = 1
                 lambda =    1.000000
                     rc =    6.790259
                 energy =   -0.258578
                kinetic =    1.481412
    potential(screened) =   -1.739989
       potential(ionic) =   -3.657461

   izeta = 2
                 rmatch =    4.608740
              splitnorm =    0.150000
                 energy =   -0.173757
                kinetic =    2.186690
    potential(screened) =   -2.360447
       potential(ionic) =   -4.464260

POLgen: Perturbative polarization orbital with L=  2

POLgen: Polarization orbital for state 2p

   izeta = 1
                     rc =    6.790259
                 energy =    0.684082
                kinetic =    1.471481
    potential(screened) =   -0.787399
       potential(ionic) =   -2.406985
atom: Total number of Sankey-type orbitals: 13

atm_pop: Valence configuration (for local Pseudopot. screening):
 2s( 2.00)                                                            
 2p( 1.00)                                                            
Vna: chval, zval:    3.00000   3.00000

Vna:  Cut-off radius for the neutral-atom potential:   6.790259
comcore: Pseudo-core radius Rcore=  2.122997

atom: _________________________________________________________________________

<basis_specs>
===============================================================================
C                    Z=   6    Mass=  12.010        Charge= 0.17977+309
Lmxo=1 Lmxkb= 3    BasisType=split      Semic=F
L=0  Nsemic=0  Cnfigmx=2
          n=1  nzeta=2  polorb=0
            splnorm:   0.15000    
               vcte:    0.0000    
               rinn:    0.0000    
                rcs:    0.0000      0.0000    
            lambdas:    1.0000      1.0000    
L=1  Nsemic=0  Cnfigmx=2
          n=1  nzeta=2  polorb=1
            splnorm:   0.15000    
               vcte:    0.0000    
               rinn:    0.0000    
                rcs:    0.0000      0.0000    
            lambdas:    1.0000      1.0000    
-------------------------------------------------------------------------------
L=0  Nkbl=1  erefs: 0.17977+309
L=1  Nkbl=1  erefs: 0.17977+309
L=2  Nkbl=1  erefs: 0.17977+309
L=3  Nkbl=1  erefs: 0.17977+309
===============================================================================
</basis_specs>

atom: Called for C                     (Z =   6)

read_vps: Pseudopotential generation method:
read_vps: ATM3      Troullier-Martins                       
Total valence charge:    4.00000

read_vps: Pseudopotential includes a core correction:
read_vps: Pseudo-core for xc-correction

xc_check: Exchange-correlation functional:
xc_check: GGA Perdew, Burke & Ernzerhof 1996
V l=0 = -2*Zval/r beyond r=  1.5227
V l=1 = -2*Zval/r beyond r=  1.5227
V l=2 = -2*Zval/r beyond r=  1.5227
V l=3 = -2*Zval/r beyond r=  1.5038
All V_l potentials equal beyond r=  1.5227
This should be close to max(r_c) in ps generation
All pots = -2*Zval/r beyond r=  1.5227

VLOCAL1: 99.0% of the norm of Vloc inside     18.722 Ry
VLOCAL1: 99.9% of the norm of Vloc inside     42.668 Ry
atom: Maximum radius for 4*pi*r*r*local-pseudopot. charge    1.83678
atom: Maximum radius for r*vlocal+2*Zval:    1.58088
GHOST: No ghost state for L =  0
GHOST: No ghost state for L =  1
GHOST: No ghost state for L =  2
GHOST: No ghost state for L =  3

KBgen: Kleinman-Bylander projectors: 
   l= 0   rc=  1.704034   el= -1.009801   Ekb=  5.335044   kbcos=  0.316824
   l= 1   rc=  1.704034   el= -0.388707   Ekb= -3.785862   kbcos= -0.366464
   l= 2   rc=  1.791422   el=  0.001971   Ekb= -0.970471   kbcos= -0.009212
   l= 3   rc=  1.859892   el=  0.003065   Ekb= -0.399525   kbcos= -0.001223

KBgen: Total number of  Kleinman-Bylander projectors:   16
atom: -------------------------------------------------------------------------

atom: SANKEY-TYPE ORBITALS:
atom: Selected multiple-zeta basis: split     

SPLIT: Orbitals with angular momentum L= 0

SPLIT: Basis orbitals for state 2s

SPLIT: PAO cut-off radius determined from an
SPLIT: energy shift=  0.007350 Ry

   izeta = 1
                 lambda =    1.000000
                     rc =    4.632753
                 energy =   -1.002270
                kinetic =    0.855760
    potential(screened) =   -1.858031
       potential(ionic) =   -5.417575

   izeta = 2
                 rmatch =    3.431921
              splitnorm =    0.150000
                 energy =   -0.867111
                kinetic =    1.300804
    potential(screened) =   -2.167915
       potential(ionic) =   -5.962684

SPLIT: Orbitals with angular momentum L= 1

SPLIT: Basis orbitals for state 2p

SPLIT: PAO cut-off radius determined from an
SPLIT: energy shift=  0.007350 Ry

   izeta = 1
                 lambda =    1.000000
                     rc =    5.658549
                 energy =   -0.381140
                kinetic =    2.399701
    potential(screened) =   -2.780841
       potential(ionic) =   -6.206085

   izeta = 2
                 rmatch =    3.653288
              splitnorm =    0.150000
                 energy =   -0.249149
                kinetic =    3.542762
    potential(screened) =   -3.791911
       potential(ionic) =   -7.581078

POLgen: Perturbative polarization orbital with L=  2

POLgen: Polarization orbital for state 2p

   izeta = 1
                     rc =    5.658549
                 energy =    1.109913
                kinetic =    2.304789
    potential(screened) =   -1.194876
       potential(ionic) =   -4.013592
atom: Total number of Sankey-type orbitals: 13

atm_pop: Valence configuration (for local Pseudopot. screening):
 2s( 2.00)                                                            
 2p( 2.00)                                                            
Vna: chval, zval:    4.00000   4.00000

Vna:  Cut-off radius for the neutral-atom potential:   5.658549
comcore: Pseudo-core radius Rcore=  1.791422

atom: _________________________________________________________________________

prinput: Basis input ----------------------------------------------------------

PAO.BasisType split     

%block ChemicalSpeciesLabel
    1    5 B                       # Species index, atomic number, species label
    2    6 C                       # Species index, atomic number, species label
%endblock ChemicalSpeciesLabel

%block PAO.Basis                 # Define Basis set
B                     2                    # Species label, number of l-shells
 n=2   0   2                         # n, l, Nzeta 
   5.422      4.223   
   1.000      1.000   
 n=2   1   2 P   1                   # n, l, Nzeta, Polarization, NzetaPol
   6.790      4.609   
   1.000      1.000   
C                     2                    # Species label, number of l-shells
 n=2   0   2                         # n, l, Nzeta 
   4.633      3.432   
   1.000      1.000   
 n=2   1   2 P   1                   # n, l, Nzeta, Polarization, NzetaPol
   5.659      3.653   
   1.000      1.000   
%endblock PAO.Basis

prinput: ----------------------------------------------------------------------

coor:   Atomic-coordinates input format  =     Fractional

siesta: Atomic coordinates (Bohr) and species
siesta:     -2.35420  17.38257   0.00000  1        1
siesta:     -0.02582  18.72698   0.00000  1        2
siesta:     -0.02582  21.41544   0.00000  1        3
siesta:      2.30256  25.44831   0.00000  1        4
siesta:     -4.68258  18.72698   0.00000  1        5
siesta:     -4.68258  21.41544   0.00000  1        6
siesta:     -2.35420  22.75985   0.00000  1        7
siesta:      4.63094  26.79272   0.00000  1        8
siesta:      4.63094  29.48119   0.00000  1        9
siesta:     -0.02582  26.79272   0.00000  1       10
siesta:     -0.02582  29.48119   0.00000  1       11
siesta:      2.30256  30.82560   0.00000  1       12
siesta:     -0.02582   2.59549   0.00000  2       13
siesta:     -0.02582   5.28395   0.00000  2       14
siesta:     -2.35420  38.89134   0.00000  2       15
siesta:     -2.35420  41.57980   0.00000  2       16
siesta:      2.30256  38.89134   0.00000  2       17
siesta:      2.30256  41.57980   0.00000  2       18
siesta:      4.63094  34.85847   0.00000  2       19
siesta:      4.63094  37.54693   0.00000  2       20
siesta:      6.95932  30.82560   0.00000  2       21
siesta:      6.95932  33.51406   0.00000  2       22
siesta:      9.28770  26.79272   0.00000  2       23
siesta:      9.28770  29.48119   0.00000  2       24
siesta:     -4.68258  34.85847   0.00000  2       25
siesta:     -4.68258  37.54693   0.00000  2       26
siesta:      2.30256   6.62836   0.00000  2       27
siesta:      2.30256   9.31683   0.00000  2       28
siesta:      4.63094  10.66124   0.00000  2       29
siesta:      4.63094  13.34970   0.00000  2       30
siesta:      6.95932  14.69411   0.00000  2       31
siesta:      6.95932  17.38257   0.00000  2       32
siesta:      9.28770  18.72698   0.00000  2       33
siesta:      9.28770  21.41544   0.00000  2       34
siesta:     11.61608  22.75985   0.00000  2       35
siesta:     11.61608  25.44831   0.00000  2       36
siesta:     -2.35420   6.62836   0.00000  2       37
siesta:     -2.35420   9.31683   0.00000  2       38
siesta:     -0.02582  10.66124   0.00000  2       39
siesta:     -0.02582  13.34970   0.00000  2       40
siesta:      2.30256  14.69411   0.00000  2       41
siesta:      2.30256  17.38257   0.00000  2       42
siesta:      4.63094  18.72698   0.00000  2       43
siesta:      4.63094  21.41544   0.00000  2       44
siesta:      6.95932  22.75985   0.00000  2       45
siesta:      6.95932  25.44831   0.00000  2       46
siesta:     -4.68258  10.66124   0.00000  2       47
siesta:     -4.68258  13.34970   0.00000  2       48
siesta:     -2.35420  14.69411   0.00000  2       49
siesta:      2.30256  22.75985   0.00000  2       50
siesta:     -7.01096  14.69411   0.00000  2       51
siesta:     -7.01096  17.38257   0.00000  2       52
siesta:     -2.35420  25.44831   0.00000  2       53
siesta:     -9.33934  18.72698   0.00000  2       54
siesta:     -9.33934  21.41544   0.00000  2       55
siesta:     -7.01096  22.75985   0.00000  2       56
siesta:     -7.01096  25.44831   0.00000  2       57
siesta:    -11.66772  22.75985   0.00000  2       58
siesta:    -11.66772  25.44831   0.00000  2       59
siesta:     -9.33934  26.79272   0.00000  2       60
siesta:     -9.33934  29.48119   0.00000  2       61
siesta:     -4.68258  26.79272   0.00000  2       62
siesta:     -4.68258  29.48119   0.00000  2       63
siesta:      2.30256  33.51406   0.00000  2       64
siesta:     -2.35420  30.82560   0.00000  2       65
siesta:     -2.35420  33.51406   0.00000  2       66
siesta:     -7.01096  30.82560   0.00000  2       67
siesta:     -7.01096  33.51406   0.00000  2       68
siesta:     -0.02582  34.85847   0.00000  2       69
siesta:     -0.02582  37.54693   0.00000  2       70
siesta:     -0.02582  42.92421   0.00000  2       71
siesta:     -0.02582  45.61267   0.00000  2       72

siesta: System type = slab      

initatomlists: Number of atoms, orbitals, and projectors:     72   936  1152

siesta: ******************** Simulation parameters ****************************
siesta:
siesta: The following are some of the parameters of the simulation.
siesta: A complete list of the parameters used, including default values,
siesta: can be found in file out.fdf
siesta:
redata: Non-Collinear-spin run           =     F
redata: SpinPolarized (Up/Down) run      =     F
redata: Number of spin components        =     1
redata: Long output                      =     F
redata: Number of Atomic Species         =        2
redata: Charge density info will appear in .RHO file
redata: Write Mulliken Pop.              =     NO
redata: Mesh Cutoff                      =   200.0000  Ry
redata: Net charge of the system         =     0.0000 |e|
redata: Max. number of SCF Iter          =      500
redata: SCF convergence failure will abort job
redata: Performing Pulay mixing using    =    10 iterations
redata: Mix DM in first SCF step ?       =     F
redata: Write Pulay info on disk?        =     F
redata: Discard 1st Pulay DM after  kick =     F
redata: New DM Mixing Weight             =     0.0500
redata: New DM Occupancy tolerance       = 0.000000000001
redata: No kicks to SCF
redata: DM Mixing Weight for Kicks       =     0.5000
redata: DM Tolerance for SCF             =     0.000100
redata: Require Energy convergence for SCF =     F
redata: DM Energy tolerance for SCF      =     0.000100 eV
redata: Require Harris convergence for SCF =     F
redata: DM Harris energy tolerance for SCF =     0.000100 eV
redata: Using Saved Data (generic)   =     F
redata: Use continuation files for DM    =     T
redata: Neglect nonoverlap interactions  =     F
redata: Method of Calculation            =     Diagonalization
redata: Divide and Conquer               =     T
redata: Electronic Temperature           =     0.0019  Ry
redata: Fix the spin of the system       =     F
redata: Dynamics option                  =     Verlet MD run
redata: Initial MD time step             =        1
redata:   Final MD time step             =        1
redata: Length of MD time step           =     1.0000  fs
redata: Initial Temperature of MD run    =     0.0000  K
redata: Perform a MD quench              =     F
redata: ***********************************************************************
Total number of electrons:   276.000000
Total ionic charge:   276.000000

* ProcessorY, Blocksize:    3  24

k-point displ. along   1 input, could be:     0.50    0.00
k-point displ. along   2 input, could be:     0.50    0.00
 Kpoints in:          231 . Kpoints trimmed:          231

siesta: k-grid: Number of k-points =   231
siesta: k-grid: Cutoff (effective) =     5.000 Ang
siesta: k-grid: Supercell and displacements
siesta: k-grid:   21   0   0      0.500
siesta: k-grid:    0  21   0      0.500
siesta: k-grid:    0   0   1      0.000
Naive supercell factors:     2    2    2

superc: Internal auxiliary supercell:     2 x     2 x     2  =       8
superc: Number of atoms, orbitals, and projectors:    576   7488   9216

* Maximum dynamic memory allocated =     4 MB

siesta:                 ==============================
                            Begin MD step =      1
                        ==============================

superc: Internal auxiliary supercell:     2 x     2 x     2  =       8
superc: Number of atoms, orbitals, and projectors:    576   7488   9216

outcell: Unit cell vectors (Ang):
       12.804619    7.392750    0.000000
        0.000000   14.785500    0.000000
        0.000000    0.000000   10.000000

outcell: Cell vector modules (Ang)   :   14.785500   14.785500   10.000000
outcell: Cell angles (23,13,12) (deg):     90.0000     90.0000     60.0000
outcell: Cell volume (Ang**3)        :   1893.2269
New_DM. Step:     1
Initializing Density Matrix...

InitMesh: MESH =   120 x   120 x    90 =     1296000
InitMesh: Mesh cutoff (required, used) =   200.000   223.865 Ry

* Maximum dynamic memory allocated =   150 MB

stepf: Fermi-Dirac step function

siesta: Program's energy decomposition (eV):
siesta: Ebs     =     -5675.562596
siesta: Eions   =     16866.330537
siesta: Ena     =      4424.340873
siesta: Ekin    =      5745.320513
siesta: Enl     =       730.069864
siesta: DEna    =        -0.000011
siesta: DUscf   =         0.000000
siesta: DUext   =         0.000000
siesta: Exc     =     -4189.296037
siesta: eta*DQ  =         0.000000
siesta: Emadel  =         0.000000
siesta: Emeta   =         0.000000
siesta: Emolmec =         0.000000
siesta: Ekinion =         0.000000
siesta: Eharris =     -9860.909311
siesta: Etot    =    -10155.895335
siesta: FreeEng =    -10155.895335

siesta: iscf   Eharris(eV)      E_KS(eV)   FreeEng(eV)   dDmax  Ef(eV)
siesta:    1    -9860.9093   -10155.8953   -10155.8953  6.3900 -8.0991
timer: Routine,Calls,Time,% = IterSCF        1    3035.558  99.59
elaps: Routine,Calls,Wall,% = IterSCF        1     253.575  99.59
siesta:    2   -14468.4391    -9157.9950    -9158.0578 18.4695 -2.7298
siesta:    3    -9800.7773   -10015.4424   -10015.4946  3.4426 -7.1112
siesta:    4    -9778.8268    -9852.6420    -9852.6438  1.1282 -5.7248
siesta:    5    -9738.2618    -9778.1371    -9778.1765  0.7902 -5.5419
siesta:    6    -9721.5310    -9748.6641    -9748.6862  0.7545 -5.3811
siesta:    7    -9717.7964    -9741.5436    -9741.5849  0.7648 -5.3620
siesta:    8    -9712.3252    -9720.1178    -9720.1644  0.6354 -5.2728
siesta:    9    -9711.6722    -9714.2139    -9714.2618  0.6050 -5.2254
siesta:   10    -9710.8111    -9699.5119    -9699.5675  0.3737 -5.0663
siesta:   11    -9710.6051    -9690.8238    -9690.8670  0.1947 -5.0177
siesta:   12    -9710.7023    -9685.2607    -9685.2912  0.1738 -4.9748
siesta:   13    -9710.1188    -9684.9005    -9684.9404  0.1555 -4.9468
siesta:   14    -9709.7732    -9691.9488    -9691.9847  0.1229 -4.9908
siesta:   15    -9709.4866    -9694.6948    -9694.7469  0.0878 -5.0066
siesta:   16    -9709.2979    -9699.7132    -9699.7513  0.0323 -5.0449
siesta:   17    -9709.2793    -9702.1009    -9702.1500  0.0312 -5.0479
siesta:   18    -9709.2625    -9704.5835    -9704.6334  0.0272 -5.0584
siesta:   19    -9709.2566    -9706.2826    -9706.3307  0.0229 -5.0527
siesta:   20    -9709.2465    -9708.0114    -9708.0564  0.0155 -5.0516
siesta:   21    -9709.2451    -9708.6917    -9708.7385  0.0129 -5.0519
siesta:   22    -9709.2411    -9709.6681    -9709.7136  0.0094 -5.0483
siesta:   23    -9709.2413    -9709.8717    -9709.9181  0.0078 -5.0449
siesta:   24    -9709.2402    -9709.9650    -9710.0112  0.0071 -5.0428
siesta:   25    -9709.2401    -9709.6733    -9709.7195  0.0069 -5.0413
siesta:   26    -9709.2399    -9709.4944    -9709.5404  0.0060 -5.0409
siesta:   27    -9709.2395    -9709.3581    -9709.4041  0.0014 -5.0426
siesta:   28    -9709.2396    -9709.3379    -9709.3841  0.0008 -5.0427
siesta:   29    -9709.2395    -9709.3089    -9709.3550  0.0004 -5.0426
siesta:   30    -9709.2395    -9709.3055    -9709.3516  0.0003 -5.0423
siesta:   31    -9709.2395    -9709.3027    -9709.3488  0.0002 -5.0424
siesta:   32    -9709.2395    -9709.2815    -9709.3276  0.0002 -5.0425
siesta:   33    -9709.2395    -9709.2674    -9709.3135  0.0001 -5.0425
siesta:   34    -9709.2395    -9709.2545    -9709.3007  0.0001 -5.0425
siesta:   35    -9709.2395    -9709.2442    -9709.2903  0.0001 -5.0426

siesta: E_KS(eV) =            -9709.2404

siesta: E_KS - E_eggbox =     -9709.2404

siesta: Atomic forces (eV/Ang):
----------------------------------------
   Tot   -0.090226   -0.067081    0.000000
----------------------------------------
   Max  557.495644
   Res  153.024924    sqrt( Sum f_i^2 / 3N )
----------------------------------------
   Max  557.495644    constrained

Stress-tensor-Voigt (kbar):     -792.18    -2748.77       -0.50       -6.24        0.00        0.00
(Free)E + p*V (eV/cell)    -8314.3735
Target enthalpy (eV/cell)    -9709.2865

siesta: Stress tensor (static) (eV/Ang**3):
        -0.494432   -0.003894    0.000000
        -0.003894   -1.715629    0.000000
         0.000000    0.000000   -0.000313

siesta: Pressure (static):       1180.48253217  kBar

siesta: Stress tensor (total) (eV/Ang**3):
        -0.494432   -0.003894    0.000000
        -0.003894   -1.715629    0.000000
         0.000000    0.000000   -0.000313

siesta: Pressure (total):       1180.48253217  kBar

siesta: Temp_ion =       0.000 K

* Maximum dynamic memory allocated =   162 MB
Computing bands...

siesta: Program's energy decomposition (eV):
siesta: Ebs     =     -4324.331941
siesta: Eions   =     16866.330537
siesta: Ena     =      4424.340873
siesta: Ekin    =      8660.703237
siesta: Enl     =      -883.573232
siesta: DEna    =      -789.016553
siesta: DUscf   =       105.343442
siesta: DUext   =         0.000000
siesta: Exc     =     -4360.707633
siesta: eta*DQ  =         0.000000
siesta: Emadel  =         0.000000
siesta: Emeta   =         0.000000
siesta: Emolmec =         0.000000
siesta: Ekinion =         0.000000
siesta: Eharris =     -9709.239512
siesta: Etot    =     -9709.240403
siesta: FreeEng =     -9709.286509

siesta: Final energy (eV):
siesta:  Band Struct. =   -4324.331941
siesta:       Kinetic =    8660.703237
siesta:       Hartree =   28333.760409
siesta:    Ext. field =       0.000000
siesta:   Exch.-corr. =   -4360.707633
siesta:  Ion-electron =  -65011.042371
siesta:       Ion-ion =   22668.045955
siesta:       Ekinion =       0.000000
siesta:         Total =   -9709.240403

siesta: Atomic forces (eV/Ang):
siesta:      1  -15.521221   -3.142040    0.000000
siesta:      2    1.105396  407.998600    0.000000
siesta:      3    3.725639    1.217337    0.000000
siesta:      4   -0.758909   -3.756005    0.000000
siesta:      5   -1.484593   -2.924152    0.000000
siesta:      6   -4.494177    2.281439    0.000000
siesta:      7    0.751963    3.782323    0.000000
siesta:      8    4.503110   -2.262106    0.000000
siesta:      9    1.512608    2.895435    0.000000
siesta:     10   -3.718899   -1.210002    0.000000
siesta:     11   -1.120746 -407.995256    0.000000
siesta:     12   15.537944    3.141499    0.000000
siesta:     13   -2.625229  404.440058    0.000000
siesta:     14    3.902343 -127.485801    0.000000
siesta:     15    2.401957  127.464754    0.000000
siesta:     16  -18.445954 -552.706642    0.000000
siesta:     17   -2.050097  127.336964    0.000000
siesta:     18   16.220205 -548.225671    0.000000
siesta:     19   26.448256    4.543663    0.000000
siesta:     20   33.071604 -549.588653    0.000000
siesta:     21    7.589478    1.940269    0.000000
siesta:     22   -2.966803    1.427869    0.000000
siesta:     23    2.977720    1.357143    0.000000
siesta:     24   -1.740530    0.843594    0.000000
siesta:     25  -26.686664    4.536379    0.000000
siesta:     26  -32.526441 -548.977132    0.000000
siesta:     27   18.416734  552.655180    0.000000
siesta:     28   -2.425691 -127.474252    0.000000
siesta:     29   32.509644  548.988537    0.000000
siesta:     30   26.670566   -4.555619    0.000000
siesta:     31   -2.489507   -1.977526    0.000000
siesta:     32    2.440404   -0.318655    0.000000
siesta:     33   -1.348288   -0.596284    0.000000
siesta:     34    2.764554   -1.582159    0.000000
siesta:     35   -0.334799    6.867930    0.000000
siesta:     36   -0.437689   -6.843489    0.000000
siesta:     37  -16.277685  548.271671    0.000000
siesta:     38    2.017353 -127.330329    0.000000
siesta:     39   -0.123956  547.083721    0.000000
siesta:     40   -0.976363 -126.239136    0.000000
siesta:     41   25.125779  557.479394    0.000000
siesta:     42   22.082001   -2.378210    0.000000
siesta:     43   -1.109855    1.495106    0.000000
siesta:     44   -0.361529   -0.033595    0.000000
siesta:     45    0.541975    0.740454    0.000000
siesta:     46    1.739266   -2.473661    0.000000
siesta:     47  -33.088793  549.594880    0.000000
siesta:     48  -26.472427   -4.515153    0.000000
siesta:     49  -22.501024  555.249835    0.000000
siesta:     50    4.085801   -1.685923    0.000000
siesta:     51    2.968637   -1.430829    0.000000
siesta:     52   -7.564845   -1.961997    0.000000
siesta:     53   -4.076283    1.725037    0.000000
siesta:     54    1.742660   -0.836279    0.000000
siesta:     55   -2.973903   -1.346059    0.000000
siesta:     56   -1.760179    2.490393    0.000000
siesta:     57   -0.551256   -0.747351    0.000000
siesta:     58    0.450566    6.846965    0.000000
siesta:     59    0.347478   -6.870680    0.000000
siesta:     60   -2.764366    1.573311    0.000000
siesta:     61    1.352137    0.588987    0.000000
siesta:     62    0.347849    0.034357    0.000000
siesta:     63    1.088517   -1.524596    0.000000
siesta:     64   22.492361 -555.258662    0.000000
siesta:     65  -22.118849    2.353224    0.000000
siesta:     66  -25.108793 -557.495644    0.000000
siesta:     67   -2.416907    0.326395    0.000000
siesta:     68    2.498120    1.990985    0.000000
siesta:     69    1.015648  126.206084    0.000000
siesta:     70    0.179920 -547.120202    0.000000
siesta:     71   -3.898928  127.467625    0.000000
siesta:     72    2.605760 -404.434728    0.000000
siesta: ----------------------------------------
siesta:    Tot   -0.090226   -0.067081    0.000000

siesta: Stress tensor (static) (eV/Ang**3):
siesta:    -0.494432   -0.003894    0.000000
siesta:    -0.003894   -1.715629    0.000000
siesta:     0.000000    0.000000   -0.000313

siesta: Cell volume =       1893.226884 Ang**3

siesta: Pressure (static):
siesta:                Solid            Molecule  Units
siesta:           0.00802460          0.11785419  Ry/Bohr**3
siesta:           0.73679128         10.82097116  eV/Ang**3
siesta:        1180.48253217      17337.29454682  kBar
(Free)E+ p_basis*V_orbitals  =       -9674.757450
(Free)Eharris+ p_basis*V_orbitals  =       -9674.752733

siesta: Electric dipole (a.u.)  =    0.000000    0.000000    0.000000
siesta: Electric dipole (Debye) =    0.000000    0.000000    0.000000

* Maximum dynamic memory allocated : Node    0 =   162 MB
* Maximum dynamic memory allocated : Node    1 =    66 MB
* Maximum dynamic memory allocated : Node    2 =    67 MB
* Maximum dynamic memory allocated : Node    3 =   151 MB
* Maximum dynamic memory allocated : Node    4 =   159 MB
* Maximum dynamic memory allocated : Node    5 =    58 MB
* Maximum dynamic memory allocated : Node    6 =    59 MB
* Maximum dynamic memory allocated : Node    7 =   149 MB
* Maximum dynamic memory allocated : Node    8 =   152 MB
* Maximum dynamic memory allocated : Node    9 =    61 MB
* Maximum dynamic memory allocated : Node   10 =    63 MB
* Maximum dynamic memory allocated : Node   11 =   145 MB

* Maximum memory occured during matrixMtoO                    

timer: CPU execution times:
timer:  Routine       Calls   Time/call    Tot.time        %
timer:  siesta            1  103862.876  103862.876   100.00
timer:  Setup             1       3.332       3.332     0.00
timer:  bands             3     226.323     678.968     0.65
timer:  writewave         1       0.024       0.024     0.00
timer:  KSV_init          1       0.001       0.001     0.00
timer:  IterMD            1  103173.739  103173.739    99.34
timer:  hsparse           1       0.277       0.277     0.00
timer:  overlap           1       6.752       6.752     0.01
timer:  IterSCF          35    2943.623  103026.816    99.20
timer:  kinefsm           2       3.438       6.876     0.01
timer:  nlefsm            2      19.799      39.599     0.04
timer:  DHSCF            36      77.119    2776.285     2.67
timer:  DHSCF1            1       1.192       1.192     0.00
timer:  DHSCF2            1      31.793      31.793     0.03
timer:  REORD           290       0.002       0.693     0.00
timer:  POISON           37       0.451      16.686     0.02
timer:  DHSCF3           36      75.443    2715.933     2.61
timer:  rhoofd           36      16.827     605.777     0.58
timer:  cellXC           36       2.427      87.389     0.08
timer:  vmat             36      34.388    1237.976     1.19
timer:  MolMec            2       0.000       0.000     0.00
timer:  diagon           35    2865.280  100284.807    96.56
timer:  c-eigval       8206       5.585   45828.651    44.12
timer:  c-buildHS      8206       0.035     290.683     0.28
timer:  cdiag         16291       5.691   92704.673    89.26
timer:  cdiag1        16291       0.261    4246.305     4.09
timer:  cdiag2        16291       1.833   29861.483    28.75
timer:  cdiag3        16291       3.377   55016.063    52.97
timer:  cdiag4        16291       0.088    1427.186     1.37
timer:  c-eigvec       8085       5.864   47407.389    45.64
timer:  c-buildD       8085       0.950    7684.049     7.40
timer:  DHSCF4            1      27.106      27.106     0.03
timer:  dfscf             1      25.032      25.032     0.02
timer:  overfsm           1       0.323       0.323     0.00
timer:  optical           1       6.235       6.235     0.01
  

elaps: ELAPSED times:
elaps:  Routine       Calls   Time/call    Tot.time        %
elaps:  siesta            1    8675.620    8675.620   100.00
elaps:  Setup             1       0.277       0.277     0.00
elaps:  bands             3      18.920      56.759     0.65
elaps:  writewave         1       0.002       0.002     0.00
elaps:  KSV_init          1       0.000       0.000     0.00
elaps:  IterMD            1    8618.058    8618.058    99.34
elaps:  hsparse           1       0.028       0.028     0.00
elaps:  overlap           1       0.713       0.713     0.01
elaps:  IterSCF          35     245.880    8605.791    99.20
elaps:  kinefsm           2       0.364       0.728     0.01
elaps:  nlefsm            2       1.670       3.341     0.04
elaps:  DHSCF            36       6.500     234.002     2.70
elaps:  DHSCF1            1       0.101       0.101     0.00
elaps:  DHSCF2            1       2.654       2.654     0.03
elaps:  REORD           290       0.000       0.087     0.00
elaps:  POISON           37       0.038       1.406     0.02
elaps:  DHSCF3           36       6.302     226.880     2.62
elaps:  rhoofd           36       2.854     102.738     1.18
elaps:  cellXC           36       0.202       7.284     0.08
elaps:  vmat             36       2.873     103.429     1.19
elaps:  MolMec            2       0.000       0.000     0.00
elaps:  diagon           35     239.339    8376.878    96.56
elaps:  c-eigval       8206       0.466    3828.003    44.12
elaps:  c-buildHS      8206       0.004      29.572     0.34
elaps:  cdiag         16291       0.472    7690.177    88.64
elaps:  cdiag1        16291       0.021     346.091     3.99
elaps:  cdiag2        16291       0.153    2496.571    28.78
elaps:  cdiag3        16291       0.283    4602.676    53.05
elaps:  cdiag4        16291       0.007     114.112     1.32
elaps:  c-eigvec       8085       0.484    3915.742    45.14
elaps:  c-buildD       8085       0.085     685.834     7.91
elaps:  DHSCF4            1       4.322       4.322     0.05
elaps:  dfscf             1       4.068       4.068     0.05
elaps:  overfsm           1       0.031       0.031     0.00
elaps:  optical           1       0.000       0.000     0.00
  
>> End of run:   5-MAY-2016   9:10:39
