Siesta Version:                                        siesta-3.2-pl-3
Architecture  : x86_64-unknown-linux-gnu--unknown
Compiler flags: mpiifort -g -O2 -fPIC -xSSE4.1 -fp-model source -shared-intel 
PARALLEL version

* Running on    8 nodes in parallel
>> Start of run:  28-APR-2016   3:13:39

                           ***********************       
                           *  WELCOME TO SIESTA  *       
                           ***********************       

reinit: Reading from standard input
************************** Dump of input data file ****************************
#(1) General system descriptors
SystemName            GRP_doping    # Descriptive name of the system
SystemLabel           GRP_doping    # Short name for naming files
%include STRUCT.fdf
%include KPT.fdf
%include BASIS.fdf
#%include TS.fdf # for transiesta calculation
#(4) DFT, Grid, SCF
XC.functional         GGA           # LDA or GGA (default = LDA)
XC.authors            PBE           # CA (Ceperley-Aldr) = PZ
                                    #    (Perdew-Zunger) - LDA - Default
                                    # PW92 (Perdew-Wang-92) - LDA
                                    # PBE (Perdew-Burke-Ernzerhof) - GGA
MeshCutoff            200.000000    Ry      # Default: 50.0 Ry ~ 0.444 Bohr
                                    #         100.0 Ry ~ 0.314 Bohr
MaxSCFIterations      500           # Default: 50
DM.MixingWeight       0.05          # Default: 0.25
DM.NumberPulay        10            # Default: 0
DM.PulayOnFile        F             # SystemLabel.P1, SystemLabel.P2
DM.Tolerance          1.d-4         # Default: 1.d-4
DM.UseSaveDM          .true.        # because of the bug
SCFMustConverge       .true.
NeglNonOverlapInt     F             # Default: F
#(5) Eigenvalue problem: order-N or diagonalization
SolutionMethod        Diagon        # or Transiesta
ElectronicTemperature 300.0 K       # Default: 300.0 K
#(6) Molecular dynamics and relaxations
#MD.TypeOfRun          CG            # Type of dynamics:
#MD.VariableCell       F
#MD.NumCGsteps         0           # 0 for single-point / 100 for gopt
#MD.MaxCGDispl         0.2 Bohr      # Default: 0.2 Bohr
#MD.MaxForceTol        0.02 eV/Ang   # Default: 0.04 eV/Ang
#MD.MaxStressTol       1.0 GPa       # Default: 1.0 GPa
# Geometry Constraints
#%block GeometryConstraints
#	position from 1 to 44
#%endblock GeometryConstraints
BandLinesScale   pi/a
%block BandLines
 1   0.00000000  0.00000000  0.00000000
50   0.00000000  0.07809418  0.00000000
50   0.04509075  0.07809242  0.00000000
20   0.00000000  0.00000000  0.00000000
%endblock BandLines
************************** End of input data file *****************************

reinit: -----------------------------------------------------------------------
reinit: System Name: GRP_doping
reinit: -----------------------------------------------------------------------
reinit: System Label: GRP_doping                                                  
reinit: -----------------------------------------------------------------------

initatom: Reading input for the pseudopotentials and atomic orbitals ----------
 Species number:            1  Label: B Atomic number:           5
 Species number:            2  Label: C Atomic number:           6
Ground state valence configuration:   2s02  2p01
Reading pseudopotential information in formatted form from B.psf

Valence configuration for pseudopotential generation:
2s( 2.00) rc: 1.74
2p( 1.00) rc: 1.74
3d( 0.00) rc: 1.74
4f( 0.00) rc: 1.74
Ground state valence configuration:   2s02  2p02
Reading pseudopotential information in formatted form from C.psf

Valence configuration for pseudopotential generation:
2s( 2.00) rc: 1.54
2p( 2.00) rc: 1.54
3d( 0.00) rc: 1.54
4f( 0.00) rc: 1.54
For B, standard SIESTA heuristics set lmxkb to 3
 (one more than the basis l, including polarization orbitals).
Use PS.lmax or PS.KBprojectors blocks to override.
For C, standard SIESTA heuristics set lmxkb to 3
 (one more than the basis l, including polarization orbitals).
Use PS.lmax or PS.KBprojectors blocks to override.

<basis_specs>
===============================================================================
B                    Z=   5    Mass=  10.810        Charge= 0.17977+309
Lmxo=1 Lmxkb= 3    BasisType=split      Semic=F
L=0  Nsemic=0  Cnfigmx=2
          n=1  nzeta=2  polorb=0
            splnorm:   0.15000    
               vcte:    0.0000    
               rinn:    0.0000    
                rcs:    0.0000      0.0000    
            lambdas:    1.0000      1.0000    
L=1  Nsemic=0  Cnfigmx=2
          n=1  nzeta=2  polorb=1
            splnorm:   0.15000    
               vcte:    0.0000    
               rinn:    0.0000    
                rcs:    0.0000      0.0000    
            lambdas:    1.0000      1.0000    
-------------------------------------------------------------------------------
L=0  Nkbl=1  erefs: 0.17977+309
L=1  Nkbl=1  erefs: 0.17977+309
L=2  Nkbl=1  erefs: 0.17977+309
L=3  Nkbl=1  erefs: 0.17977+309
===============================================================================
</basis_specs>

atom: Called for B                     (Z =   5)

read_vps: Pseudopotential generation method:
read_vps: ATM3      Troullier-Martins                       
Total valence charge:    3.00000

read_vps: Pseudopotential includes a core correction:
read_vps: Pseudo-core for xc-correction

xc_check: Exchange-correlation functional:
xc_check: GGA Perdew, Burke & Ernzerhof 1996
V l=0 = -2*Zval/r beyond r=  1.7165
V l=1 = -2*Zval/r beyond r=  1.7165
V l=2 = -2*Zval/r beyond r=  1.7165
V l=3 = -2*Zval/r beyond r=  1.6951
All V_l potentials equal beyond r=  1.7165
This should be close to max(r_c) in ps generation
All pots = -2*Zval/r beyond r=  1.7165

VLOCAL1: 99.0% of the norm of Vloc inside     14.733 Ry
VLOCAL1: 99.9% of the norm of Vloc inside     33.577 Ry
atom: Maximum radius for 4*pi*r*r*local-pseudopot. charge    2.04484
atom: Maximum radius for r*vlocal+2*Zval:    1.75994
GHOST: No ghost state for L =  0
GHOST: No ghost state for L =  1
GHOST: No ghost state for L =  2
GHOST: No ghost state for L =  3

KBgen: Kleinman-Bylander projectors: 
   l= 0   rc=  1.897051   el= -0.693730   Ekb=  4.595746   kbcos=  0.286105
   l= 1   rc=  1.920920   el= -0.265236   Ekb= -2.350715   kbcos= -0.315747
   l= 2   rc=  2.044840   el=  0.002055   Ekb= -0.690767   kbcos= -0.013822
   l= 3   rc=  2.149707   el=  0.003188   Ekb= -0.315358   kbcos= -0.002055

KBgen: Total number of  Kleinman-Bylander projectors:   16
atom: -------------------------------------------------------------------------

atom: SANKEY-TYPE ORBITALS:
atom: Selected multiple-zeta basis: split     

SPLIT: Orbitals with angular momentum L= 0

SPLIT: Basis orbitals for state 2s

SPLIT: PAO cut-off radius determined from an
SPLIT: energy shift=  0.007350 Ry

   izeta = 1
                 lambda =    1.000000
                     rc =    5.422032
                 energy =   -0.686029
                kinetic =    0.576707
    potential(screened) =   -1.262736
       potential(ionic) =   -3.271094

   izeta = 2
                 rmatch =    4.222573
              splitnorm =    0.150000
                 energy =   -0.602132
                kinetic =    0.858975
    potential(screened) =   -1.461107
       potential(ionic) =   -3.582536

SPLIT: Orbitals with angular momentum L= 1

SPLIT: Basis orbitals for state 2p

SPLIT: PAO cut-off radius determined from an
SPLIT: energy shift=  0.007350 Ry

   izeta = 1
                 lambda =    1.000000
                     rc =    6.790259
                 energy =   -0.258578
                kinetic =    1.481412
    potential(screened) =   -1.739989
       potential(ionic) =   -3.657461

   izeta = 2
                 rmatch =    4.608740
              splitnorm =    0.150000
                 energy =   -0.173757
                kinetic =    2.186690
    potential(screened) =   -2.360447
       potential(ionic) =   -4.464260

POLgen: Perturbative polarization orbital with L=  2

POLgen: Polarization orbital for state 2p

   izeta = 1
                     rc =    6.790259
                 energy =    0.684082
                kinetic =    1.471481
    potential(screened) =   -0.787399
       potential(ionic) =   -2.406985
atom: Total number of Sankey-type orbitals: 13

atm_pop: Valence configuration (for local Pseudopot. screening):
 2s( 2.00)                                                            
 2p( 1.00)                                                            
Vna: chval, zval:    3.00000   3.00000

Vna:  Cut-off radius for the neutral-atom potential:   6.790259
comcore: Pseudo-core radius Rcore=  2.122997

atom: _________________________________________________________________________

<basis_specs>
===============================================================================
C                    Z=   6    Mass=  12.010        Charge= 0.17977+309
Lmxo=1 Lmxkb= 3    BasisType=split      Semic=F
L=0  Nsemic=0  Cnfigmx=2
          n=1  nzeta=2  polorb=0
            splnorm:   0.15000    
               vcte:    0.0000    
               rinn:    0.0000    
                rcs:    0.0000      0.0000    
            lambdas:    1.0000      1.0000    
L=1  Nsemic=0  Cnfigmx=2
          n=1  nzeta=2  polorb=1
            splnorm:   0.15000    
               vcte:    0.0000    
               rinn:    0.0000    
                rcs:    0.0000      0.0000    
            lambdas:    1.0000      1.0000    
-------------------------------------------------------------------------------
L=0  Nkbl=1  erefs: 0.17977+309
L=1  Nkbl=1  erefs: 0.17977+309
L=2  Nkbl=1  erefs: 0.17977+309
L=3  Nkbl=1  erefs: 0.17977+309
===============================================================================
</basis_specs>

atom: Called for C                     (Z =   6)

read_vps: Pseudopotential generation method:
read_vps: ATM3      Troullier-Martins                       
Total valence charge:    4.00000

read_vps: Pseudopotential includes a core correction:
read_vps: Pseudo-core for xc-correction

xc_check: Exchange-correlation functional:
xc_check: GGA Perdew, Burke & Ernzerhof 1996
V l=0 = -2*Zval/r beyond r=  1.5227
V l=1 = -2*Zval/r beyond r=  1.5227
V l=2 = -2*Zval/r beyond r=  1.5227
V l=3 = -2*Zval/r beyond r=  1.5038
All V_l potentials equal beyond r=  1.5227
This should be close to max(r_c) in ps generation
All pots = -2*Zval/r beyond r=  1.5227

VLOCAL1: 99.0% of the norm of Vloc inside     18.722 Ry
VLOCAL1: 99.9% of the norm of Vloc inside     42.668 Ry
atom: Maximum radius for 4*pi*r*r*local-pseudopot. charge    1.83678
atom: Maximum radius for r*vlocal+2*Zval:    1.58088
GHOST: No ghost state for L =  0
GHOST: No ghost state for L =  1
GHOST: No ghost state for L =  2
GHOST: No ghost state for L =  3

KBgen: Kleinman-Bylander projectors: 
   l= 0   rc=  1.704034   el= -1.009801   Ekb=  5.335044   kbcos=  0.316824
   l= 1   rc=  1.704034   el= -0.388707   Ekb= -3.785862   kbcos= -0.366464
   l= 2   rc=  1.791422   el=  0.001971   Ekb= -0.970471   kbcos= -0.009212
   l= 3   rc=  1.859892   el=  0.003065   Ekb= -0.399525   kbcos= -0.001223

KBgen: Total number of  Kleinman-Bylander projectors:   16
atom: -------------------------------------------------------------------------

atom: SANKEY-TYPE ORBITALS:
atom: Selected multiple-zeta basis: split     

SPLIT: Orbitals with angular momentum L= 0

SPLIT: Basis orbitals for state 2s

SPLIT: PAO cut-off radius determined from an
SPLIT: energy shift=  0.007350 Ry

   izeta = 1
                 lambda =    1.000000
                     rc =    4.632753
                 energy =   -1.002270
                kinetic =    0.855760
    potential(screened) =   -1.858031
       potential(ionic) =   -5.417575

   izeta = 2
                 rmatch =    3.431921
              splitnorm =    0.150000
                 energy =   -0.867111
                kinetic =    1.300804
    potential(screened) =   -2.167915
       potential(ionic) =   -5.962684

SPLIT: Orbitals with angular momentum L= 1

SPLIT: Basis orbitals for state 2p

SPLIT: PAO cut-off radius determined from an
SPLIT: energy shift=  0.007350 Ry

   izeta = 1
                 lambda =    1.000000
                     rc =    5.658549
                 energy =   -0.381140
                kinetic =    2.399701
    potential(screened) =   -2.780841
       potential(ionic) =   -6.206085

   izeta = 2
                 rmatch =    3.653288
              splitnorm =    0.150000
                 energy =   -0.249149
                kinetic =    3.542762
    potential(screened) =   -3.791911
       potential(ionic) =   -7.581078

POLgen: Perturbative polarization orbital with L=  2

POLgen: Polarization orbital for state 2p

   izeta = 1
                     rc =    5.658549
                 energy =    1.109913
                kinetic =    2.304789
    potential(screened) =   -1.194876
       potential(ionic) =   -4.013592
atom: Total number of Sankey-type orbitals: 13

atm_pop: Valence configuration (for local Pseudopot. screening):
 2s( 2.00)                                                            
 2p( 2.00)                                                            
Vna: chval, zval:    4.00000   4.00000

Vna:  Cut-off radius for the neutral-atom potential:   5.658549
comcore: Pseudo-core radius Rcore=  1.791422

atom: _________________________________________________________________________

prinput: Basis input ----------------------------------------------------------

PAO.BasisType split     

%block ChemicalSpeciesLabel
    1    5 B                       # Species index, atomic number, species label
    2    6 C                       # Species index, atomic number, species label
%endblock ChemicalSpeciesLabel

%block PAO.Basis                 # Define Basis set
B                     2                    # Species label, number of l-shells
 n=2   0   2                         # n, l, Nzeta 
   5.422      4.223   
   1.000      1.000   
 n=2   1   2 P   1                   # n, l, Nzeta, Polarization, NzetaPol
   6.790      4.609   
   1.000      1.000   
C                     2                    # Species label, number of l-shells
 n=2   0   2                         # n, l, Nzeta 
   4.633      3.432   
   1.000      1.000   
 n=2   1   2 P   1                   # n, l, Nzeta, Polarization, NzetaPol
   5.659      3.653   
   1.000      1.000   
%endblock PAO.Basis

prinput: ----------------------------------------------------------------------

coor:   Atomic-coordinates input format  =     Fractional

siesta: Atomic coordinates (Bohr) and species
siesta:      9.28770  21.41544   0.00000  1        1
siesta:     11.61608  22.75985   0.00000  1        2
siesta:     11.61608  25.44831   0.00000  1        3
siesta:      4.63094  21.41544   0.00000  1        4
siesta:      6.95932  22.75985   0.00000  1        5
siesta:      6.95932  25.44831   0.00000  1        6
siesta:     -0.02582  18.72698   0.00000  1        7
siesta:     -0.02582  21.41544   0.00000  1        8
siesta:      2.30256  22.75985   0.00000  1        9
siesta:      2.30256  25.44831   0.00000  1       10
siesta:     -4.68258  21.41544   0.00000  1       11
siesta:     -2.35420  22.75985   0.00000  1       12
siesta:     -2.35420  25.44831   0.00000  1       13
siesta:     -9.33934  21.41544   0.00000  1       14
siesta:     -7.01096  22.75985   0.00000  1       15
siesta:     -7.01096  25.44831   0.00000  1       16
siesta:    -11.66772  22.75985   0.00000  1       17
siesta:    -11.66772  25.44831   0.00000  1       18
siesta:     -9.33934  26.79272   0.00000  1       19
siesta:     -0.02582  26.79272   0.00000  1       20
siesta:     -4.68258  26.79272   0.00000  1       21
siesta:     -0.02582   2.59549   0.00000  2       22
siesta:     -0.02582   5.28395   0.00000  2       23
siesta:     -2.35420  38.89134   0.00000  2       24
siesta:     -2.35420  41.57980   0.00000  2       25
siesta:      2.30256  38.89134   0.00000  2       26
siesta:      2.30256  41.57980   0.00000  2       27
siesta:      4.63094  34.85847   0.00000  2       28
siesta:      4.63094  37.54693   0.00000  2       29
siesta:      6.95932  30.82560   0.00000  2       30
siesta:      6.95932  33.51406   0.00000  2       31
siesta:      9.28770  26.79272   0.00000  2       32
siesta:      9.28770  29.48119   0.00000  2       33
siesta:     -4.68258  34.85847   0.00000  2       34
siesta:     -4.68258  37.54693   0.00000  2       35
siesta:      2.30256   6.62836   0.00000  2       36
siesta:      2.30256   9.31683   0.00000  2       37
siesta:      4.63094  10.66124   0.00000  2       38
siesta:      4.63094  13.34970   0.00000  2       39
siesta:      6.95932  14.69411   0.00000  2       40
siesta:      6.95932  17.38257   0.00000  2       41
siesta:      9.28770  18.72698   0.00000  2       42
siesta:     -2.35420   6.62836   0.00000  2       43
siesta:     -2.35420   9.31683   0.00000  2       44
siesta:     -0.02582  10.66124   0.00000  2       45
siesta:     -0.02582  13.34970   0.00000  2       46
siesta:      2.30256  14.69411   0.00000  2       47
siesta:      2.30256  17.38257   0.00000  2       48
siesta:      4.63094  18.72698   0.00000  2       49
siesta:     -4.68258  10.66124   0.00000  2       50
siesta:     -4.68258  13.34970   0.00000  2       51
siesta:     -2.35420  14.69411   0.00000  2       52
siesta:     -2.35420  17.38257   0.00000  2       53
siesta:     -7.01096  14.69411   0.00000  2       54
siesta:     -7.01096  17.38257   0.00000  2       55
siesta:     -4.68258  18.72698   0.00000  2       56
siesta:     -9.33934  18.72698   0.00000  2       57
siesta:     -9.33934  29.48119   0.00000  2       58
siesta:      4.63094  26.79272   0.00000  2       59
siesta:      4.63094  29.48119   0.00000  2       60
siesta:     -0.02582  29.48119   0.00000  2       61
siesta:     -4.68258  29.48119   0.00000  2       62
siesta:      2.30256  30.82560   0.00000  2       63
siesta:      2.30256  33.51406   0.00000  2       64
siesta:     -2.35420  30.82560   0.00000  2       65
siesta:     -2.35420  33.51406   0.00000  2       66
siesta:     -7.01096  30.82560   0.00000  2       67
siesta:     -7.01096  33.51406   0.00000  2       68
siesta:     -0.02582  34.85847   0.00000  2       69
siesta:     -0.02582  37.54693   0.00000  2       70
siesta:     -0.02582  42.92421   0.00000  2       71
siesta:     -0.02582  45.61267   0.00000  2       72

siesta: System type = slab      

initatomlists: Number of atoms, orbitals, and projectors:     72   936  1152

siesta: ******************** Simulation parameters ****************************
siesta:
siesta: The following are some of the parameters of the simulation.
siesta: A complete list of the parameters used, including default values,
siesta: can be found in file out.fdf
siesta:
redata: Non-Collinear-spin run           =     F
redata: SpinPolarized (Up/Down) run      =     F
redata: Number of spin components        =     1
redata: Long output                      =     F
redata: Number of Atomic Species         =        2
redata: Charge density info will appear in .RHO file
redata: Write Mulliken Pop.              =     NO
redata: Mesh Cutoff                      =   200.0000  Ry
redata: Net charge of the system         =     0.0000 |e|
redata: Max. number of SCF Iter          =      500
redata: SCF convergence failure will abort job
redata: Performing Pulay mixing using    =    10 iterations
redata: Mix DM in first SCF step ?       =     F
redata: Write Pulay info on disk?        =     F
redata: Discard 1st Pulay DM after  kick =     F
redata: New DM Mixing Weight             =     0.0500
redata: New DM Occupancy tolerance       = 0.000000000001
redata: No kicks to SCF
redata: DM Mixing Weight for Kicks       =     0.5000
redata: DM Tolerance for SCF             =     0.000100
redata: Require Energy convergence for SCF =     F
redata: DM Energy tolerance for SCF      =     0.000100 eV
redata: Require Harris convergence for SCF =     F
redata: DM Harris energy tolerance for SCF =     0.000100 eV
redata: Using Saved Data (generic)   =     F
redata: Use continuation files for DM    =     T
redata: Neglect nonoverlap interactions  =     F
redata: Method of Calculation            =     Diagonalization
redata: Divide and Conquer               =     T
redata: Electronic Temperature           =     0.0019  Ry
redata: Fix the spin of the system       =     F
redata: Dynamics option                  =     Verlet MD run
redata: Initial MD time step             =        1
redata:   Final MD time step             =        1
redata: Length of MD time step           =     1.0000  fs
redata: Initial Temperature of MD run    =     0.0000  K
redata: Perform a MD quench              =     F
redata: ***********************************************************************
Total number of electrons:   267.000000
Total ionic charge:   267.000000

* ProcessorY, Blocksize:    2  24

k-point displ. along   1 input, could be:     0.50    0.00
k-point displ. along   2 input, could be:     0.50    0.00
 Kpoints in:          231 . Kpoints trimmed:          231

siesta: k-grid: Number of k-points =   231
siesta: k-grid: Cutoff (effective) =     5.000 Ang
siesta: k-grid: Supercell and displacements
siesta: k-grid:   21   0   0      0.500
siesta: k-grid:    0  21   0      0.500
siesta: k-grid:    0   0   1      0.000
Naive supercell factors:     2    2    2

superc: Internal auxiliary supercell:     2 x     2 x     2  =       8
superc: Number of atoms, orbitals, and projectors:    576   7488   9216

* Maximum dynamic memory allocated =     4 MB

siesta:                 ==============================
                            Begin MD step =      1
                        ==============================

superc: Internal auxiliary supercell:     2 x     2 x     2  =       8
superc: Number of atoms, orbitals, and projectors:    576   7488   9216

outcell: Unit cell vectors (Ang):
       12.804619    7.392750    0.000000
        0.000000   14.785500    0.000000
        0.000000    0.000000   10.000000

outcell: Cell vector modules (Ang)   :   14.785500   14.785500   10.000000
outcell: Cell angles (23,13,12) (deg):     90.0000     90.0000     60.0000
outcell: Cell volume (Ang**3)        :   1893.2269
New_DM. Step:     1
Initializing Density Matrix...

InitMesh: MESH =   120 x   120 x    90 =     1296000
InitMesh: Mesh cutoff (required, used) =   200.000   223.865 Ry

* Maximum dynamic memory allocated =   220 MB

stepf: Fermi-Dirac step function

siesta: Program's energy decomposition (eV):
siesta: Ebs     =     -5537.148742
siesta: Eions   =     15713.820136
siesta: Ena     =      4225.539366
siesta: Ekin    =      5270.679987
siesta: Enl     =       807.453375
siesta: DEna    =        -0.000008
siesta: DUscf   =         0.000000
siesta: DUext   =         0.000000
siesta: Exc     =     -4213.896777
siesta: eta*DQ  =         0.000000
siesta: Emadel  =         0.000000
siesta: Emeta   =         0.000000
siesta: Emolmec =         0.000000
siesta: Ekinion =         0.000000
siesta: Eharris =     -9300.763312
siesta: Etot    =     -9624.044193
siesta: FreeEng =     -9624.044193

siesta: iscf   Eharris(eV)      E_KS(eV)   FreeEng(eV)   dDmax  Ef(eV)
siesta:    1    -9300.7633    -9624.0442    -9624.0442  6.3137 -8.5098
timer: Routine,Calls,Time,% = IterSCF        1    4690.944  99.75
elaps: Routine,Calls,Wall,% = IterSCF        1     587.123  99.75
siesta:    2   -12290.2253    -8678.9197    -8678.9624 18.9977 -2.0444
siesta:    3    -9221.6353    -9475.6097    -9475.6525  3.5457 -6.6826
siesta:    4    -9204.3938    -9326.5739    -9326.6206  1.4075 -5.4453
siesta:    5    -9173.9655    -9242.4698    -9242.5132  0.7910 -5.0418
siesta:    6    -9156.1630    -9220.1895    -9220.2401  0.7173 -5.0189
siesta:    7    -9146.8739    -9200.3408    -9200.3727  0.6793 -5.0579
siesta:    8    -9144.8260    -9188.2971    -9188.3496  0.6641 -5.1224
siesta:    9    -9143.7157    -9173.9581    -9174.0009  0.5796 -5.1531
siesta:   10    -9145.8601    -9147.1659    -9147.2091  0.3413 -5.0644
siesta:   11    -9143.5354    -9143.2420    -9143.2963  0.3020 -5.1130
siesta:   12    -9142.7247    -9127.5973    -9127.6434  0.1693 -5.0558
siesta:   13    -9142.4843    -9123.7433    -9123.7943  0.1752 -5.0548
siesta:   14    -9141.9063    -9124.0130    -9124.0776  0.1207 -5.0262
siesta:   15    -9141.6997    -9127.8582    -9127.9193  0.0735 -5.0645
siesta:   16    -9141.5720    -9132.7023    -9132.7576  0.0557 -5.0996
siesta:   17    -9141.4999    -9135.4726    -9135.5245  0.0492 -5.1292
siesta:   18    -9141.4708    -9137.4096    -9137.4636  0.0230 -5.1219
siesta:   19    -9141.4627    -9138.4775    -9138.5306  0.0162 -5.1159
siesta:   20    -9141.4594    -9138.9644    -9139.0196  0.0159 -5.1098
siesta:   21    -9141.4550    -9139.5881    -9139.6432  0.0122 -5.1089
siesta:   22    -9141.4543    -9140.2901    -9140.3465  0.0103 -5.1052
siesta:   23    -9141.4533    -9140.9935    -9141.0497  0.0066 -5.1050
siesta:   24    -9141.4527    -9141.3113    -9141.3679  0.0037 -5.1051
siesta:   25    -9141.4526    -9141.3202    -9141.3768  0.0028 -5.1052
siesta:   26    -9141.4525    -9141.4012    -9141.4576  0.0015 -5.1059
siesta:   27    -9141.4525    -9141.4881    -9141.5445  0.0013 -5.1063
siesta:   28    -9141.4525    -9141.5351    -9141.5915  0.0007 -5.1068
siesta:   29    -9141.4525    -9141.5407    -9141.5971  0.0008 -5.1074
siesta:   30    -9141.4524    -9141.5130    -9141.5694  0.0008 -5.1075
siesta:   31    -9141.4524    -9141.4841    -9141.5405  0.0004 -5.1072
siesta:   32    -9141.4524    -9141.4710    -9141.5274  0.0002 -5.1071
siesta:   33    -9141.4524    -9141.4625    -9141.5190  0.0001 -5.1070
siesta:   34    -9141.4524    -9141.4555    -9141.5119  0.0001 -5.1071
siesta:   35    -9141.4524    -9141.4523    -9141.5087  0.0001 -5.1071

siesta: E_KS(eV) =            -9141.4517

siesta: E_KS - E_eggbox =     -9141.4517

siesta: Atomic forces (eV/Ang):
----------------------------------------
   Tot   -0.083799   -0.040763    0.000000
----------------------------------------
   Max  562.531371
   Res  157.112872    sqrt( Sum f_i^2 / 3N )
----------------------------------------
   Max  562.531371    constrained

Stress-tensor-Voigt (kbar):     -834.52    -2905.88       -0.73       -0.32        0.00        0.00
(Free)E + p*V (eV/cell)    -7667.9459
Target enthalpy (eV/cell)    -9141.5082

siesta: Stress tensor (static) (eV/Ang**3):
        -0.520863   -0.000197    0.000000
        -0.000197   -1.813685    0.000000
         0.000000    0.000000   -0.000453

siesta: Pressure (static):       1247.04155798  kBar

siesta: Stress tensor (total) (eV/Ang**3):
        -0.520863   -0.000197    0.000000
        -0.000197   -1.813685    0.000000
         0.000000    0.000000   -0.000453

siesta: Pressure (total):       1247.04155798  kBar

siesta: Temp_ion =       0.000 K

* Maximum dynamic memory allocated =   236 MB
Computing bands...

siesta: Program's energy decomposition (eV):
siesta: Ebs     =     -4187.201872
siesta: Eions   =     15713.820136
siesta: Ena     =      4225.539366
siesta: Ekin    =      8224.840179
siesta: Enl     =      -783.895702
siesta: DEna    =      -813.094434
siesta: DUscf   =       108.172950
siesta: DUext   =         0.000000
siesta: Exc     =     -4389.193963
siesta: eta*DQ  =         0.000000
siesta: Emadel  =         0.000000
siesta: Emeta   =         0.000000
siesta: Emolmec =         0.000000
siesta: Ekinion =         0.000000
siesta: Eharris =     -9141.452428
siesta: Etot    =     -9141.451741
siesta: FreeEng =     -9141.508169

siesta: Final energy (eV):
siesta:  Band Struct. =   -4187.201872
siesta:       Kinetic =    8224.840179
siesta:       Hartree =   27898.914667
siesta:    Ext. field =       0.000000
siesta:   Exch.-corr. =   -4389.193963
siesta:  Ion-electron =  -63759.727861
siesta:       Ion-ion =   22883.715237
siesta:       Ekinion =       0.000000
siesta:         Total =   -9141.451741

siesta: Atomic forces (eV/Ang):
siesta:      1    4.601189   -6.590114    0.000000
siesta:      2    5.916807   -3.299663    0.000000
siesta:      3    1.890412    5.300413    0.000000
siesta:      4   -0.394121   -4.871969    0.000000
siesta:      5   -1.028793   -0.124431    0.000000
siesta:      6   -0.740445    4.913178    0.000000
siesta:      7   -0.126821  409.006139    0.000000
siesta:      8    0.287709   -1.769187    0.000000
siesta:      9   -0.844539    0.208532    0.000000
siesta:     10    3.739326    3.147021    0.000000
siesta:     11    0.576456   -4.841255    0.000000
siesta:     12    0.278591    0.746915    0.000000
siesta:     13    0.577406    0.181453    0.000000
siesta:     14   -4.630603   -6.602713    0.000000
siesta:     15    0.993411    0.271860    0.000000
siesta:     16    1.013722   -0.326830    0.000000
siesta:     17   -6.040322   -2.681401    0.000000
siesta:     18   -6.078494    2.669603    0.000000
siesta:     19   -4.797840    6.899399    0.000000
siesta:     20   -0.887097    3.661521    0.000000
siesta:     21    0.621250    4.755112    0.000000
siesta:     22   -0.083770  550.593224    0.000000
siesta:     23   -0.257050 -127.748358    0.000000
siesta:     24    1.647797  126.986215    0.000000
siesta:     25  -16.270705 -548.625165    0.000000
siesta:     26   -1.629872  127.083425    0.000000
siesta:     27   16.316014 -548.507669    0.000000
siesta:     28   26.402359    5.627844    0.000000
siesta:     29   33.491080 -548.781648    0.000000
siesta:     30    1.914001    1.347245    0.000000
siesta:     31   -2.070904    1.452285    0.000000
siesta:     32    4.607710    5.580569    0.000000
siesta:     33   -1.177786   -1.049565    0.000000
siesta:     34  -26.245390    5.739356    0.000000
siesta:     35  -33.420947 -549.005634    0.000000
siesta:     36   14.266169  547.008145    0.000000
siesta:     37   -1.885567 -127.031166    0.000000
siesta:     38   32.506293  548.593452    0.000000
siesta:     39   26.270638   -5.133667    0.000000
siesta:     40   -2.126801   -1.695565    0.000000
siesta:     41    3.175805   -2.055931    0.000000
siesta:     42   -2.766007   -1.600093    0.000000
siesta:     43  -15.028820  547.531016    0.000000
siesta:     44    2.005689 -126.973799    0.000000
siesta:     45    0.185288  545.180557    0.000000
siesta:     46    0.131568 -124.841246    0.000000
siesta:     47   24.154773  557.467307    0.000000
siesta:     48   22.145789   -2.793320    0.000000
siesta:     49   -1.441075   -1.904849    0.000000
siesta:     50  -32.646790  548.874895    0.000000
siesta:     51  -26.387345   -5.270416    0.000000
siesta:     52  -24.275754  557.664801    0.000000
siesta:     53  -22.112586   -2.859770    0.000000
siesta:     54    1.973244   -1.787899    0.000000
siesta:     55   -2.850127   -1.937522    0.000000
siesta:     56    1.485464   -1.866684    0.000000
siesta:     57    2.591655   -1.709085    0.000000
siesta:     58    2.603473    1.409559    0.000000
siesta:     59   -0.316787    3.425086    0.000000
siesta:     60   -0.840429   -2.073336    0.000000
siesta:     61    0.170162 -562.531371    0.000000
siesta:     62    1.151879    1.241263    0.000000
siesta:     63   21.395769    5.533687    0.000000
siesta:     64   24.554181 -556.380725    0.000000
siesta:     65  -21.580523    5.768937    0.000000
siesta:     66  -23.946441 -556.743675    0.000000
siesta:     67   -2.556792    2.006721    0.000000
siesta:     68    1.928333    1.630698    0.000000
siesta:     69    0.012443  125.653745    0.000000
siesta:     70   -0.155487 -543.021684    0.000000
siesta:     71    0.049396  125.638872    0.000000
siesta:     72   -0.074224 -405.803406    0.000000
siesta: ----------------------------------------
siesta:    Tot   -0.083799   -0.040763    0.000000

siesta: Stress tensor (static) (eV/Ang**3):
siesta:    -0.520863   -0.000197    0.000000
siesta:    -0.000197   -1.813685    0.000000
siesta:     0.000000    0.000000   -0.000453

siesta: Cell volume =       1893.226884 Ang**3

siesta: Pressure (static):
siesta:                Solid            Molecule  Units
siesta:           0.00847705          0.12174989  Ry/Bohr**3
siesta:           0.77833371         11.17866076  eV/Ang**3
siesta:        1247.04155798      17910.38266626  kBar
(Free)E+ p_basis*V_orbitals  =       -9104.135531
(Free)Eharris+ p_basis*V_orbitals  =       -9104.135671

siesta: Electric dipole (a.u.)  =    0.000000    0.000000    0.000000
siesta: Electric dipole (Debye) =    0.000000    0.000000    0.000000

* Maximum dynamic memory allocated : Node    0 =   236 MB
* Maximum dynamic memory allocated : Node    1 =    82 MB
* Maximum dynamic memory allocated : Node    2 =    85 MB
* Maximum dynamic memory allocated : Node    3 =   225 MB
* Maximum dynamic memory allocated : Node    4 =   235 MB
* Maximum dynamic memory allocated : Node    5 =    85 MB
* Maximum dynamic memory allocated : Node    6 =    88 MB
* Maximum dynamic memory allocated : Node    7 =   215 MB

* Maximum memory occured during matrixMtoO                    

timer: CPU execution times:
timer:  Routine       Calls   Time/call    Tot.time        %
timer:  siesta            1  160827.822  160827.822   100.00
timer:  Setup             1       3.047       3.047     0.00
timer:  bands             3     271.454     814.362     0.51
timer:  writewave         1       0.022       0.022     0.00
timer:  KSV_init          1       0.000       0.000     0.00
timer:  IterMD            1  160004.577  160004.577    99.49
timer:  hsparse           1       0.394       0.394     0.00
timer:  overlap           1       7.797       7.797     0.00
timer:  IterSCF          35    4565.202  159782.067    99.35
timer:  kinefsm           2       4.043       8.086     0.01
timer:  nlefsm            2      21.472      42.944     0.03
timer:  DHSCF            36     121.374    4369.479     2.72
timer:  DHSCF1            1       1.010       1.010     0.00
timer:  DHSCF2            1      44.650      44.650     0.03
timer:  REORD           290       0.010       2.955     0.00
timer:  POISON           37       2.337      86.485     0.05
timer:  DHSCF3           36     118.841    4278.264     2.66
timer:  rhoofd           36      26.108     939.873     0.58
timer:  cellXC           36       3.558     128.096     0.08
timer:  vmat             36      57.442    2067.907     1.29
timer:  MolMec            2       0.000       0.000     0.00
timer:  diagon           35    4442.529  155488.506    96.68
timer:  c-eigval       8206       6.753   55413.298    34.46
timer:  c-buildHS      8206       0.141    1154.118     0.72
timer:  cdiag         16291       6.957  113335.902    70.47
timer:  cdiag1        16291       0.432    7045.791     4.38
timer:  cdiag2        16291       1.922   31306.996    19.47
timer:  cdiag3        16291       3.974   64736.626    40.25
timer:  cdiag4        16291       0.230    3741.439     2.33
timer:  c-eigvec       8085       7.373   59608.474    37.06
timer:  c-buildD       8085       5.100   41234.023    25.64
timer:  DHSCF4            1      43.568      43.568     0.03
timer:  dfscf             1      40.902      40.902     0.03
timer:  overfsm           1       0.490       0.490     0.00
timer:  optical           1       5.100       5.100     0.00
  

elaps: ELAPSED times:
elaps:  Routine       Calls   Time/call    Tot.time        %
elaps:  siesta            1   20128.234   20128.234   100.00
elaps:  Setup             1       0.381       0.381     0.00
elaps:  bands             3      33.984     101.951     0.51
elaps:  writewave         1       0.002       0.002     0.00
elaps:  KSV_init          1       0.000       0.000     0.00
elaps:  IterMD            1   20025.229   20025.229    99.49
elaps:  hsparse           1       0.050       0.050     0.00
elaps:  overlap           1       0.980       0.980     0.00
elaps:  IterSCF          35     571.354   19997.394    99.35
elaps:  kinefsm           2       0.507       1.015     0.01
elaps:  nlefsm            2       2.815       5.630     0.03
elaps:  DHSCF            36      15.324     551.653     2.74
elaps:  DHSCF1            1       0.126       0.126     0.00
elaps:  DHSCF2            1       5.587       5.587     0.03
elaps:  REORD           290       0.001       0.409     0.00
elaps:  POISON           37       0.292      10.793     0.05
elaps:  DHSCF3           36      14.868     535.238     2.66
elaps:  rhoofd           36       6.486     233.506     1.16
elaps:  cellXC           36       0.444      15.999     0.08
elaps:  vmat             36       7.186     258.690     1.29
elaps:  MolMec            2       0.000       0.000     0.00
elaps:  diagon           35     556.025   19460.870    96.68
elaps:  c-eigval       8206       0.845    6933.316    34.45
elaps:  c-buildHS      8206       0.019     155.196     0.77
elaps:  cdiag         16291       0.860   14017.307    69.64
elaps:  cdiag1        16291       0.054     872.564     4.34
elaps:  cdiag2        16291       0.240    3917.633    19.46
elaps:  cdiag3        16291       0.498    8110.648    40.29
elaps:  cdiag4        16291       0.030     480.880     2.39
elaps:  c-eigvec       8085       0.907    7333.915    36.44
elaps:  c-buildD       8085       0.654    5289.035    26.28
elaps:  DHSCF4            1      10.431      10.431     0.05
elaps:  dfscf             1       9.910       9.910     0.05
elaps:  overfsm           1       0.059       0.059     0.00
elaps:  optical           1       0.000       0.000     0.00
  
>> End of run:  28-APR-2016   8:49:07
