Siesta Version:                                        siesta-3.2-pl-3
Architecture  : x86_64-unknown-linux-gnu--unknown
Compiler flags: mpiifort -g -O2 -fPIC -xSSE4.1 -fp-model source -shared-intel 
PARALLEL version

* Running on    8 nodes in parallel
>> Start of run:  28-APR-2016  11:38:11

                           ***********************       
                           *  WELCOME TO SIESTA  *       
                           ***********************       

reinit: Reading from standard input
************************** Dump of input data file ****************************
#(1) General system descriptors
SystemName            GRP_doping    # Descriptive name of the system
SystemLabel           GRP_doping    # Short name for naming files
%include STRUCT.fdf
%include KPT.fdf
%include BASIS.fdf
#%include TS.fdf # for transiesta calculation
#(4) DFT, Grid, SCF
XC.functional         GGA           # LDA or GGA (default = LDA)
XC.authors            PBE           # CA (Ceperley-Aldr) = PZ
                                    #    (Perdew-Zunger) - LDA - Default
                                    # PW92 (Perdew-Wang-92) - LDA
                                    # PBE (Perdew-Burke-Ernzerhof) - GGA
MeshCutoff            200.000000    Ry      # Default: 50.0 Ry ~ 0.444 Bohr
                                    #         100.0 Ry ~ 0.314 Bohr
MaxSCFIterations      500           # Default: 50
DM.MixingWeight       0.05          # Default: 0.25
DM.NumberPulay        10            # Default: 0
DM.PulayOnFile        F             # SystemLabel.P1, SystemLabel.P2
DM.Tolerance          1.d-4         # Default: 1.d-4
DM.UseSaveDM          .true.        # because of the bug
SCFMustConverge       .true.
NeglNonOverlapInt     F             # Default: F
#(5) Eigenvalue problem: order-N or diagonalization
SolutionMethod        Diagon        # or Transiesta
ElectronicTemperature 300.0 K       # Default: 300.0 K
#(6) Molecular dynamics and relaxations
#MD.TypeOfRun          CG            # Type of dynamics:
#MD.VariableCell       F
#MD.NumCGsteps         0           # 0 for single-point / 100 for gopt
#MD.MaxCGDispl         0.2 Bohr      # Default: 0.2 Bohr
#MD.MaxForceTol        0.02 eV/Ang   # Default: 0.04 eV/Ang
#MD.MaxStressTol       1.0 GPa       # Default: 1.0 GPa
# Geometry Constraints
#%block GeometryConstraints
#	position from 1 to 44
#%endblock GeometryConstraints
BandLinesScale   pi/a
%block BandLines
 1   0.00000000  0.00000000  0.00000000
50   0.00000000  0.07809418  0.00000000
50   0.04509075  0.07809242  0.00000000
20   0.00000000  0.00000000  0.00000000
%endblock BandLines
************************** End of input data file *****************************

reinit: -----------------------------------------------------------------------
reinit: System Name: GRP_doping
reinit: -----------------------------------------------------------------------
reinit: System Label: GRP_doping                                                  
reinit: -----------------------------------------------------------------------

initatom: Reading input for the pseudopotentials and atomic orbitals ----------
 Species number:            1  Label: N Atomic number:           7
 Species number:            2  Label: C Atomic number:           6
Ground state valence configuration:   2s02  2p03
Reading pseudopotential information in formatted form from N.psf

Valence configuration for pseudopotential generation:
2s( 2.00) rc: 1.48
2p( 3.00) rc: 1.48
3d( 0.00) rc: 1.48
4f( 0.00) rc: 1.48
Ground state valence configuration:   2s02  2p02
Reading pseudopotential information in formatted form from C.psf

Valence configuration for pseudopotential generation:
2s( 2.00) rc: 1.54
2p( 2.00) rc: 1.54
3d( 0.00) rc: 1.54
4f( 0.00) rc: 1.54
For N, standard SIESTA heuristics set lmxkb to 3
 (one more than the basis l, including polarization orbitals).
Use PS.lmax or PS.KBprojectors blocks to override.
For C, standard SIESTA heuristics set lmxkb to 3
 (one more than the basis l, including polarization orbitals).
Use PS.lmax or PS.KBprojectors blocks to override.

<basis_specs>
===============================================================================
N                    Z=   7    Mass=  14.010        Charge= 0.17977+309
Lmxo=1 Lmxkb= 3    BasisType=split      Semic=F
L=0  Nsemic=0  Cnfigmx=2
          n=1  nzeta=2  polorb=0
            splnorm:   0.15000    
               vcte:    0.0000    
               rinn:    0.0000    
                rcs:    0.0000      0.0000    
            lambdas:    1.0000      1.0000    
L=1  Nsemic=0  Cnfigmx=2
          n=1  nzeta=2  polorb=1
            splnorm:   0.15000    
               vcte:    0.0000    
               rinn:    0.0000    
                rcs:    0.0000      0.0000    
            lambdas:    1.0000      1.0000    
-------------------------------------------------------------------------------
L=0  Nkbl=1  erefs: 0.17977+309
L=1  Nkbl=1  erefs: 0.17977+309
L=2  Nkbl=1  erefs: 0.17977+309
L=3  Nkbl=1  erefs: 0.17977+309
===============================================================================
</basis_specs>

atom: Called for N                     (Z =   7)

read_vps: Pseudopotential generation method:
read_vps: ATM3      Troullier-Martins                       
Total valence charge:    5.00000

read_vps: Pseudopotential includes a core correction:
read_vps: Pseudo-core for xc-correction

xc_check: Exchange-correlation functional:
xc_check: GGA Perdew, Burke & Ernzerhof 1996
V l=0 = -2*Zval/r beyond r=  1.4606
V l=1 = -2*Zval/r beyond r=  1.4606
V l=2 = -2*Zval/r beyond r=  1.4606
V l=3 = -2*Zval/r beyond r=  1.4606
All V_l potentials equal beyond r=  1.4606
This should be close to max(r_c) in ps generation
All pots = -2*Zval/r beyond r=  1.4606

VLOCAL1: 99.0% of the norm of Vloc inside     20.347 Ry
VLOCAL1: 99.9% of the norm of Vloc inside     46.372 Ry
atom: Maximum radius for 4*pi*r*r*local-pseudopot. charge    1.76189
atom: Maximum radius for r*vlocal+2*Zval:    1.53550
GHOST: No ghost state for L =  0
GHOST: No ghost state for L =  1
GHOST: No ghost state for L =  2
GHOST: No ghost state for L =  3

KBgen: Kleinman-Bylander projectors: 
   l= 0   rc=  1.634559   el= -1.363963   Ekb=  5.296955   kbcos=  0.335621
   l= 1   rc=  1.614250   el= -0.521451   Ekb= -5.259161   kbcos= -0.433408
   l= 2   rc=  1.718383   el=  0.001991   Ekb= -1.271464   kbcos= -0.007566
   l= 3   rc=  1.761893   el=  0.003093   Ekb= -0.494769   kbcos= -0.001015

KBgen: Total number of  Kleinman-Bylander projectors:   16
atom: -------------------------------------------------------------------------

atom: SANKEY-TYPE ORBITALS:
atom: Selected multiple-zeta basis: split     

SPLIT: Orbitals with angular momentum L= 0

SPLIT: Basis orbitals for state 2s

SPLIT: PAO cut-off radius determined from an
SPLIT: energy shift=  0.007350 Ry

   izeta = 1
                 lambda =    1.000000
                     rc =    4.071465
                 energy =   -1.356470
                kinetic =    1.176977
    potential(screened) =   -2.533447
       potential(ionic) =   -8.057990

   izeta = 2
                 rmatch =    2.905100
              splitnorm =    0.150000
                 energy =   -1.158343
                kinetic =    1.813009
    potential(screened) =   -2.971352
       potential(ionic) =   -8.901931

SPLIT: Orbitals with angular momentum L= 1

SPLIT: Basis orbitals for state 2p

SPLIT: PAO cut-off radius determined from an
SPLIT: energy shift=  0.007350 Ry

   izeta = 1
                 lambda =    1.000000
                     rc =    4.972977
                 energy =   -0.513884
                kinetic =    3.441732
    potential(screened) =   -3.955616
       potential(ionic) =   -9.287901

   izeta = 2
                 rmatch =    3.054066
              splitnorm =    0.150000
                 energy =   -0.318226
                kinetic =    5.125348
    potential(screened) =   -5.443573
       potential(ionic) =  -11.380999

POLgen: Perturbative polarization orbital with L=  2

POLgen: Polarization orbital for state 2p

   izeta = 1
                     rc =    4.972977
                 energy =    1.607437
                kinetic =    3.268125
    potential(screened) =   -1.660688
       potential(ionic) =   -5.973652
atom: Total number of Sankey-type orbitals: 13

atm_pop: Valence configuration (for local Pseudopot. screening):
 2s( 2.00)                                                            
 2p( 3.00)                                                            
Vna: chval, zval:    5.00000   5.00000

Vna:  Cut-off radius for the neutral-atom potential:   4.972977
comcore: Pseudo-core radius Rcore=  1.554824

atom: _________________________________________________________________________

<basis_specs>
===============================================================================
C                    Z=   6    Mass=  12.010        Charge= 0.17977+309
Lmxo=1 Lmxkb= 3    BasisType=split      Semic=F
L=0  Nsemic=0  Cnfigmx=2
          n=1  nzeta=2  polorb=0
            splnorm:   0.15000    
               vcte:    0.0000    
               rinn:    0.0000    
                rcs:    0.0000      0.0000    
            lambdas:    1.0000      1.0000    
L=1  Nsemic=0  Cnfigmx=2
          n=1  nzeta=2  polorb=1
            splnorm:   0.15000    
               vcte:    0.0000    
               rinn:    0.0000    
                rcs:    0.0000      0.0000    
            lambdas:    1.0000      1.0000    
-------------------------------------------------------------------------------
L=0  Nkbl=1  erefs: 0.17977+309
L=1  Nkbl=1  erefs: 0.17977+309
L=2  Nkbl=1  erefs: 0.17977+309
L=3  Nkbl=1  erefs: 0.17977+309
===============================================================================
</basis_specs>

atom: Called for C                     (Z =   6)

read_vps: Pseudopotential generation method:
read_vps: ATM3      Troullier-Martins                       
Total valence charge:    4.00000

read_vps: Pseudopotential includes a core correction:
read_vps: Pseudo-core for xc-correction

xc_check: Exchange-correlation functional:
xc_check: GGA Perdew, Burke & Ernzerhof 1996
V l=0 = -2*Zval/r beyond r=  1.5227
V l=1 = -2*Zval/r beyond r=  1.5227
V l=2 = -2*Zval/r beyond r=  1.5227
V l=3 = -2*Zval/r beyond r=  1.5038
All V_l potentials equal beyond r=  1.5227
This should be close to max(r_c) in ps generation
All pots = -2*Zval/r beyond r=  1.5227

VLOCAL1: 99.0% of the norm of Vloc inside     18.722 Ry
VLOCAL1: 99.9% of the norm of Vloc inside     42.668 Ry
atom: Maximum radius for 4*pi*r*r*local-pseudopot. charge    1.83678
atom: Maximum radius for r*vlocal+2*Zval:    1.58088
GHOST: No ghost state for L =  0
GHOST: No ghost state for L =  1
GHOST: No ghost state for L =  2
GHOST: No ghost state for L =  3

KBgen: Kleinman-Bylander projectors: 
   l= 0   rc=  1.704034   el= -1.009801   Ekb=  5.335044   kbcos=  0.316824
   l= 1   rc=  1.704034   el= -0.388707   Ekb= -3.785862   kbcos= -0.366464
   l= 2   rc=  1.791422   el=  0.001971   Ekb= -0.970471   kbcos= -0.009212
   l= 3   rc=  1.859892   el=  0.003065   Ekb= -0.399525   kbcos= -0.001223

KBgen: Total number of  Kleinman-Bylander projectors:   16
atom: -------------------------------------------------------------------------

atom: SANKEY-TYPE ORBITALS:
atom: Selected multiple-zeta basis: split     

SPLIT: Orbitals with angular momentum L= 0

SPLIT: Basis orbitals for state 2s

SPLIT: PAO cut-off radius determined from an
SPLIT: energy shift=  0.007350 Ry

   izeta = 1
                 lambda =    1.000000
                     rc =    4.632753
                 energy =   -1.002270
                kinetic =    0.855760
    potential(screened) =   -1.858031
       potential(ionic) =   -5.417575

   izeta = 2
                 rmatch =    3.431921
              splitnorm =    0.150000
                 energy =   -0.867111
                kinetic =    1.300804
    potential(screened) =   -2.167915
       potential(ionic) =   -5.962684

SPLIT: Orbitals with angular momentum L= 1

SPLIT: Basis orbitals for state 2p

SPLIT: PAO cut-off radius determined from an
SPLIT: energy shift=  0.007350 Ry

   izeta = 1
                 lambda =    1.000000
                     rc =    5.658549
                 energy =   -0.381140
                kinetic =    2.399701
    potential(screened) =   -2.780841
       potential(ionic) =   -6.206085

   izeta = 2
                 rmatch =    3.653288
              splitnorm =    0.150000
                 energy =   -0.249149
                kinetic =    3.542762
    potential(screened) =   -3.791911
       potential(ionic) =   -7.581078

POLgen: Perturbative polarization orbital with L=  2

POLgen: Polarization orbital for state 2p

   izeta = 1
                     rc =    5.658549
                 energy =    1.109913
                kinetic =    2.304789
    potential(screened) =   -1.194876
       potential(ionic) =   -4.013592
atom: Total number of Sankey-type orbitals: 13

atm_pop: Valence configuration (for local Pseudopot. screening):
 2s( 2.00)                                                            
 2p( 2.00)                                                            
Vna: chval, zval:    4.00000   4.00000

Vna:  Cut-off radius for the neutral-atom potential:   5.658549
comcore: Pseudo-core radius Rcore=  1.791422

atom: _________________________________________________________________________

prinput: Basis input ----------------------------------------------------------

PAO.BasisType split     

%block ChemicalSpeciesLabel
    1    7 N                       # Species index, atomic number, species label
    2    6 C                       # Species index, atomic number, species label
%endblock ChemicalSpeciesLabel

%block PAO.Basis                 # Define Basis set
N                     2                    # Species label, number of l-shells
 n=2   0   2                         # n, l, Nzeta 
   4.071      2.905   
   1.000      1.000   
 n=2   1   2 P   1                   # n, l, Nzeta, Polarization, NzetaPol
   4.973      3.054   
   1.000      1.000   
C                     2                    # Species label, number of l-shells
 n=2   0   2                         # n, l, Nzeta 
   4.633      3.432   
   1.000      1.000   
 n=2   1   2 P   1                   # n, l, Nzeta, Polarization, NzetaPol
   5.659      3.653   
   1.000      1.000   
%endblock PAO.Basis

prinput: ----------------------------------------------------------------------

coor:   Atomic-coordinates input format  =     Fractional

siesta: Atomic coordinates (Bohr) and species
siesta:     -2.35420  38.89134   0.00000  1        1
siesta:     -4.68258  34.85847   0.00000  1        2
siesta:     -4.68258  37.54693   0.00000  1        3
siesta:     -0.02582  13.34970   0.00000  1        4
siesta:     -4.68258  10.66124   0.00000  1        5
siesta:     -4.68258  13.34970   0.00000  1        6
siesta:     -2.35420  14.69411   0.00000  1        7
siesta:     -4.68258  18.72698   0.00000  1        8
siesta:     -4.68258  21.41544   0.00000  1        9
siesta:     -2.35420  22.75985   0.00000  1       10
siesta:     -2.35420  25.44831   0.00000  1       11
siesta:     -7.01096  25.44831   0.00000  1       12
siesta:    -11.66772  22.75985   0.00000  1       13
siesta:    -11.66772  25.44831   0.00000  1       14
siesta:     -9.33934  26.79272   0.00000  1       15
siesta:     -9.33934  29.48119   0.00000  1       16
siesta:     -0.02582  26.79272   0.00000  1       17
siesta:     -4.68258  26.79272   0.00000  1       18
siesta:     -7.01096  30.82560   0.00000  1       19
siesta:     -7.01096  33.51406   0.00000  1       20
siesta:     -0.02582   2.59549   0.00000  2       21
siesta:     -0.02582   5.28395   0.00000  2       22
siesta:     -2.35420  41.57980   0.00000  2       23
siesta:      2.30256  38.89134   0.00000  2       24
siesta:      2.30256  41.57980   0.00000  2       25
siesta:      4.63094  34.85847   0.00000  2       26
siesta:      4.63094  37.54693   0.00000  2       27
siesta:      6.95932  30.82560   0.00000  2       28
siesta:      6.95932  33.51406   0.00000  2       29
siesta:      9.28770  26.79272   0.00000  2       30
siesta:      9.28770  29.48119   0.00000  2       31
siesta:      2.30256   6.62836   0.00000  2       32
siesta:      2.30256   9.31683   0.00000  2       33
siesta:      4.63094  10.66124   0.00000  2       34
siesta:      4.63094  13.34970   0.00000  2       35
siesta:      6.95932  14.69411   0.00000  2       36
siesta:      6.95932  17.38257   0.00000  2       37
siesta:      9.28770  18.72698   0.00000  2       38
siesta:      9.28770  21.41544   0.00000  2       39
siesta:     11.61608  22.75985   0.00000  2       40
siesta:     11.61608  25.44831   0.00000  2       41
siesta:     -2.35420   6.62836   0.00000  2       42
siesta:     -2.35420   9.31683   0.00000  2       43
siesta:     -0.02582  10.66124   0.00000  2       44
siesta:      2.30256  14.69411   0.00000  2       45
siesta:      2.30256  17.38257   0.00000  2       46
siesta:      4.63094  18.72698   0.00000  2       47
siesta:      4.63094  21.41544   0.00000  2       48
siesta:      6.95932  22.75985   0.00000  2       49
siesta:      6.95932  25.44831   0.00000  2       50
siesta:     -2.35420  17.38257   0.00000  2       51
siesta:     -0.02582  18.72698   0.00000  2       52
siesta:     -0.02582  21.41544   0.00000  2       53
siesta:      2.30256  22.75985   0.00000  2       54
siesta:      2.30256  25.44831   0.00000  2       55
siesta:     -7.01096  14.69411   0.00000  2       56
siesta:     -7.01096  17.38257   0.00000  2       57
siesta:     -9.33934  18.72698   0.00000  2       58
siesta:     -9.33934  21.41544   0.00000  2       59
siesta:     -7.01096  22.75985   0.00000  2       60
siesta:      4.63094  26.79272   0.00000  2       61
siesta:      4.63094  29.48119   0.00000  2       62
siesta:     -0.02582  29.48119   0.00000  2       63
siesta:     -4.68258  29.48119   0.00000  2       64
siesta:      2.30256  30.82560   0.00000  2       65
siesta:      2.30256  33.51406   0.00000  2       66
siesta:     -2.35420  30.82560   0.00000  2       67
siesta:     -2.35420  33.51406   0.00000  2       68
siesta:     -0.02582  34.85847   0.00000  2       69
siesta:     -0.02582  37.54693   0.00000  2       70
siesta:     -0.02582  42.92421   0.00000  2       71
siesta:     -0.02582  45.61267   0.00000  2       72

siesta: System type = slab      

initatomlists: Number of atoms, orbitals, and projectors:     72   936  1152

siesta: ******************** Simulation parameters ****************************
siesta:
siesta: The following are some of the parameters of the simulation.
siesta: A complete list of the parameters used, including default values,
siesta: can be found in file out.fdf
siesta:
redata: Non-Collinear-spin run           =     F
redata: SpinPolarized (Up/Down) run      =     F
redata: Number of spin components        =     1
redata: Long output                      =     F
redata: Number of Atomic Species         =        2
redata: Charge density info will appear in .RHO file
redata: Write Mulliken Pop.              =     NO
redata: Mesh Cutoff                      =   200.0000  Ry
redata: Net charge of the system         =     0.0000 |e|
redata: Max. number of SCF Iter          =      500
redata: SCF convergence failure will abort job
redata: Performing Pulay mixing using    =    10 iterations
redata: Mix DM in first SCF step ?       =     F
redata: Write Pulay info on disk?        =     F
redata: Discard 1st Pulay DM after  kick =     F
redata: New DM Mixing Weight             =     0.0500
redata: New DM Occupancy tolerance       = 0.000000000001
redata: No kicks to SCF
redata: DM Mixing Weight for Kicks       =     0.5000
redata: DM Tolerance for SCF             =     0.000100
redata: Require Energy convergence for SCF =     F
redata: DM Energy tolerance for SCF      =     0.000100 eV
redata: Require Harris convergence for SCF =     F
redata: DM Harris energy tolerance for SCF =     0.000100 eV
redata: Using Saved Data (generic)   =     F
redata: Use continuation files for DM    =     T
redata: Neglect nonoverlap interactions  =     F
redata: Method of Calculation            =     Diagonalization
redata: Divide and Conquer               =     T
redata: Electronic Temperature           =     0.0019  Ry
redata: Fix the spin of the system       =     F
redata: Dynamics option                  =     Verlet MD run
redata: Initial MD time step             =        1
redata:   Final MD time step             =        1
redata: Length of MD time step           =     1.0000  fs
redata: Initial Temperature of MD run    =     0.0000  K
redata: Perform a MD quench              =     F
redata: ***********************************************************************
Total number of electrons:   308.000000
Total ionic charge:   308.000000

* ProcessorY, Blocksize:    2  24

k-point displ. along   1 input, could be:     0.50    0.00
k-point displ. along   2 input, could be:     0.50    0.00
 Kpoints in:          231 . Kpoints trimmed:          231

siesta: k-grid: Number of k-points =   231
siesta: k-grid: Cutoff (effective) =     5.000 Ang
siesta: k-grid: Supercell and displacements
siesta: k-grid:   21   0   0      0.500
siesta: k-grid:    0  21   0      0.500
siesta: k-grid:    0   0   1      0.000
Naive supercell factors:     2    2    2

superc: Internal auxiliary supercell:     2 x     2 x     2  =       8
superc: Number of atoms, orbitals, and projectors:    576   7488   9216

* Maximum dynamic memory allocated =     4 MB

siesta:                 ==============================
                            Begin MD step =      1
                        ==============================

superc: Internal auxiliary supercell:     2 x     2 x     2  =       8
superc: Number of atoms, orbitals, and projectors:    576   7488   9216

outcell: Unit cell vectors (Ang):
       12.804619    7.392750    0.000000
        0.000000   14.785500    0.000000
        0.000000    0.000000   10.000000

outcell: Cell vector modules (Ang)   :   14.785500   14.785500   10.000000
outcell: Cell angles (23,13,12) (deg):     90.0000     90.0000     60.0000
outcell: Cell volume (Ang**3)        :   1893.2269
New_DM. Step:     1
Initializing Density Matrix...

InitMesh: MESH =   120 x   120 x    90 =     1296000
InitMesh: Mesh cutoff (required, used) =   200.000   223.865 Ry

* Maximum dynamic memory allocated =   182 MB

stepf: Fermi-Dirac step function

siesta: Program's energy decomposition (eV):
siesta: Ebs     =     -6246.038684
siesta: Eions   =     21617.947954
siesta: Ena     =      4924.619905
siesta: Ekin    =      8056.630787
siesta: Enl     =        50.422002
siesta: DEna    =        -0.000015
siesta: DUscf   =         0.000000
siesta: DUext   =         0.000000
siesta: Exc     =     -4671.478269
siesta: eta*DQ  =         0.000000
siesta: Emadel  =         0.000000
siesta: Emeta   =         0.000000
siesta: Emolmec =         0.000000
siesta: Ekinion =         0.000000
siesta: Eharris =    -12886.011511
siesta: Etot    =    -13257.753544
siesta: FreeEng =    -13257.753544

siesta: iscf   Eharris(eV)      E_KS(eV)   FreeEng(eV)   dDmax  Ef(eV)
siesta:    1   -12886.0115   -13257.7535   -13257.7535  6.2582 -6.8669
timer: Routine,Calls,Time,% = IterSCF        1    4101.609  99.70
elaps: Routine,Calls,Wall,% = IterSCF        1     513.358  99.70
siesta:    2   -18156.2889   -12153.9887   -12154.0466 18.4107 -5.2080
siesta:    3   -12822.5270   -13068.1898   -13068.2491  2.6456 -5.0522
siesta:    4   -12791.3367   -12922.8758   -12922.9127  1.4118 -4.0739
siesta:    5   -12741.7784   -12850.7052   -12850.7695  0.9319 -3.7868
siesta:    6   -12735.6212   -12802.1351   -12802.1573  0.8214 -3.4902
siesta:    7   -12735.3241   -12799.6378   -12799.6776  0.8179 -3.5303
siesta:    8   -12726.1435   -12769.3113   -12769.3390  0.7199 -3.8593
siesta:    9   -12725.4304   -12759.0620   -12759.1160  0.6396 -3.8543
siesta:   10   -12725.2251   -12743.7425   -12743.8134  0.4867 -3.8251
siesta:   11   -12724.4933   -12725.5874   -12725.6750  0.3299 -3.8119
siesta:   12   -12724.8669   -12711.4680   -12711.5268  0.2673 -3.7077
siesta:   13   -12724.2802   -12705.1013   -12705.1513  0.1433 -3.7605
siesta:   14   -12723.9705   -12706.4937   -12706.5854  0.1341 -3.7609
siesta:   15   -12723.7093   -12706.9183   -12706.9936  0.2296 -3.7645
siesta:   16   -12723.5855   -12708.6781   -12708.7434  0.1190 -3.7747
siesta:   17   -12723.4477   -12714.3145   -12714.3862  0.1953 -3.8026
siesta:   18   -12723.4386   -12716.6359   -12716.7125  0.1252 -3.8154
siesta:   19   -12723.3854   -12718.3039   -12718.3747  0.0814 -3.8196
siesta:   20   -12723.3750   -12719.7042   -12719.7840  0.1260 -3.8122
siesta:   21   -12723.3744   -12720.8980   -12720.9819  0.0661 -3.8161
siesta:   22   -12723.3700   -12723.8572   -12723.9388  0.0364 -3.8114
siesta:   23   -12723.3668   -12725.0891   -12725.1702  0.0243 -3.8079
siesta:   24   -12723.3581   -12725.4950   -12725.5741  0.0714 -3.8035
siesta:   25   -12723.3541   -12725.1882   -12725.2693  0.0159 -3.8030
siesta:   26   -12723.3528   -12725.0558   -12725.1364  0.0131 -3.8036
siesta:   27   -12723.3523   -12724.7098   -12724.7903  0.0104 -3.8033
siesta:   28   -12723.3530   -12724.0745   -12724.1552  0.0140 -3.8006
siesta:   29   -12723.3523   -12723.8732   -12723.9532  0.0034 -3.7997
siesta:   30   -12723.3519   -12723.6843   -12723.7648  0.0013 -3.8000
siesta:   31   -12723.3521   -12723.6664   -12723.7470  0.0013 -3.8002
siesta:   32   -12723.3520   -12723.5646   -12723.6450  0.0008 -3.8004
siesta:   33   -12723.3520   -12723.4706   -12723.5510  0.0010 -3.8005
siesta:   34   -12723.3520   -12723.3995   -12723.4800  0.0004 -3.8006
siesta:   35   -12723.3520   -12723.3696   -12723.4501  0.0006 -3.8008
siesta:   36   -12723.3520   -12723.3476   -12723.4280  0.0002 -3.8009
siesta:   37   -12723.3520   -12723.3459   -12723.4263  0.0002 -3.8009
siesta:   38   -12723.3520   -12723.3526   -12723.4330  0.0001 -3.8009
siesta:   39   -12723.3520   -12723.3565   -12723.4370  0.0001 -3.8009

siesta: E_KS(eV) =           -12723.3548

siesta: E_KS - E_eggbox =    -12723.3548

siesta: Atomic forces (eV/Ang):
----------------------------------------
   Tot   -0.062542   -0.188264    0.000000
----------------------------------------
   Max  755.306569
   Res  172.838379    sqrt( Sum f_i^2 / 3N )
----------------------------------------
   Max  755.306569    constrained

Stress-tensor-Voigt (kbar):     -652.50    -3054.99       -0.06       -2.73        0.00        0.00
(Free)E + p*V (eV/cell)   -11263.0963
Target enthalpy (eV/cell)   -12723.4352

siesta: Stress tensor (static) (eV/Ang**3):
        -0.407254   -0.001707    0.000000
        -0.001707   -1.906754    0.000000
         0.000000    0.000000   -0.000040

siesta: Pressure (static):       1235.85094300  kBar

siesta: Stress tensor (total) (eV/Ang**3):
        -0.407254   -0.001707    0.000000
        -0.001707   -1.906754    0.000000
         0.000000    0.000000   -0.000040

siesta: Pressure (total):       1235.85094300  kBar

siesta: Temp_ion =       0.000 K

* Maximum dynamic memory allocated =   199 MB
Computing bands...

siesta: Program's energy decomposition (eV):
siesta: Ebs     =     -5067.207948
siesta: Eions   =     21617.947954
siesta: Ena     =      4924.619905
siesta: Ekin    =     11102.328368
siesta: Enl     =     -1637.848391
siesta: DEna    =      -760.445777
siesta: DUscf   =       104.360360
siesta: DUext   =         0.000000
siesta: Exc     =     -4838.421290
siesta: eta*DQ  =         0.000000
siesta: Emadel  =         0.000000
siesta: Emeta   =         0.000000
siesta: Emolmec =         0.000000
siesta: Ekinion =         0.000000
siesta: Eharris =    -12723.352029
siesta: Etot    =    -12723.354780
siesta: FreeEng =    -12723.435208

siesta: Final energy (eV):
siesta:  Band Struct. =   -5067.207948
siesta:       Kinetic =   11102.328368
siesta:       Hartree =   35596.635851
siesta:    Ext. field =       0.000000
siesta:   Exch.-corr. =   -4838.421290
siesta:  Ion-electron =  -81860.208900
siesta:       Ion-ion =   27276.311190
siesta:       Ekinion =       0.000000
siesta:         Total =  -12723.354780

siesta: Atomic forces (eV/Ang):
siesta:      1    8.751369  115.207489    0.000000
siesta:      2  -23.607454   -3.572729    0.000000
siesta:      3  -26.234190 -751.336512    0.000000
siesta:      4   -2.429890 -121.927961    0.000000
siesta:      5  -27.447168  755.306569    0.000000
siesta:      6  -32.189097   -1.308886    0.000000
siesta:      7   -6.906144  687.597601    0.000000
siesta:      8    1.840542    1.642500    0.000000
siesta:      9   -0.760414    2.762990    0.000000
siesta:     10   -0.828996   -1.537685    0.000000
siesta:     11   -1.798582   -0.513836    0.000000
siesta:     12    2.065509   -2.658939    0.000000
siesta:     13    0.950652    3.539882    0.000000
siesta:     14    1.205735   -2.738288    0.000000
siesta:     15    0.083367    1.283620    0.000000
siesta:     16   -0.332911    0.197223    0.000000
siesta:     17    0.497879    2.275292    0.000000
siesta:     18   -0.781087    1.205806    0.000000
siesta:     19    1.698213   -2.389040    0.000000
siesta:     20   -0.358576   -2.578315    0.000000
siesta:     21    1.421866  546.424570    0.000000
siesta:     22   -2.726172 -129.119231    0.000000
siesta:     23  -18.535418 -650.490681    0.000000
siesta:     24   -0.180341  123.289360    0.000000
siesta:     25   -5.184654 -544.126402    0.000000
siesta:     26   26.620622    4.378622    0.000000
siesta:     27   33.249332 -547.709984    0.000000
siesta:     28    2.172503    0.195005    0.000000
siesta:     29   -3.121874    2.414396    0.000000
siesta:     30    2.019193    2.507820    0.000000
siesta:     31   -1.596421   -0.033226    0.000000
siesta:     32   13.852238  545.718849    0.000000
siesta:     33   -2.581596 -127.229891    0.000000
siesta:     34   34.060304  548.068253    0.000000
siesta:     35   27.221715   -4.788795    0.000000
siesta:     36   -3.026178   -2.189851    0.000000
siesta:     37    1.616644   -0.049935    0.000000
siesta:     38   -1.597094    0.182024    0.000000
siesta:     39    1.953016   -2.736857    0.000000
siesta:     40   -0.033090    7.557498    0.000000
siesta:     41   -0.271964   -7.411250    0.000000
siesta:     42  -34.640386  550.662526    0.000000
siesta:     43    5.075262 -120.785571    0.000000
siesta:     44  -20.298177  538.830085    0.000000
siesta:     45   27.990327  562.238864    0.000000
siesta:     46   23.648034   -4.548215    0.000000
siesta:     47   -1.065443    3.148954    0.000000
siesta:     48    0.688390   -0.620327    0.000000
siesta:     49   -0.313139    0.819665    0.000000
siesta:     50   -0.005240   -0.830670    0.000000
siesta:     51  -21.449224   -7.169988    0.000000
siesta:     52    2.756521  565.953764    0.000000
siesta:     53    0.115820    0.603503    0.000000
siesta:     54   -1.426217    1.025114    0.000000
siesta:     55    0.524854   -1.163042    0.000000
siesta:     56    2.576166    0.345625    0.000000
siesta:     57   -1.418549   -1.253547    0.000000
siesta:     58   -0.166796    0.833688    0.000000
siesta:     59   -1.145132   -0.561074    0.000000
siesta:     60    0.961098    0.680905    0.000000
siesta:     61   -0.631624    0.630336    0.000000
siesta:     62   -1.417850   -2.487424    0.000000
siesta:     63   -1.319098 -564.080937    0.000000
siesta:     64   -0.197838   -1.712394    0.000000
siesta:     65   22.762301    6.266852    0.000000
siesta:     66   24.526279 -556.622207    0.000000
siesta:     67  -22.948882    6.639003    0.000000
siesta:     68   -6.389818 -570.819035    0.000000
siesta:     69    0.478472  128.096849    0.000000
siesta:     70    4.872615 -555.370897    0.000000
siesta:     71    2.912948  124.200075    0.000000
siesta:     72   -3.869604 -548.445817    0.000000
siesta: ----------------------------------------
siesta:    Tot   -0.062542   -0.188264    0.000000

siesta: Stress tensor (static) (eV/Ang**3):
siesta:    -0.407254   -0.001707    0.000000
siesta:    -0.001707   -1.906754    0.000000
siesta:     0.000000    0.000000   -0.000040

siesta: Cell volume =       1893.226884 Ang**3

siesta: Pressure (static):
siesta:                Solid            Molecule  Units
siesta:           0.00840098          0.13567029  Ry/Bohr**3
siesta:           0.77134915         12.45678448  eV/Ang**3
siesta:        1235.85094300      19958.18476192  kBar
(Free)E+ p_basis*V_orbitals  =      -12695.556862
(Free)Eharris+ p_basis*V_orbitals  =      -12695.552358

siesta: Electric dipole (a.u.)  =    0.000000    0.000000    0.000000
siesta: Electric dipole (Debye) =    0.000000    0.000000    0.000000

* Maximum dynamic memory allocated : Node    0 =   199 MB
* Maximum dynamic memory allocated : Node    1 =    72 MB
* Maximum dynamic memory allocated : Node    2 =    73 MB
* Maximum dynamic memory allocated : Node    3 =   190 MB
* Maximum dynamic memory allocated : Node    4 =   188 MB
* Maximum dynamic memory allocated : Node    5 =    71 MB
* Maximum dynamic memory allocated : Node    6 =    72 MB
* Maximum dynamic memory allocated : Node    7 =   171 MB

* Maximum memory occured during matrixMtoO                    

timer: CPU execution times:
timer:  Routine       Calls   Time/call    Tot.time        %
timer:  siesta            1  157341.159  157341.159   100.00
timer:  Setup             1       3.879       3.879     0.00
timer:  bands             3     269.254     807.762     0.51
timer:  writewave         1       0.043       0.043     0.00
timer:  KSV_init          1       0.005       0.005     0.00
timer:  IterMD            1  156523.798  156523.798    99.48
timer:  hsparse           1       0.231       0.231     0.00
timer:  overlap           1       7.705       7.705     0.00
timer:  IterSCF          39    4008.966  156349.687    99.37
timer:  kinefsm           2       3.962       7.923     0.01
timer:  nlefsm            2      18.351      36.701     0.02
timer:  DHSCF            40      85.363    3414.501     2.17
timer:  DHSCF1            1       0.765       0.765     0.00
timer:  DHSCF2            1      32.829      32.829     0.02
timer:  REORD           322       0.010       3.228     0.00
timer:  POISON           41       2.242      91.910     0.06
timer:  DHSCF3           40      83.724    3348.950     2.13
timer:  rhoofd           40      16.811     672.437     0.43
timer:  cellXC           40       3.463     138.524     0.09
timer:  vmat             40      40.020    1600.783     1.02
timer:  MolMec            2       0.001       0.003     0.00
timer:  diagon           39    3922.156  152964.077    97.22
timer:  c-eigval       9130       6.671   60902.400    38.71
timer:  c-buildHS      9130       0.111    1010.168     0.64
timer:  cdiag         18139       6.865  124515.928    79.14
timer:  cdiag1        18139       0.426    7731.869     4.91
timer:  cdiag2        18139       1.913   34698.722    22.05
timer:  cdiag3        18139       3.942   71507.222    45.45
timer:  cdiag4        18139       0.203    3689.207     2.34
timer:  c-eigvec       9009       7.224   65080.694    41.36
timer:  c-buildD       9009       3.079   27739.164    17.63
timer:  DHSCF4            1      29.812      29.812     0.02
timer:  dfscf             1      28.031      28.031     0.02
timer:  overfsm           1       0.402       0.402     0.00
timer:  optical           1       5.025       5.025     0.00
  

elaps: ELAPSED times:
elaps:  Routine       Calls   Time/call    Tot.time        %
elaps:  siesta            1   19688.843   19688.843   100.00
elaps:  Setup             1       0.502       0.502     0.00
elaps:  bands             3      33.708     101.125     0.51
elaps:  writewave         1       0.006       0.006     0.00
elaps:  KSV_init          1       0.001       0.001     0.00
elaps:  IterMD            1   19586.552   19586.552    99.48
elaps:  hsparse           1       0.029       0.029     0.00
elaps:  overlap           1       0.967       0.967     0.00
elaps:  IterSCF          39     501.664   19564.885    99.37
elaps:  kinefsm           2       0.497       0.994     0.01
elaps:  nlefsm            2       2.278       4.557     0.02
elaps:  DHSCF            40      10.781     431.224     2.19
elaps:  DHSCF1            1       0.098       0.098     0.00
elaps:  DHSCF2            1       4.101       4.101     0.02
elaps:  REORD           322       0.001       0.435     0.00
elaps:  POISON           41       0.280      11.488     0.06
elaps:  DHSCF3           40      10.474     418.977     2.13
elaps:  rhoofd           40       4.676     187.056     0.95
elaps:  cellXC           40       0.433      17.302     0.09
elaps:  vmat             40       5.006     200.254     1.02
elaps:  MolMec            2       0.000       0.000     0.00
elaps:  diagon           39     490.791   19140.830    97.22
elaps:  c-eigval       9130       0.835    7620.005    38.70
elaps:  c-buildHS      9130       0.015     139.127     0.71
elaps:  cdiag         18139       0.860   15595.909    79.21
elaps:  cdiag1        18139       0.053     957.591     4.86
elaps:  cdiag2        18139       0.239    4341.764    22.05
elaps:  cdiag3        18139       0.494    8959.026    45.50
elaps:  cdiag4        18139       0.026     475.876     2.42
elaps:  c-eigvec       9009       0.909    8192.141    41.61
elaps:  c-buildD       9009       0.380    3422.678    17.38
elaps:  DHSCF4            1       7.756       7.756     0.04
elaps:  dfscf             1       7.378       7.378     0.04
elaps:  overfsm           1       0.049       0.049     0.00
elaps:  optical           1       0.001       0.001     0.00
  
>> End of run:  28-APR-2016  17:06:20
