Siesta Version:                                        siesta-3.2-pl-3
Architecture  : x86_64-unknown-linux-gnu--unknown
Compiler flags: mpiifort -g -O2 -fPIC -xSSE4.1 -fp-model source -shared-intel 
PARALLEL version

* Running on    8 nodes in parallel
>> Start of run:  20-APR-2016   0:22:23

                           ***********************       
                           *  WELCOME TO SIESTA  *       
                           ***********************       

reinit: Reading from standard input
************************** Dump of input data file ****************************
#(1) General system descriptors
SystemName            GRP_doping    # Descriptive name of the system
SystemLabel           GRP_doping    # Short name for naming files
%include STRUCT.fdf
%include KPT.fdf
%include BASIS.fdf
#%include TS.fdf # for transiesta calculation
#(4) DFT, Grid, SCF
XC.functional         GGA           # LDA or GGA (default = LDA)
XC.authors            PBE           # CA (Ceperley-Aldr) = PZ
                                    #    (Perdew-Zunger) - LDA - Default
                                    # PW92 (Perdew-Wang-92) - LDA
                                    # PBE (Perdew-Burke-Ernzerhof) - GGA
MeshCutoff            200.000000    Ry      # Default: 50.0 Ry ~ 0.444 Bohr
                                    #         100.0 Ry ~ 0.314 Bohr
MaxSCFIterations      500           # Default: 50
DM.MixingWeight       0.05          # Default: 0.25
DM.NumberPulay        10            # Default: 0
DM.PulayOnFile        F             # SystemLabel.P1, SystemLabel.P2
DM.Tolerance          1.d-4         # Default: 1.d-4
DM.UseSaveDM          .true.        # because of the bug
SCFMustConverge       .true.
NeglNonOverlapInt     F             # Default: F
#(5) Eigenvalue problem: order-N or diagonalization
SolutionMethod        Diagon        # or Transiesta
ElectronicTemperature 300.0 K       # Default: 300.0 K
#(6) Molecular dynamics and relaxations
#MD.TypeOfRun          CG            # Type of dynamics:
#MD.VariableCell       F
#MD.NumCGsteps         0           # 0 for single-point / 100 for gopt
#MD.MaxCGDispl         0.2 Bohr      # Default: 0.2 Bohr
#MD.MaxForceTol        0.02 eV/Ang   # Default: 0.04 eV/Ang
#MD.MaxStressTol       1.0 GPa       # Default: 1.0 GPa
# Geometry Constraints
#%block GeometryConstraints
#	position from 1 to 44
#%endblock GeometryConstraints
BandLinesScale   pi/a
%block BandLines
 1   0.00000000  0.00000000  0.00000000
50   0.00000000  0.07809418  0.00000000
50   0.04509075  0.07809242  0.00000000
20   0.00000000  0.00000000  0.00000000
%endblock BandLines
************************** End of input data file *****************************

reinit: -----------------------------------------------------------------------
reinit: System Name: GRP_doping
reinit: -----------------------------------------------------------------------
reinit: System Label: GRP_doping                                                  
reinit: -----------------------------------------------------------------------

initatom: Reading input for the pseudopotentials and atomic orbitals ----------
 Species number:            1  Label: N Atomic number:           7
 Species number:            2  Label: C Atomic number:           6
Ground state valence configuration:   2s02  2p03
Reading pseudopotential information in formatted form from N.psf

Valence configuration for pseudopotential generation:
2s( 2.00) rc: 1.48
2p( 3.00) rc: 1.48
3d( 0.00) rc: 1.48
4f( 0.00) rc: 1.48
Ground state valence configuration:   2s02  2p02
Reading pseudopotential information in formatted form from C.psf

Valence configuration for pseudopotential generation:
2s( 2.00) rc: 1.54
2p( 2.00) rc: 1.54
3d( 0.00) rc: 1.54
4f( 0.00) rc: 1.54
For N, standard SIESTA heuristics set lmxkb to 3
 (one more than the basis l, including polarization orbitals).
Use PS.lmax or PS.KBprojectors blocks to override.
For C, standard SIESTA heuristics set lmxkb to 3
 (one more than the basis l, including polarization orbitals).
Use PS.lmax or PS.KBprojectors blocks to override.

<basis_specs>
===============================================================================
N                    Z=   7    Mass=  14.010        Charge= 0.17977+309
Lmxo=1 Lmxkb= 3    BasisType=split      Semic=F
L=0  Nsemic=0  Cnfigmx=2
          n=1  nzeta=2  polorb=0
            splnorm:   0.15000    
               vcte:    0.0000    
               rinn:    0.0000    
                rcs:    0.0000      0.0000    
            lambdas:    1.0000      1.0000    
L=1  Nsemic=0  Cnfigmx=2
          n=1  nzeta=2  polorb=1
            splnorm:   0.15000    
               vcte:    0.0000    
               rinn:    0.0000    
                rcs:    0.0000      0.0000    
            lambdas:    1.0000      1.0000    
-------------------------------------------------------------------------------
L=0  Nkbl=1  erefs: 0.17977+309
L=1  Nkbl=1  erefs: 0.17977+309
L=2  Nkbl=1  erefs: 0.17977+309
L=3  Nkbl=1  erefs: 0.17977+309
===============================================================================
</basis_specs>

atom: Called for N                     (Z =   7)

read_vps: Pseudopotential generation method:
read_vps: ATM3      Troullier-Martins                       
Total valence charge:    5.00000

read_vps: Pseudopotential includes a core correction:
read_vps: Pseudo-core for xc-correction

xc_check: Exchange-correlation functional:
xc_check: GGA Perdew, Burke & Ernzerhof 1996
V l=0 = -2*Zval/r beyond r=  1.4606
V l=1 = -2*Zval/r beyond r=  1.4606
V l=2 = -2*Zval/r beyond r=  1.4606
V l=3 = -2*Zval/r beyond r=  1.4606
All V_l potentials equal beyond r=  1.4606
This should be close to max(r_c) in ps generation
All pots = -2*Zval/r beyond r=  1.4606

VLOCAL1: 99.0% of the norm of Vloc inside     20.347 Ry
VLOCAL1: 99.9% of the norm of Vloc inside     46.372 Ry
atom: Maximum radius for 4*pi*r*r*local-pseudopot. charge    1.76189
atom: Maximum radius for r*vlocal+2*Zval:    1.53550
GHOST: No ghost state for L =  0
GHOST: No ghost state for L =  1
GHOST: No ghost state for L =  2
GHOST: No ghost state for L =  3

KBgen: Kleinman-Bylander projectors: 
   l= 0   rc=  1.634559   el= -1.363963   Ekb=  5.296955   kbcos=  0.335621
   l= 1   rc=  1.614250   el= -0.521451   Ekb= -5.259161   kbcos= -0.433408
   l= 2   rc=  1.718383   el=  0.001991   Ekb= -1.271464   kbcos= -0.007566
   l= 3   rc=  1.761893   el=  0.003093   Ekb= -0.494769   kbcos= -0.001015

KBgen: Total number of  Kleinman-Bylander projectors:   16
atom: -------------------------------------------------------------------------

atom: SANKEY-TYPE ORBITALS:
atom: Selected multiple-zeta basis: split     

SPLIT: Orbitals with angular momentum L= 0

SPLIT: Basis orbitals for state 2s

SPLIT: PAO cut-off radius determined from an
SPLIT: energy shift=  0.007350 Ry

   izeta = 1
                 lambda =    1.000000
                     rc =    4.071465
                 energy =   -1.356470
                kinetic =    1.176977
    potential(screened) =   -2.533447
       potential(ionic) =   -8.057990

   izeta = 2
                 rmatch =    2.905100
              splitnorm =    0.150000
                 energy =   -1.158343
                kinetic =    1.813009
    potential(screened) =   -2.971352
       potential(ionic) =   -8.901931

SPLIT: Orbitals with angular momentum L= 1

SPLIT: Basis orbitals for state 2p

SPLIT: PAO cut-off radius determined from an
SPLIT: energy shift=  0.007350 Ry

   izeta = 1
                 lambda =    1.000000
                     rc =    4.972977
                 energy =   -0.513884
                kinetic =    3.441732
    potential(screened) =   -3.955616
       potential(ionic) =   -9.287901

   izeta = 2
                 rmatch =    3.054066
              splitnorm =    0.150000
                 energy =   -0.318226
                kinetic =    5.125348
    potential(screened) =   -5.443573
       potential(ionic) =  -11.380999

POLgen: Perturbative polarization orbital with L=  2

POLgen: Polarization orbital for state 2p

   izeta = 1
                     rc =    4.972977
                 energy =    1.607437
                kinetic =    3.268125
    potential(screened) =   -1.660688
       potential(ionic) =   -5.973652
atom: Total number of Sankey-type orbitals: 13

atm_pop: Valence configuration (for local Pseudopot. screening):
 2s( 2.00)                                                            
 2p( 3.00)                                                            
Vna: chval, zval:    5.00000   5.00000

Vna:  Cut-off radius for the neutral-atom potential:   4.972977
comcore: Pseudo-core radius Rcore=  1.554824

atom: _________________________________________________________________________

<basis_specs>
===============================================================================
C                    Z=   6    Mass=  12.010        Charge= 0.17977+309
Lmxo=1 Lmxkb= 3    BasisType=split      Semic=F
L=0  Nsemic=0  Cnfigmx=2
          n=1  nzeta=2  polorb=0
            splnorm:   0.15000    
               vcte:    0.0000    
               rinn:    0.0000    
                rcs:    0.0000      0.0000    
            lambdas:    1.0000      1.0000    
L=1  Nsemic=0  Cnfigmx=2
          n=1  nzeta=2  polorb=1
            splnorm:   0.15000    
               vcte:    0.0000    
               rinn:    0.0000    
                rcs:    0.0000      0.0000    
            lambdas:    1.0000      1.0000    
-------------------------------------------------------------------------------
L=0  Nkbl=1  erefs: 0.17977+309
L=1  Nkbl=1  erefs: 0.17977+309
L=2  Nkbl=1  erefs: 0.17977+309
L=3  Nkbl=1  erefs: 0.17977+309
===============================================================================
</basis_specs>

atom: Called for C                     (Z =   6)

read_vps: Pseudopotential generation method:
read_vps: ATM3      Troullier-Martins                       
Total valence charge:    4.00000

read_vps: Pseudopotential includes a core correction:
read_vps: Pseudo-core for xc-correction

xc_check: Exchange-correlation functional:
xc_check: GGA Perdew, Burke & Ernzerhof 1996
V l=0 = -2*Zval/r beyond r=  1.5227
V l=1 = -2*Zval/r beyond r=  1.5227
V l=2 = -2*Zval/r beyond r=  1.5227
V l=3 = -2*Zval/r beyond r=  1.5038
All V_l potentials equal beyond r=  1.5227
This should be close to max(r_c) in ps generation
All pots = -2*Zval/r beyond r=  1.5227

VLOCAL1: 99.0% of the norm of Vloc inside     18.722 Ry
VLOCAL1: 99.9% of the norm of Vloc inside     42.668 Ry
atom: Maximum radius for 4*pi*r*r*local-pseudopot. charge    1.83678
atom: Maximum radius for r*vlocal+2*Zval:    1.58088
GHOST: No ghost state for L =  0
GHOST: No ghost state for L =  1
GHOST: No ghost state for L =  2
GHOST: No ghost state for L =  3

KBgen: Kleinman-Bylander projectors: 
   l= 0   rc=  1.704034   el= -1.009801   Ekb=  5.335044   kbcos=  0.316824
   l= 1   rc=  1.704034   el= -0.388707   Ekb= -3.785862   kbcos= -0.366464
   l= 2   rc=  1.791422   el=  0.001971   Ekb= -0.970471   kbcos= -0.009212
   l= 3   rc=  1.859892   el=  0.003065   Ekb= -0.399525   kbcos= -0.001223

KBgen: Total number of  Kleinman-Bylander projectors:   16
atom: -------------------------------------------------------------------------

atom: SANKEY-TYPE ORBITALS:
atom: Selected multiple-zeta basis: split     

SPLIT: Orbitals with angular momentum L= 0

SPLIT: Basis orbitals for state 2s

SPLIT: PAO cut-off radius determined from an
SPLIT: energy shift=  0.007350 Ry

   izeta = 1
                 lambda =    1.000000
                     rc =    4.632753
                 energy =   -1.002270
                kinetic =    0.855760
    potential(screened) =   -1.858031
       potential(ionic) =   -5.417575

   izeta = 2
                 rmatch =    3.431921
              splitnorm =    0.150000
                 energy =   -0.867111
                kinetic =    1.300804
    potential(screened) =   -2.167915
       potential(ionic) =   -5.962684

SPLIT: Orbitals with angular momentum L= 1

SPLIT: Basis orbitals for state 2p

SPLIT: PAO cut-off radius determined from an
SPLIT: energy shift=  0.007350 Ry

   izeta = 1
                 lambda =    1.000000
                     rc =    5.658549
                 energy =   -0.381140
                kinetic =    2.399701
    potential(screened) =   -2.780841
       potential(ionic) =   -6.206085

   izeta = 2
                 rmatch =    3.653288
              splitnorm =    0.150000
                 energy =   -0.249149
                kinetic =    3.542762
    potential(screened) =   -3.791911
       potential(ionic) =   -7.581078

POLgen: Perturbative polarization orbital with L=  2

POLgen: Polarization orbital for state 2p

   izeta = 1
                     rc =    5.658549
                 energy =    1.109913
                kinetic =    2.304789
    potential(screened) =   -1.194876
       potential(ionic) =   -4.013592
atom: Total number of Sankey-type orbitals: 13

atm_pop: Valence configuration (for local Pseudopot. screening):
 2s( 2.00)                                                            
 2p( 2.00)                                                            
Vna: chval, zval:    4.00000   4.00000

Vna:  Cut-off radius for the neutral-atom potential:   5.658549
comcore: Pseudo-core radius Rcore=  1.791422

atom: _________________________________________________________________________

prinput: Basis input ----------------------------------------------------------

PAO.BasisType split     

%block ChemicalSpeciesLabel
    1    7 N                       # Species index, atomic number, species label
    2    6 C                       # Species index, atomic number, species label
%endblock ChemicalSpeciesLabel

%block PAO.Basis                 # Define Basis set
N                     2                    # Species label, number of l-shells
 n=2   0   2                         # n, l, Nzeta 
   4.071      2.905   
   1.000      1.000   
 n=2   1   2 P   1                   # n, l, Nzeta, Polarization, NzetaPol
   4.973      3.054   
   1.000      1.000   
C                     2                    # Species label, number of l-shells
 n=2   0   2                         # n, l, Nzeta 
   4.633      3.432   
   1.000      1.000   
 n=2   1   2 P   1                   # n, l, Nzeta, Polarization, NzetaPol
   5.659      3.653   
   1.000      1.000   
%endblock PAO.Basis

prinput: ----------------------------------------------------------------------

coor:   Atomic-coordinates input format  =     Fractional

siesta: Atomic coordinates (Bohr) and species
siesta:     -0.02582   2.59549   0.00000  1        1
siesta:     -0.02582   5.28395   0.00000  1        2
siesta:     -2.35420  38.89134   0.00000  1        3
siesta:     -4.68258  34.85847   0.00000  1        4
siesta:     -4.68258  37.54693   0.00000  1        5
siesta:      2.30256   6.62836   0.00000  1        6
siesta:      2.30256   9.31683   0.00000  1        7
siesta:     -2.35420   6.62836   0.00000  1        8
siesta:     -2.35420   9.31683   0.00000  1        9
siesta:     -0.02582  10.66124   0.00000  1       10
siesta:     -0.02582  13.34970   0.00000  1       11
siesta:     -2.35420  14.69411   0.00000  1       12
siesta:     -2.35420  17.38257   0.00000  1       13
siesta:     -0.02582  18.72698   0.00000  1       14
siesta:     -0.02582  21.41544   0.00000  1       15
siesta:     -4.68258  18.72698   0.00000  1       16
siesta:     -4.68258  21.41544   0.00000  1       17
siesta:     -2.35420  22.75985   0.00000  1       18
siesta:     -2.35420  25.44831   0.00000  1       19
siesta:     -9.33934  29.48119   0.00000  1       20
siesta:     -4.68258  26.79272   0.00000  1       21
siesta:     -4.68258  29.48119   0.00000  1       22
siesta:     -2.35420  30.82560   0.00000  1       23
siesta:     -2.35420  33.51406   0.00000  1       24
siesta:     -7.01096  30.82560   0.00000  1       25
siesta:     -7.01096  33.51406   0.00000  1       26
siesta:     -2.35420  41.57980   0.00000  2       27
siesta:      2.30256  38.89134   0.00000  2       28
siesta:      2.30256  41.57980   0.00000  2       29
siesta:      4.63094  34.85847   0.00000  2       30
siesta:      4.63094  37.54693   0.00000  2       31
siesta:      6.95932  30.82560   0.00000  2       32
siesta:      6.95932  33.51406   0.00000  2       33
siesta:      9.28770  26.79272   0.00000  2       34
siesta:      9.28770  29.48119   0.00000  2       35
siesta:      4.63094  10.66124   0.00000  2       36
siesta:      4.63094  13.34970   0.00000  2       37
siesta:      6.95932  14.69411   0.00000  2       38
siesta:      6.95932  17.38257   0.00000  2       39
siesta:      9.28770  18.72698   0.00000  2       40
siesta:      9.28770  21.41544   0.00000  2       41
siesta:     11.61608  22.75985   0.00000  2       42
siesta:     11.61608  25.44831   0.00000  2       43
siesta:      2.30256  14.69411   0.00000  2       44
siesta:      2.30256  17.38257   0.00000  2       45
siesta:      4.63094  18.72698   0.00000  2       46
siesta:      4.63094  21.41544   0.00000  2       47
siesta:      6.95932  22.75985   0.00000  2       48
siesta:      6.95932  25.44831   0.00000  2       49
siesta:     -4.68258  10.66124   0.00000  2       50
siesta:     -4.68258  13.34970   0.00000  2       51
siesta:      2.30256  22.75985   0.00000  2       52
siesta:      2.30256  25.44831   0.00000  2       53
siesta:     -7.01096  14.69411   0.00000  2       54
siesta:     -7.01096  17.38257   0.00000  2       55
siesta:     -9.33934  18.72698   0.00000  2       56
siesta:     -9.33934  21.41544   0.00000  2       57
siesta:     -7.01096  22.75985   0.00000  2       58
siesta:     -7.01096  25.44831   0.00000  2       59
siesta:    -11.66772  22.75985   0.00000  2       60
siesta:    -11.66772  25.44831   0.00000  2       61
siesta:     -9.33934  26.79272   0.00000  2       62
siesta:      4.63094  26.79272   0.00000  2       63
siesta:      4.63094  29.48119   0.00000  2       64
siesta:     -0.02582  26.79272   0.00000  2       65
siesta:     -0.02582  29.48119   0.00000  2       66
siesta:      2.30256  30.82560   0.00000  2       67
siesta:      2.30256  33.51406   0.00000  2       68
siesta:     -0.02582  34.85847   0.00000  2       69
siesta:     -0.02582  37.54693   0.00000  2       70
siesta:     -0.02582  42.92421   0.00000  2       71
siesta:     -0.02582  45.61267   0.00000  2       72

siesta: System type = slab      

initatomlists: Number of atoms, orbitals, and projectors:     72   936  1152

siesta: ******************** Simulation parameters ****************************
siesta:
siesta: The following are some of the parameters of the simulation.
siesta: A complete list of the parameters used, including default values,
siesta: can be found in file out.fdf
siesta:
redata: Non-Collinear-spin run           =     F
redata: SpinPolarized (Up/Down) run      =     F
redata: Number of spin components        =     1
redata: Long output                      =     F
redata: Number of Atomic Species         =        2
redata: Charge density info will appear in .RHO file
redata: Write Mulliken Pop.              =     NO
redata: Mesh Cutoff                      =   200.0000  Ry
redata: Net charge of the system         =     0.0000 |e|
redata: Max. number of SCF Iter          =      500
redata: SCF convergence failure will abort job
redata: Performing Pulay mixing using    =    10 iterations
redata: Mix DM in first SCF step ?       =     F
redata: Write Pulay info on disk?        =     F
redata: Discard 1st Pulay DM after  kick =     F
redata: New DM Mixing Weight             =     0.0500
redata: New DM Occupancy tolerance       = 0.000000000001
redata: No kicks to SCF
redata: DM Mixing Weight for Kicks       =     0.5000
redata: DM Tolerance for SCF             =     0.000100
redata: Require Energy convergence for SCF =     F
redata: DM Energy tolerance for SCF      =     0.000100 eV
redata: Require Harris convergence for SCF =     F
redata: DM Harris energy tolerance for SCF =     0.000100 eV
redata: Using Saved Data (generic)   =     F
redata: Use continuation files for DM    =     T
redata: Neglect nonoverlap interactions  =     F
redata: Method of Calculation            =     Diagonalization
redata: Divide and Conquer               =     T
redata: Electronic Temperature           =     0.0019  Ry
redata: Fix the spin of the system       =     F
redata: Dynamics option                  =     Verlet MD run
redata: Initial MD time step             =        1
redata:   Final MD time step             =        1
redata: Length of MD time step           =     1.0000  fs
redata: Initial Temperature of MD run    =     0.0000  K
redata: Perform a MD quench              =     F
redata: ***********************************************************************
Total number of electrons:   314.000000
Total ionic charge:   314.000000

* ProcessorY, Blocksize:    2  24

k-point displ. along   1 input, could be:     0.50    0.00
k-point displ. along   2 input, could be:     0.50    0.00
 Kpoints in:          231 . Kpoints trimmed:          231

siesta: k-grid: Number of k-points =   231
siesta: k-grid: Cutoff (effective) =     5.000 Ang
siesta: k-grid: Supercell and displacements
siesta: k-grid:   21   0   0      0.500
siesta: k-grid:    0  21   0      0.500
siesta: k-grid:    0   0   1      0.000
Naive supercell factors:     2    2    2

superc: Internal auxiliary supercell:     2 x     2 x     2  =       8
superc: Number of atoms, orbitals, and projectors:    576   7488   9216

* Maximum dynamic memory allocated =     4 MB

siesta:                 ==============================
                            Begin MD step =      1
                        ==============================

superc: Internal auxiliary supercell:     2 x     2 x     2  =       8
superc: Number of atoms, orbitals, and projectors:    576   7488   9216

outcell: Unit cell vectors (Ang):
       12.804619    7.392750    0.000000
        0.000000   14.785500    0.000000
        0.000000    0.000000   10.000000

outcell: Cell vector modules (Ang)   :   14.785500   14.785500   10.000000
outcell: Cell angles (23,13,12) (deg):     90.0000     90.0000     60.0000
outcell: Cell volume (Ang**3)        :   1893.2269
New_DM. Step:     1
Initializing Density Matrix...

InitMesh: MESH =   120 x   120 x    90 =     1296000
InitMesh: Mesh cutoff (required, used) =   200.000   223.865 Ry

* Maximum dynamic memory allocated =   177 MB

stepf: Fermi-Dirac step function

siesta: Program's energy decomposition (eV):
siesta: Ebs     =     -6441.833587
siesta: Eions   =     22582.429020
siesta: Ena     =      5009.607287
siesta: Ekin    =      8560.167659
siesta: Enl     =      -147.191926
siesta: DEna    =        -0.000015
siesta: DUscf   =         0.000000
siesta: DUext   =         0.000000
siesta: Exc     =     -4836.630049
siesta: eta*DQ  =         0.000000
siesta: Emadel  =         0.000000
siesta: Emeta   =         0.000000
siesta: Emolmec =         0.000000
siesta: Ekinion =         0.000000
siesta: Eharris =    -13561.209289
siesta: Etot    =    -13996.476063
siesta: FreeEng =    -13996.476063

siesta: iscf   Eharris(eV)      E_KS(eV)   FreeEng(eV)   dDmax  Ef(eV)
siesta:    1   -13561.2093   -13996.4761   -13996.4761  6.3155 -6.4229
timer: Routine,Calls,Time,% = IterSCF        1    4064.973  99.70
elaps: Routine,Calls,Wall,% = IterSCF        1     508.761  99.70
siesta:    2   -17325.7812   -12992.5521   -12992.5522 15.5418 -3.5263
siesta:    3   -13462.1993   -13807.8655   -13807.9260  2.8120 -5.0695
siesta:    4   -13440.0519   -13613.7591   -13613.8100  0.9566 -4.2566
siesta:    5   -13410.2098   -13545.1362   -13545.1947  0.8322 -3.9052
siesta:    6   -13406.5141   -13516.0608   -13516.0988  0.8460 -3.8550
siesta:    7   -13404.5091   -13505.6047   -13505.6672  0.7742 -3.8452
siesta:    8   -13401.9259   -13481.4401   -13481.4993  0.5904 -3.8553
siesta:    9   -13402.0812   -13448.6072   -13448.6484  0.4715 -3.8198
siesta:   10   -13402.1686   -13422.0954   -13422.1492  0.2980 -3.8191
siesta:   11   -13401.0099   -13403.9021   -13403.9626  0.2290 -3.7739
siesta:   12   -13401.2335   -13390.0321   -13390.0580  0.4470 -3.7037
siesta:   13   -13400.7311   -13386.3800   -13386.4296  0.1857 -3.7451
siesta:   14   -13400.1287   -13388.0227   -13388.0857  0.1128 -3.7817
siesta:   15   -13399.9718   -13389.3334   -13389.4045  0.1508 -3.8050
siesta:   16   -13399.8823   -13392.7815   -13392.8488  0.0924 -3.8162
siesta:   17   -13399.8586   -13394.8442   -13394.9164  0.0898 -3.8225
siesta:   18   -13399.8333   -13396.6079   -13396.6761  0.0560 -3.8224
siesta:   19   -13399.8260   -13398.1803   -13398.2520  0.0252 -3.8211
siesta:   20   -13399.8243   -13399.4375   -13399.5081  0.0406 -3.8161
siesta:   21   -13399.8220   -13399.7439   -13399.8139  0.0261 -3.8126
siesta:   22   -13399.8199   -13399.8129   -13399.8831  0.0198 -3.8090
siesta:   23   -13399.8178   -13399.5712   -13399.6416  0.0107 -3.8045
siesta:   24   -13399.8176   -13399.5470   -13399.6180  0.0037 -3.8048
siesta:   25   -13399.8174   -13399.6272   -13399.6979  0.0037 -3.8052
siesta:   26   -13399.8173   -13399.8799   -13399.9507  0.0044 -3.8068
siesta:   27   -13399.8172   -13399.9124   -13399.9830  0.0012 -3.8066
siesta:   28   -13399.8172   -13399.9024   -13399.9731  0.0011 -3.8066
siesta:   29   -13399.8172   -13399.8669   -13399.9377  0.0008 -3.8068
siesta:   30   -13399.8171   -13399.8631   -13399.9338  0.0007 -3.8068
siesta:   31   -13399.8172   -13399.8502   -13399.9209  0.0003 -3.8070
siesta:   32   -13399.8171   -13399.8438   -13399.9145  0.0002 -3.8070
siesta:   33   -13399.8172   -13399.8345   -13399.9052  0.0002 -3.8070
siesta:   34   -13399.8172   -13399.8270   -13399.8977  0.0001 -3.8071

siesta: E_KS(eV) =           -13399.8245

siesta: E_KS - E_eggbox =    -13399.8245

siesta: Atomic forces (eV/Ang):
----------------------------------------
   Tot    0.012289   -0.025494    0.000000
----------------------------------------
   Max  775.264241
   Res  190.564739    sqrt( Sum f_i^2 / 3N )
----------------------------------------
   Max  775.264241    constrained

Stress-tensor-Voigt (kbar):     -651.27    -3472.15       -0.09        5.35        0.00        0.00
(Free)E + p*V (eV/cell)   -11775.7208
Target enthalpy (eV/cell)   -13399.8952

siesta: Stress tensor (static) (eV/Ang**3):
        -0.406485    0.003336    0.000000
         0.003336   -2.167120    0.000000
         0.000000    0.000000   -0.000056

siesta: Pressure (static):       1374.50107953  kBar

siesta: Stress tensor (total) (eV/Ang**3):
        -0.406485    0.003336    0.000000
         0.003336   -2.167120    0.000000
         0.000000    0.000000   -0.000056

siesta: Pressure (total):       1374.50107953  kBar

siesta: Temp_ion =       0.000 K

* Maximum dynamic memory allocated =   193 MB
Computing bands...

siesta: Program's energy decomposition (eV):
siesta: Ebs     =     -5200.018491
siesta: Eions   =     22582.429020
siesta: Ena     =      5009.607287
siesta: Ekin    =     11850.778186
siesta: Enl     =     -1923.658981
siesta: DEna    =      -846.720633
siesta: DUscf   =       116.582034
siesta: DUext   =         0.000000
siesta: Exc     =     -5023.983349
siesta: eta*DQ  =         0.000000
siesta: Emadel  =         0.000000
siesta: Emeta   =         0.000000
siesta: Emolmec =         0.000000
siesta: Ekinion =         0.000000
siesta: Eharris =    -13399.817151
siesta: Etot    =    -13399.824475
siesta: FreeEng =    -13399.895225

siesta: Final energy (eV):
siesta:  Band Struct. =   -5200.018491
siesta:       Kinetic =   11850.778186
siesta:       Hartree =   39071.637833
siesta:    Ext. field =       0.000000
siesta:   Exch.-corr. =   -5023.983349
siesta:  Ion-electron =  -89469.867516
siesta:       Ion-ion =   30171.610371
siesta:       Ekinion =       0.000000
siesta:         Total =  -13399.824475

siesta: Atomic forces (eV/Ang):
siesta:      1    0.780441  645.691802    0.000000
siesta:      2    0.798383 -114.955113    0.000000
siesta:      3    1.518747  112.074085    0.000000
siesta:      4  -33.172585    6.797176    0.000000
siesta:      5  -21.910545 -658.792906    0.000000
siesta:      6   21.046408  660.910384    0.000000
siesta:      7    1.146470 -104.617299    0.000000
siesta:      8  -26.150536  748.827037    0.000000
siesta:      9    4.178215 -109.763383    0.000000
siesta:     10   -4.490792  668.526969    0.000000
siesta:     11   -0.882700 -110.253255    0.000000
siesta:     12   -4.750033  683.029197    0.000000
siesta:     13  -36.554079  -12.961065    0.000000
siesta:     14   23.193725  681.447587    0.000000
siesta:     15    1.420946   -4.266275    0.000000
siesta:     16   -1.288873    2.770898    0.000000
siesta:     17   -0.291817    0.638643    0.000000
siesta:     18   -2.457297    0.465829    0.000000
siesta:     19   -0.798489    1.430796    0.000000
siesta:     20    0.872673    1.111652    0.000000
siesta:     21    0.172730    0.109852    0.000000
siesta:     22   -1.761948   -1.754426    0.000000
siesta:     23  -33.804475    1.605306    0.000000
siesta:     24    5.063880 -775.264241    0.000000
siesta:     25   -2.532795   -0.053825    0.000000
siesta:     26   -0.821631   -3.487595    0.000000
siesta:     27  -18.294684 -655.728700    0.000000
siesta:     28    1.517541  120.455028    0.000000
siesta:     29   -4.078543 -545.945858    0.000000
siesta:     30   27.119325    2.892950    0.000000
siesta:     31   18.455893 -551.679643    0.000000
siesta:     32    2.064718    0.277289    0.000000
siesta:     33   -3.129359    1.321088    0.000000
siesta:     34    2.241448    2.600419    0.000000
siesta:     35   -1.287100   -0.102579    0.000000
siesta:     36   32.919605  555.163452    0.000000
siesta:     37   27.352245   -4.321475    0.000000
siesta:     38   -2.949115   -1.737108    0.000000
siesta:     39    1.881983    0.035307    0.000000
siesta:     40   -1.378828   -0.050617    0.000000
siesta:     41    1.680085   -2.349345    0.000000
siesta:     42    0.048366    7.555441    0.000000
siesta:     43   -0.378435   -7.558333    0.000000
siesta:     44   27.943078  561.836834    0.000000
siesta:     45   25.641571   -9.310951    0.000000
siesta:     46   -1.262214    2.918709    0.000000
siesta:     47   -0.515689   -0.704043    0.000000
siesta:     48   -0.014157    1.140757    0.000000
siesta:     49   -0.337296   -0.858394    0.000000
siesta:     50  -28.208670  661.773520    0.000000
siesta:     51  -29.115205   -5.156390    0.000000
siesta:     52    0.789528    0.921488    0.000000
siesta:     53   -0.800355   -1.199818    0.000000
siesta:     54    2.668703   -0.442071    0.000000
siesta:     55   -1.653368   -0.418051    0.000000
siesta:     56    0.972266   -0.127361    0.000000
siesta:     57   -1.607966   -2.462276    0.000000
siesta:     58    1.196606    1.794740    0.000000
siesta:     59    0.189168   -1.553594    0.000000
siesta:     60    0.327045    6.661933    0.000000
siesta:     61    0.416938   -5.175519    0.000000
siesta:     62    0.036126    2.656356    0.000000
siesta:     63    0.591252    0.116371    0.000000
siesta:     64   -1.606979   -2.954047    0.000000
siesta:     65   -0.414567    0.697258    0.000000
siesta:     66   13.411848 -685.054654    0.000000
siesta:     67   24.012761    1.022651    0.000000
siesta:     68    0.263113 -684.898488    0.000000
siesta:     69    7.207321  116.968484    0.000000
siesta:     70   -2.058263 -676.488259    0.000000
siesta:     71    3.003743  118.108857    0.000000
siesta:     72  -13.373216 -639.934680    0.000000
siesta: ----------------------------------------
siesta:    Tot    0.012289   -0.025494    0.000000

siesta: Stress tensor (static) (eV/Ang**3):
siesta:    -0.406485    0.003336    0.000000
siesta:     0.003336   -2.167120    0.000000
siesta:     0.000000    0.000000   -0.000056

siesta: Cell volume =       1893.226884 Ang**3

siesta: Pressure (static):
siesta:                Solid            Molecule  Units
siesta:           0.00934348          0.15297795  Ry/Bohr**3
siesta:           0.85788682         14.04591495  eV/Ang**3
siesta:        1374.50107953      22504.27998854  kBar
(Free)E+ p_basis*V_orbitals  =      -13372.874661
(Free)Eharris+ p_basis*V_orbitals  =      -13372.864851

siesta: Electric dipole (a.u.)  =    0.000000    0.000000    0.000000
siesta: Electric dipole (Debye) =    0.000000    0.000000    0.000000

* Maximum dynamic memory allocated : Node    0 =   193 MB
* Maximum dynamic memory allocated : Node    1 =    69 MB
* Maximum dynamic memory allocated : Node    2 =    71 MB
* Maximum dynamic memory allocated : Node    3 =   185 MB
* Maximum dynamic memory allocated : Node    4 =   187 MB
* Maximum dynamic memory allocated : Node    5 =    70 MB
* Maximum dynamic memory allocated : Node    6 =    71 MB
* Maximum dynamic memory allocated : Node    7 =   171 MB

* Maximum memory occured during matrixMtoO                    

timer: CPU execution times:
timer:  Routine       Calls   Time/call    Tot.time        %
timer:  siesta            1  136578.691  136578.691   100.00
timer:  Setup             1       3.822       3.822     0.00
timer:  bands             3     268.311     804.934     0.59
timer:  writewave         1       0.042       0.042     0.00
timer:  KSV_init          1       0.006       0.006     0.00
timer:  IterMD            1  135764.144  135764.144    99.40
timer:  hsparse           1       0.230       0.230     0.00
timer:  overlap           1       7.690       7.690     0.01
timer:  IterSCF          34    3988.517  135609.566    99.29
timer:  kinefsm           2       3.951       7.902     0.01
timer:  nlefsm            2      18.253      36.505     0.03
timer:  DHSCF            35      80.202    2807.080     2.06
timer:  DHSCF1            1       0.763       0.763     0.00
timer:  DHSCF2            1      31.870      31.870     0.02
timer:  REORD           282       0.010       2.818     0.00
timer:  POISON           36       2.240      80.625     0.06
timer:  DHSCF3           35      78.400    2743.999     2.01
timer:  rhoofd           35      15.842     554.481     0.41
timer:  cellXC           35       3.479     121.758     0.09
timer:  vmat             35      37.122    1299.272     0.95
timer:  MolMec            2       0.000       0.000     0.00
timer:  diagon           34    3906.665  132826.608    97.25
timer:  c-eigval       7975       6.655   53075.816    38.86
timer:  c-buildHS      7975       0.112     890.728     0.65
timer:  cdiag         15829       6.825  108037.784    79.10
timer:  cdiag1        15829       0.427    6752.861     4.94
timer:  cdiag2        15829       1.904   30138.588    22.07
timer:  cdiag3        15829       3.939   62344.981    45.65
timer:  cdiag4        15829       0.204    3222.714     2.36
timer:  c-eigvec       7854       7.174   56341.871    41.25
timer:  c-buildD       7854       3.077   24169.736    17.70
timer:  DHSCF4            1      28.574      28.574     0.02
timer:  dfscf             1      26.816      26.816     0.02
timer:  overfsm           1       0.396       0.396     0.00
timer:  optical           1       5.080       5.080     0.00
  

elaps: ELAPSED times:
elaps:  Routine       Calls   Time/call    Tot.time        %
elaps:  siesta            1   17090.727   17090.727   100.00
elaps:  Setup             1       0.494       0.494     0.00
elaps:  bands             3      33.591     100.774     0.59
elaps:  writewave         1       0.006       0.006     0.00
elaps:  KSV_init          1       0.001       0.001     0.00
elaps:  IterMD            1   16988.786   16988.786    99.40
elaps:  hsparse           1       0.028       0.028     0.00
elaps:  overlap           1       0.964       0.964     0.01
elaps:  IterSCF          34     499.105   16969.563    99.29
elaps:  kinefsm           2       0.497       0.994     0.01
elaps:  nlefsm            2       2.326       4.652     0.03
elaps:  DHSCF            35      10.136     354.756     2.08
elaps:  DHSCF1            1       0.098       0.098     0.00
elaps:  DHSCF2            1       3.982       3.982     0.02
elaps:  REORD           282       0.001       0.377     0.00
elaps:  POISON           36       0.280      10.083     0.06
elaps:  DHSCF3           35       9.809     343.302     2.01
elaps:  rhoofd           35       4.395     153.838     0.90
elaps:  cellXC           35       0.434      15.206     0.09
elaps:  vmat             35       4.644     162.542     0.95
elaps:  MolMec            2       0.000       0.000     0.00
elaps:  diagon           34     488.863   16621.350    97.25
elaps:  c-eigval       7975       0.833    6640.833    38.86
elaps:  c-buildHS      7975       0.015     120.631     0.71
elaps:  cdiag         15829       0.847   13414.330    78.49
elaps:  cdiag1        15829       0.053     841.711     4.92
elaps:  cdiag2        15829       0.238    3771.378    22.07
elaps:  cdiag3        15829       0.493    7810.849    45.70
elaps:  cdiag4        15829       0.026     413.776     2.42
elaps:  c-eigvec       7854       0.890    6990.801    40.90
elaps:  c-buildD       7854       0.393    3084.230    18.05
elaps:  DHSCF4            1       7.123       7.123     0.04
elaps:  dfscf             1       6.750       6.750     0.04
elaps:  overfsm           1       0.050       0.050     0.00
elaps:  optical           1       0.001       0.001     0.00
  
>> End of run:  20-APR-2016   5:07:14
