Siesta Version:                                        siesta-3.2-pl-3
Architecture  : x86_64-unknown-linux-gnu--unknown
Compiler flags: mpiifort -g -O2 -fPIC -xSSE4.1 -fp-model source -shared-intel 
PARALLEL version

* Running on    8 nodes in parallel
>> Start of run:  24-APR-2016  11:54:09

                           ***********************       
                           *  WELCOME TO SIESTA  *       
                           ***********************       

reinit: Reading from standard input
************************** Dump of input data file ****************************
#(1) General system descriptors
SystemName            GRP_doping    # Descriptive name of the system
SystemLabel           GRP_doping    # Short name for naming files
%include STRUCT.fdf
%include KPT.fdf
%include BASIS.fdf
#%include TS.fdf # for transiesta calculation
#(4) DFT, Grid, SCF
XC.functional         GGA           # LDA or GGA (default = LDA)
XC.authors            PBE           # CA (Ceperley-Aldr) = PZ
                                    #    (Perdew-Zunger) - LDA - Default
                                    # PW92 (Perdew-Wang-92) - LDA
                                    # PBE (Perdew-Burke-Ernzerhof) - GGA
MeshCutoff            200.000000    Ry      # Default: 50.0 Ry ~ 0.444 Bohr
                                    #         100.0 Ry ~ 0.314 Bohr
MaxSCFIterations      500           # Default: 50
DM.MixingWeight       0.05          # Default: 0.25
DM.NumberPulay        10            # Default: 0
DM.PulayOnFile        F             # SystemLabel.P1, SystemLabel.P2
DM.Tolerance          1.d-4         # Default: 1.d-4
DM.UseSaveDM          .true.        # because of the bug
SCFMustConverge       .true.
NeglNonOverlapInt     F             # Default: F
#(5) Eigenvalue problem: order-N or diagonalization
SolutionMethod        Diagon        # or Transiesta
ElectronicTemperature 300.0 K       # Default: 300.0 K
#(6) Molecular dynamics and relaxations
#MD.TypeOfRun          CG            # Type of dynamics:
#MD.VariableCell       F
#MD.NumCGsteps         0           # 0 for single-point / 100 for gopt
#MD.MaxCGDispl         0.2 Bohr      # Default: 0.2 Bohr
#MD.MaxForceTol        0.02 eV/Ang   # Default: 0.04 eV/Ang
#MD.MaxStressTol       1.0 GPa       # Default: 1.0 GPa
# Geometry Constraints
#%block GeometryConstraints
#	position from 1 to 44
#%endblock GeometryConstraints
BandLinesScale   pi/a
%block BandLines
 1   0.00000000  0.00000000  0.00000000
50   0.00000000  0.07809418  0.00000000
50   0.04509075  0.07809242  0.00000000
20   0.00000000  0.00000000  0.00000000
%endblock BandLines
************************** End of input data file *****************************

reinit: -----------------------------------------------------------------------
reinit: System Name: GRP_doping
reinit: -----------------------------------------------------------------------
reinit: System Label: GRP_doping                                                  
reinit: -----------------------------------------------------------------------

initatom: Reading input for the pseudopotentials and atomic orbitals ----------
 Species number:            1  Label: B Atomic number:           5
 Species number:            2  Label: C Atomic number:           6
Ground state valence configuration:   2s02  2p01
Reading pseudopotential information in formatted form from B.psf

Valence configuration for pseudopotential generation:
2s( 2.00) rc: 1.74
2p( 1.00) rc: 1.74
3d( 0.00) rc: 1.74
4f( 0.00) rc: 1.74
Ground state valence configuration:   2s02  2p02
Reading pseudopotential information in formatted form from C.psf

Valence configuration for pseudopotential generation:
2s( 2.00) rc: 1.54
2p( 2.00) rc: 1.54
3d( 0.00) rc: 1.54
4f( 0.00) rc: 1.54
For B, standard SIESTA heuristics set lmxkb to 3
 (one more than the basis l, including polarization orbitals).
Use PS.lmax or PS.KBprojectors blocks to override.
For C, standard SIESTA heuristics set lmxkb to 3
 (one more than the basis l, including polarization orbitals).
Use PS.lmax or PS.KBprojectors blocks to override.

<basis_specs>
===============================================================================
B                    Z=   5    Mass=  10.810        Charge= 0.17977+309
Lmxo=1 Lmxkb= 3    BasisType=split      Semic=F
L=0  Nsemic=0  Cnfigmx=2
          n=1  nzeta=2  polorb=0
            splnorm:   0.15000    
               vcte:    0.0000    
               rinn:    0.0000    
                rcs:    0.0000      0.0000    
            lambdas:    1.0000      1.0000    
L=1  Nsemic=0  Cnfigmx=2
          n=1  nzeta=2  polorb=1
            splnorm:   0.15000    
               vcte:    0.0000    
               rinn:    0.0000    
                rcs:    0.0000      0.0000    
            lambdas:    1.0000      1.0000    
-------------------------------------------------------------------------------
L=0  Nkbl=1  erefs: 0.17977+309
L=1  Nkbl=1  erefs: 0.17977+309
L=2  Nkbl=1  erefs: 0.17977+309
L=3  Nkbl=1  erefs: 0.17977+309
===============================================================================
</basis_specs>

atom: Called for B                     (Z =   5)

read_vps: Pseudopotential generation method:
read_vps: ATM3      Troullier-Martins                       
Total valence charge:    3.00000

read_vps: Pseudopotential includes a core correction:
read_vps: Pseudo-core for xc-correction

xc_check: Exchange-correlation functional:
xc_check: GGA Perdew, Burke & Ernzerhof 1996
V l=0 = -2*Zval/r beyond r=  1.7165
V l=1 = -2*Zval/r beyond r=  1.7165
V l=2 = -2*Zval/r beyond r=  1.7165
V l=3 = -2*Zval/r beyond r=  1.6951
All V_l potentials equal beyond r=  1.7165
This should be close to max(r_c) in ps generation
All pots = -2*Zval/r beyond r=  1.7165

VLOCAL1: 99.0% of the norm of Vloc inside     14.733 Ry
VLOCAL1: 99.9% of the norm of Vloc inside     33.577 Ry
atom: Maximum radius for 4*pi*r*r*local-pseudopot. charge    2.04484
atom: Maximum radius for r*vlocal+2*Zval:    1.75994
GHOST: No ghost state for L =  0
GHOST: No ghost state for L =  1
GHOST: No ghost state for L =  2
GHOST: No ghost state for L =  3

KBgen: Kleinman-Bylander projectors: 
   l= 0   rc=  1.897051   el= -0.693730   Ekb=  4.595746   kbcos=  0.286105
   l= 1   rc=  1.920920   el= -0.265236   Ekb= -2.350715   kbcos= -0.315747
   l= 2   rc=  2.044840   el=  0.002055   Ekb= -0.690767   kbcos= -0.013822
   l= 3   rc=  2.149707   el=  0.003188   Ekb= -0.315358   kbcos= -0.002055

KBgen: Total number of  Kleinman-Bylander projectors:   16
atom: -------------------------------------------------------------------------

atom: SANKEY-TYPE ORBITALS:
atom: Selected multiple-zeta basis: split     

SPLIT: Orbitals with angular momentum L= 0

SPLIT: Basis orbitals for state 2s

SPLIT: PAO cut-off radius determined from an
SPLIT: energy shift=  0.007350 Ry

   izeta = 1
                 lambda =    1.000000
                     rc =    5.422032
                 energy =   -0.686029
                kinetic =    0.576707
    potential(screened) =   -1.262736
       potential(ionic) =   -3.271094

   izeta = 2
                 rmatch =    4.222573
              splitnorm =    0.150000
                 energy =   -0.602132
                kinetic =    0.858975
    potential(screened) =   -1.461107
       potential(ionic) =   -3.582536

SPLIT: Orbitals with angular momentum L= 1

SPLIT: Basis orbitals for state 2p

SPLIT: PAO cut-off radius determined from an
SPLIT: energy shift=  0.007350 Ry

   izeta = 1
                 lambda =    1.000000
                     rc =    6.790259
                 energy =   -0.258578
                kinetic =    1.481412
    potential(screened) =   -1.739989
       potential(ionic) =   -3.657461

   izeta = 2
                 rmatch =    4.608740
              splitnorm =    0.150000
                 energy =   -0.173757
                kinetic =    2.186690
    potential(screened) =   -2.360447
       potential(ionic) =   -4.464260

POLgen: Perturbative polarization orbital with L=  2

POLgen: Polarization orbital for state 2p

   izeta = 1
                     rc =    6.790259
                 energy =    0.684082
                kinetic =    1.471481
    potential(screened) =   -0.787399
       potential(ionic) =   -2.406985
atom: Total number of Sankey-type orbitals: 13

atm_pop: Valence configuration (for local Pseudopot. screening):
 2s( 2.00)                                                            
 2p( 1.00)                                                            
Vna: chval, zval:    3.00000   3.00000

Vna:  Cut-off radius for the neutral-atom potential:   6.790259
comcore: Pseudo-core radius Rcore=  2.122997

atom: _________________________________________________________________________

<basis_specs>
===============================================================================
C                    Z=   6    Mass=  12.010        Charge= 0.17977+309
Lmxo=1 Lmxkb= 3    BasisType=split      Semic=F
L=0  Nsemic=0  Cnfigmx=2
          n=1  nzeta=2  polorb=0
            splnorm:   0.15000    
               vcte:    0.0000    
               rinn:    0.0000    
                rcs:    0.0000      0.0000    
            lambdas:    1.0000      1.0000    
L=1  Nsemic=0  Cnfigmx=2
          n=1  nzeta=2  polorb=1
            splnorm:   0.15000    
               vcte:    0.0000    
               rinn:    0.0000    
                rcs:    0.0000      0.0000    
            lambdas:    1.0000      1.0000    
-------------------------------------------------------------------------------
L=0  Nkbl=1  erefs: 0.17977+309
L=1  Nkbl=1  erefs: 0.17977+309
L=2  Nkbl=1  erefs: 0.17977+309
L=3  Nkbl=1  erefs: 0.17977+309
===============================================================================
</basis_specs>

atom: Called for C                     (Z =   6)

read_vps: Pseudopotential generation method:
read_vps: ATM3      Troullier-Martins                       
Total valence charge:    4.00000

read_vps: Pseudopotential includes a core correction:
read_vps: Pseudo-core for xc-correction

xc_check: Exchange-correlation functional:
xc_check: GGA Perdew, Burke & Ernzerhof 1996
V l=0 = -2*Zval/r beyond r=  1.5227
V l=1 = -2*Zval/r beyond r=  1.5227
V l=2 = -2*Zval/r beyond r=  1.5227
V l=3 = -2*Zval/r beyond r=  1.5038
All V_l potentials equal beyond r=  1.5227
This should be close to max(r_c) in ps generation
All pots = -2*Zval/r beyond r=  1.5227

VLOCAL1: 99.0% of the norm of Vloc inside     18.722 Ry
VLOCAL1: 99.9% of the norm of Vloc inside     42.668 Ry
atom: Maximum radius for 4*pi*r*r*local-pseudopot. charge    1.83678
atom: Maximum radius for r*vlocal+2*Zval:    1.58088
GHOST: No ghost state for L =  0
GHOST: No ghost state for L =  1
GHOST: No ghost state for L =  2
GHOST: No ghost state for L =  3

KBgen: Kleinman-Bylander projectors: 
   l= 0   rc=  1.704034   el= -1.009801   Ekb=  5.335044   kbcos=  0.316824
   l= 1   rc=  1.704034   el= -0.388707   Ekb= -3.785862   kbcos= -0.366464
   l= 2   rc=  1.791422   el=  0.001971   Ekb= -0.970471   kbcos= -0.009212
   l= 3   rc=  1.859892   el=  0.003065   Ekb= -0.399525   kbcos= -0.001223

KBgen: Total number of  Kleinman-Bylander projectors:   16
atom: -------------------------------------------------------------------------

atom: SANKEY-TYPE ORBITALS:
atom: Selected multiple-zeta basis: split     

SPLIT: Orbitals with angular momentum L= 0

SPLIT: Basis orbitals for state 2s

SPLIT: PAO cut-off radius determined from an
SPLIT: energy shift=  0.007350 Ry

   izeta = 1
                 lambda =    1.000000
                     rc =    4.632753
                 energy =   -1.002270
                kinetic =    0.855760
    potential(screened) =   -1.858031
       potential(ionic) =   -5.417575

   izeta = 2
                 rmatch =    3.431921
              splitnorm =    0.150000
                 energy =   -0.867111
                kinetic =    1.300804
    potential(screened) =   -2.167915
       potential(ionic) =   -5.962684

SPLIT: Orbitals with angular momentum L= 1

SPLIT: Basis orbitals for state 2p

SPLIT: PAO cut-off radius determined from an
SPLIT: energy shift=  0.007350 Ry

   izeta = 1
                 lambda =    1.000000
                     rc =    5.658549
                 energy =   -0.381140
                kinetic =    2.399701
    potential(screened) =   -2.780841
       potential(ionic) =   -6.206085

   izeta = 2
                 rmatch =    3.653288
              splitnorm =    0.150000
                 energy =   -0.249149
                kinetic =    3.542762
    potential(screened) =   -3.791911
       potential(ionic) =   -7.581078

POLgen: Perturbative polarization orbital with L=  2

POLgen: Polarization orbital for state 2p

   izeta = 1
                     rc =    5.658549
                 energy =    1.109913
                kinetic =    2.304789
    potential(screened) =   -1.194876
       potential(ionic) =   -4.013592
atom: Total number of Sankey-type orbitals: 13

atm_pop: Valence configuration (for local Pseudopot. screening):
 2s( 2.00)                                                            
 2p( 2.00)                                                            
Vna: chval, zval:    4.00000   4.00000

Vna:  Cut-off radius for the neutral-atom potential:   5.658549
comcore: Pseudo-core radius Rcore=  1.791422

atom: _________________________________________________________________________

prinput: Basis input ----------------------------------------------------------

PAO.BasisType split     

%block ChemicalSpeciesLabel
    1    5 B                       # Species index, atomic number, species label
    2    6 C                       # Species index, atomic number, species label
%endblock ChemicalSpeciesLabel

%block PAO.Basis                 # Define Basis set
B                     2                    # Species label, number of l-shells
 n=2   0   2                         # n, l, Nzeta 
   5.422      4.223   
   1.000      1.000   
 n=2   1   2 P   1                   # n, l, Nzeta, Polarization, NzetaPol
   6.790      4.609   
   1.000      1.000   
C                     2                    # Species label, number of l-shells
 n=2   0   2                         # n, l, Nzeta 
   4.633      3.432   
   1.000      1.000   
 n=2   1   2 P   1                   # n, l, Nzeta, Polarization, NzetaPol
   5.659      3.653   
   1.000      1.000   
%endblock PAO.Basis

prinput: ----------------------------------------------------------------------

coor:   Atomic-coordinates input format  =     Fractional

siesta: Atomic coordinates (Bohr) and species
siesta:     -2.35420  38.89134   0.00000  1        1
siesta:     -2.35420  41.57980   0.00000  1        2
siesta:      2.30256  38.89134   0.00000  1        3
siesta:     -4.68258  34.85847   0.00000  1        4
siesta:     -4.68258  37.54693   0.00000  1        5
siesta:      2.30256  14.69411   0.00000  1        6
siesta:      2.30256  17.38257   0.00000  1        7
siesta:     -0.02582  18.72698   0.00000  1        8
siesta:     -0.02582  21.41544   0.00000  1        9
siesta:     -4.68258  21.41544   0.00000  1       10
siesta:     -2.35420  22.75985   0.00000  1       11
siesta:     -7.01096  22.75985   0.00000  1       12
siesta:     -7.01096  25.44831   0.00000  1       13
siesta:     -9.33934  26.79272   0.00000  1       14
siesta:     -9.33934  29.48119   0.00000  1       15
siesta:     -4.68258  26.79272   0.00000  1       16
siesta:     -4.68258  29.48119   0.00000  1       17
siesta:     -2.35420  30.82560   0.00000  1       18
siesta:     -2.35420  33.51406   0.00000  1       19
siesta:     -7.01096  30.82560   0.00000  1       20
siesta:     -7.01096  33.51406   0.00000  1       21
siesta:     -0.02582  34.85847   0.00000  1       22
siesta:     -0.02582  37.54693   0.00000  1       23
siesta:     -0.02582   2.59549   0.00000  2       24
siesta:     -0.02582   5.28395   0.00000  2       25
siesta:      2.30256  41.57980   0.00000  2       26
siesta:      4.63094  34.85847   0.00000  2       27
siesta:      4.63094  37.54693   0.00000  2       28
siesta:      6.95932  30.82560   0.00000  2       29
siesta:      6.95932  33.51406   0.00000  2       30
siesta:      9.28770  26.79272   0.00000  2       31
siesta:      9.28770  29.48119   0.00000  2       32
siesta:      2.30256   6.62836   0.00000  2       33
siesta:      2.30256   9.31683   0.00000  2       34
siesta:      4.63094  10.66124   0.00000  2       35
siesta:      4.63094  13.34970   0.00000  2       36
siesta:      6.95932  14.69411   0.00000  2       37
siesta:      6.95932  17.38257   0.00000  2       38
siesta:      9.28770  18.72698   0.00000  2       39
siesta:      9.28770  21.41544   0.00000  2       40
siesta:     11.61608  22.75985   0.00000  2       41
siesta:     11.61608  25.44831   0.00000  2       42
siesta:     -2.35420   6.62836   0.00000  2       43
siesta:     -2.35420   9.31683   0.00000  2       44
siesta:     -0.02582  10.66124   0.00000  2       45
siesta:     -0.02582  13.34970   0.00000  2       46
siesta:      4.63094  18.72698   0.00000  2       47
siesta:      4.63094  21.41544   0.00000  2       48
siesta:      6.95932  22.75985   0.00000  2       49
siesta:      6.95932  25.44831   0.00000  2       50
siesta:     -4.68258  10.66124   0.00000  2       51
siesta:     -4.68258  13.34970   0.00000  2       52
siesta:     -2.35420  14.69411   0.00000  2       53
siesta:     -2.35420  17.38257   0.00000  2       54
siesta:      2.30256  22.75985   0.00000  2       55
siesta:      2.30256  25.44831   0.00000  2       56
siesta:     -7.01096  14.69411   0.00000  2       57
siesta:     -7.01096  17.38257   0.00000  2       58
siesta:     -4.68258  18.72698   0.00000  2       59
siesta:     -2.35420  25.44831   0.00000  2       60
siesta:     -9.33934  18.72698   0.00000  2       61
siesta:     -9.33934  21.41544   0.00000  2       62
siesta:    -11.66772  22.75985   0.00000  2       63
siesta:    -11.66772  25.44831   0.00000  2       64
siesta:      4.63094  26.79272   0.00000  2       65
siesta:      4.63094  29.48119   0.00000  2       66
siesta:     -0.02582  26.79272   0.00000  2       67
siesta:     -0.02582  29.48119   0.00000  2       68
siesta:      2.30256  30.82560   0.00000  2       69
siesta:      2.30256  33.51406   0.00000  2       70
siesta:     -0.02582  42.92421   0.00000  2       71
siesta:     -0.02582  45.61267   0.00000  2       72

siesta: System type = slab      

initatomlists: Number of atoms, orbitals, and projectors:     72   936  1152

siesta: ******************** Simulation parameters ****************************
siesta:
siesta: The following are some of the parameters of the simulation.
siesta: A complete list of the parameters used, including default values,
siesta: can be found in file out.fdf
siesta:
redata: Non-Collinear-spin run           =     F
redata: SpinPolarized (Up/Down) run      =     F
redata: Number of spin components        =     1
redata: Long output                      =     F
redata: Number of Atomic Species         =        2
redata: Charge density info will appear in .RHO file
redata: Write Mulliken Pop.              =     NO
redata: Mesh Cutoff                      =   200.0000  Ry
redata: Net charge of the system         =     0.0000 |e|
redata: Max. number of SCF Iter          =      500
redata: SCF convergence failure will abort job
redata: Performing Pulay mixing using    =    10 iterations
redata: Mix DM in first SCF step ?       =     F
redata: Write Pulay info on disk?        =     F
redata: Discard 1st Pulay DM after  kick =     F
redata: New DM Mixing Weight             =     0.0500
redata: New DM Occupancy tolerance       = 0.000000000001
redata: No kicks to SCF
redata: DM Mixing Weight for Kicks       =     0.5000
redata: DM Tolerance for SCF             =     0.000100
redata: Require Energy convergence for SCF =     F
redata: DM Energy tolerance for SCF      =     0.000100 eV
redata: Require Harris convergence for SCF =     F
redata: DM Harris energy tolerance for SCF =     0.000100 eV
redata: Using Saved Data (generic)   =     F
redata: Use continuation files for DM    =     T
redata: Neglect nonoverlap interactions  =     F
redata: Method of Calculation            =     Diagonalization
redata: Divide and Conquer               =     T
redata: Electronic Temperature           =     0.0019  Ry
redata: Fix the spin of the system       =     F
redata: Dynamics option                  =     Verlet MD run
redata: Initial MD time step             =        1
redata:   Final MD time step             =        1
redata: Length of MD time step           =     1.0000  fs
redata: Initial Temperature of MD run    =     0.0000  K
redata: Perform a MD quench              =     F
redata: ***********************************************************************
Total number of electrons:   265.000000
Total ionic charge:   265.000000

* ProcessorY, Blocksize:    2  24

k-point displ. along   1 input, could be:     0.50    0.00
k-point displ. along   2 input, could be:     0.50    0.00
 Kpoints in:          231 . Kpoints trimmed:          231

siesta: k-grid: Number of k-points =   231
siesta: k-grid: Cutoff (effective) =     5.000 Ang
siesta: k-grid: Supercell and displacements
siesta: k-grid:   21   0   0      0.500
siesta: k-grid:    0  21   0      0.500
siesta: k-grid:    0   0   1      0.000
Naive supercell factors:     2    2    2

superc: Internal auxiliary supercell:     2 x     2 x     2  =       8
superc: Number of atoms, orbitals, and projectors:    576   7488   9216

* Maximum dynamic memory allocated =     4 MB

siesta:                 ==============================
                            Begin MD step =      1
                        ==============================

superc: Internal auxiliary supercell:     2 x     2 x     2  =       8
superc: Number of atoms, orbitals, and projectors:    576   7488   9216

outcell: Unit cell vectors (Ang):
       12.804619    7.392750    0.000000
        0.000000   14.785500    0.000000
        0.000000    0.000000   10.000000

outcell: Cell vector modules (Ang)   :   14.785500   14.785500   10.000000
outcell: Cell angles (23,13,12) (deg):     90.0000     90.0000     60.0000
outcell: Cell volume (Ang**3)        :   1893.2269
New_DM. Step:     1
Initializing Density Matrix...

InitMesh: MESH =   120 x   120 x    90 =     1296000
InitMesh: Mesh cutoff (required, used) =   200.000   223.865 Ry

* Maximum dynamic memory allocated =   234 MB

stepf: Fermi-Dirac step function

siesta: Program's energy decomposition (eV):
siesta: Ebs     =     -5457.440937
siesta: Eions   =     15457.706713
siesta: Ena     =      4164.763642
siesta: Ekin    =      5165.204314
siesta: Enl     =       841.475863
siesta: DEna    =        -0.000007
siesta: DUscf   =         0.000000
siesta: DUext   =         0.000000
siesta: Exc     =     -4196.681258
siesta: eta*DQ  =         0.000000
siesta: Emadel  =         0.000000
siesta: Emeta   =         0.000000
siesta: Emolmec =         0.000000
siesta: Ekinion =         0.000000
siesta: Eharris =     -9300.850432
siesta: Etot    =     -9482.944159
siesta: FreeEng =     -9482.944159

siesta: iscf   Eharris(eV)      E_KS(eV)   FreeEng(eV)   dDmax  Ef(eV)
siesta:    1    -9300.8504    -9482.9442    -9482.9442  7.4131 -8.5071
timer: Routine,Calls,Time,% = IterSCF        1    4470.189  99.74
elaps: Routine,Calls,Wall,% = IterSCF        1     559.454  99.74
siesta:    2   -15935.4502    -8294.3768    -8294.4171 19.8979 -6.3697
siesta:    3    -9338.7600    -9314.1849    -9314.2188  2.4139 -5.8031
siesta:    4    -9283.3535    -9230.3631    -9230.4182  1.4625 -5.0829
siesta:    5    -9192.1401    -9145.0031    -9145.0183  1.2688 -4.8842
siesta:    6    -9151.2822    -9117.4667    -9117.4975  1.1275 -5.0901
siesta:    7    -9145.8577    -9107.9823    -9108.0299  1.0400 -5.1590
siesta:    8    -9143.6786    -9104.1255    -9104.1822  0.9961 -5.2118
siesta:    9    -9139.7959    -9097.0773    -9097.1451  0.9640 -5.1910
siesta:   10    -9137.9546    -9094.7283    -9094.7643  0.8775 -5.1826
siesta:   11    -9137.0255    -9096.3237    -9096.3634  0.4378 -5.1823
siesta:   12    -9137.8136    -9100.0204    -9100.0796  0.8822 -5.1512
siesta:   13    -9137.4181    -9101.0399    -9101.0672  0.5562 -5.1405
siesta:   14    -9135.7913    -9103.6881    -9103.7479  0.3476 -5.1423
siesta:   15    -9135.5011    -9105.4709    -9105.5430  0.2720 -5.1489
siesta:   16    -9135.4493    -9107.1832    -9107.2569  0.4642 -5.1485
siesta:   17    -9134.5979    -9116.8801    -9116.9445  0.1491 -5.2016
siesta:   18    -9134.5017    -9119.4841    -9119.5664  0.1229 -5.2376
siesta:   19    -9134.5584    -9123.9340    -9124.0192  0.0992 -5.2757
siesta:   20    -9134.4556    -9125.0604    -9125.1382  0.1118 -5.2786
siesta:   21    -9134.3899    -9126.8162    -9126.8976  0.0832 -5.2741
siesta:   22    -9134.3578    -9130.6158    -9130.6963  0.0593 -5.2825
siesta:   23    -9134.3594    -9133.6340    -9133.7176  0.0487 -5.2879
siesta:   24    -9134.3484    -9134.3564    -9134.4408  0.0297 -5.2857
siesta:   25    -9134.3443    -9134.6687    -9134.7567  0.0273 -5.2853
siesta:   26    -9134.3422    -9135.0093    -9135.0978  0.0234 -5.2837
siesta:   27    -9134.3418    -9134.6213    -9134.7093  0.0198 -5.2781
siesta:   28    -9134.3390    -9135.2822    -9135.3693  0.0206 -5.2751
siesta:   29    -9134.3393    -9134.8682    -9134.9555  0.0083 -5.2729
siesta:   30    -9134.3381    -9135.1272    -9135.2135  0.0067 -5.2735
siesta:   31    -9134.3383    -9134.8938    -9134.9805  0.0046 -5.2735
siesta:   32    -9134.3377    -9134.6434    -9134.7296  0.0023 -5.2737
siesta:   33    -9134.3380    -9134.5171    -9134.6038  0.0016 -5.2740
siesta:   34    -9134.3377    -9134.5038    -9134.5902  0.0019 -5.2745
siesta:   35    -9134.3377    -9134.4190    -9134.5057  0.0011 -5.2748
siesta:   36    -9134.3376    -9134.4247    -9134.5113  0.0011 -5.2751
siesta:   37    -9134.3376    -9134.3781    -9134.4647  0.0007 -5.2756
siesta:   38    -9134.3376    -9134.3846    -9134.4712  0.0007 -5.2758
siesta:   39    -9134.3376    -9134.3771    -9134.4637  0.0003 -5.2758
siesta:   40    -9134.3376    -9134.3825    -9134.4691  0.0005 -5.2758
siesta:   41    -9134.3376    -9134.3588    -9134.4454  0.0003 -5.2758
siesta:   42    -9134.3376    -9134.3506    -9134.4373  0.0002 -5.2758
siesta:   43    -9134.3376    -9134.3435    -9134.4301  0.0001 -5.2757

siesta: E_KS(eV) =            -9134.3369

siesta: E_KS - E_eggbox =     -9134.3369

siesta: Atomic forces (eV/Ang):
----------------------------------------
   Tot   -0.098739    0.073032    0.000000
----------------------------------------
   Max  557.988376
   Res  134.071942    sqrt( Sum f_i^2 / 3N )
----------------------------------------
   Max  557.988376    constrained

Stress-tensor-Voigt (kbar):     -715.86    -2475.26       -0.68       -0.81        0.00        0.00
(Free)E + p*V (eV/cell)    -7877.2331
Target enthalpy (eV/cell)    -9134.4235

siesta: Stress tensor (static) (eV/Ang**3):
        -0.446799   -0.000504    0.000000
        -0.000504   -1.544918    0.000000
         0.000000    0.000000   -0.000422

siesta: Pressure (static):       1063.93103633  kBar

siesta: Stress tensor (total) (eV/Ang**3):
        -0.446799   -0.000504    0.000000
        -0.000504   -1.544918    0.000000
         0.000000    0.000000   -0.000422

siesta: Pressure (total):       1063.93103633  kBar

siesta: Temp_ion =       0.000 K

* Maximum dynamic memory allocated =   251 MB
Computing bands...

siesta: Program's energy decomposition (eV):
siesta: Ebs     =     -4083.801921
siesta: Eions   =     15457.706713
siesta: Ena     =      4164.763642
siesta: Ekin    =      7937.611099
siesta: Enl     =      -781.335916
siesta: DEna    =      -738.139607
siesta: DUscf   =        98.193501
siesta: DUext   =         0.000000
siesta: Exc     =     -4357.722863
siesta: eta*DQ  =         0.000000
siesta: Emadel  =         0.000000
siesta: Emeta   =         0.000000
siesta: Emolmec =         0.000000
siesta: Ekinion =         0.000000
siesta: Eharris =     -9134.337604
siesta: Etot    =     -9134.336857
siesta: FreeEng =     -9134.423482

siesta: Final energy (eV):
siesta:  Band Struct. =   -4083.801921
siesta:       Kinetic =    7937.611099
siesta:       Hartree =   25488.534178
siesta:    Ext. field =       0.000000
siesta:   Exch.-corr. =   -4357.722863
siesta:  Ion-electron =  -58640.745904
siesta:       Ion-ion =   20437.986633
siesta:       Ekinion =       0.000000
siesta:         Total =   -9134.336857

siesta: Atomic forces (eV/Ang):
siesta:      1   -0.324847  106.813881    0.000000
siesta:      2   -5.339621 -396.652649    0.000000
siesta:      3   -3.226393  105.850899    0.000000
siesta:      4  -15.433515    0.450579    0.000000
siesta:      5  -16.583459 -393.963731    0.000000
siesta:      6   21.531656  401.159482    0.000000
siesta:      7   19.615237    1.448278    0.000000
siesta:      8    1.520906  409.875852    0.000000
siesta:      9    3.695766    0.787913    0.000000
siesta:     10    1.334058   -4.675482    0.000000
siesta:     11   -1.026843    4.681812    0.000000
siesta:     12   -2.719390   -1.628403    0.000000
siesta:     13    0.050367    2.279386    0.000000
siesta:     14   -7.747074   -2.398161    0.000000
siesta:     15   -4.178026    2.753994    0.000000
siesta:     16    3.316612   -4.012409    0.000000
siesta:     17    1.369237    2.555016    0.000000
siesta:     18  -15.580895    1.471944    0.000000
siesta:     19  -17.070986 -398.997738    0.000000
siesta:     20   -2.905843    3.772501    0.000000
siesta:     21   -3.385599    2.651419    0.000000
siesta:     22   -2.740753  106.981514    0.000000
siesta:     23   -2.680361 -387.412358    0.000000
siesta:     24    7.267041  548.237722    0.000000
siesta:     25  -11.931216 -132.356222    0.000000
siesta:     26   16.799706 -404.666320    0.000000
siesta:     27   26.207956    5.645443    0.000000
siesta:     28   26.172466 -546.237741    0.000000
siesta:     29    1.370023   -0.020894    0.000000
siesta:     30   -2.272074    1.984575    0.000000
siesta:     31    2.269428    2.306743    0.000000
siesta:     32   -0.875251    0.344655    0.000000
siesta:     33   29.282548  555.145637    0.000000
siesta:     34   -4.590539 -129.749593    0.000000
siesta:     35   32.469230  552.580635    0.000000
siesta:     36   22.140297   -0.962056    0.000000
siesta:     37   -1.797770   -2.077426    0.000000
siesta:     38    2.657598    0.207227    0.000000
siesta:     39   -0.934654   -0.704939    0.000000
siesta:     40    1.967135   -2.105000    0.000000
siesta:     41    0.287754    6.691104    0.000000
siesta:     42   -0.411405   -6.870686    0.000000
siesta:     43  -17.642470  403.508187    0.000000
siesta:     44   -1.114107 -118.927145    0.000000
siesta:     45    0.172626  402.861287    0.000000
siesta:     46    6.345253 -118.554255    0.000000
siesta:     47    0.272174    2.076327    0.000000
siesta:     48    0.767184    0.467140    0.000000
siesta:     49   -0.335286    0.816941    0.000000
siesta:     50   -0.186011   -0.660546    0.000000
siesta:     51  -31.584603  402.228804    0.000000
siesta:     52  -24.225937    2.619060    0.000000
siesta:     53  -29.151877  408.391489    0.000000
siesta:     54  -22.316427   -0.591557    0.000000
siesta:     55    1.885530    1.652626    0.000000
siesta:     56    0.502040    0.011302    0.000000
siesta:     57    2.623061   -2.325605    0.000000
siesta:     58   -2.564871   -1.379766    0.000000
siesta:     59    1.712515   -2.377145    0.000000
siesta:     60    5.263910    3.293800    0.000000
siesta:     61    1.345370    0.425364    0.000000
siesta:     62   -6.070556   -3.362548    0.000000
siesta:     63   -0.506625    5.350066    0.000000
siesta:     64   -2.637200   -6.753421    0.000000
siesta:     65    0.296313    0.437256    0.000000
siesta:     66   -0.841972   -2.213669    0.000000
siesta:     67   -0.381329   -1.427693    0.000000
siesta:     68   -5.930952 -557.988376    0.000000
siesta:     69   22.023304    7.791684    0.000000
siesta:     70   15.538857 -550.855534    0.000000
siesta:     71   -6.988910  120.580603    0.000000
siesta:     72   -3.936244 -406.208049    0.000000
siesta: ----------------------------------------
siesta:    Tot   -0.098739    0.073032    0.000000

siesta: Stress tensor (static) (eV/Ang**3):
siesta:    -0.446799   -0.000504    0.000000
siesta:    -0.000504   -1.544918    0.000000
siesta:     0.000000    0.000000   -0.000422

siesta: Cell volume =       1893.226884 Ang**3

siesta: Pressure (static):
siesta:                Solid            Molecule  Units
siesta:           0.00723231          0.10185872  Ry/Bohr**3
siesta:           0.66404634          9.35232092  eV/Ang**3
siesta:        1063.93103633      14984.23202238  kBar
(Free)E+ p_basis*V_orbitals  =       -9096.418937
(Free)Eharris+ p_basis*V_orbitals  =       -9096.413049

siesta: Electric dipole (a.u.)  =    0.000000    0.000000    0.000000
siesta: Electric dipole (Debye) =    0.000000    0.000000    0.000000

* Maximum dynamic memory allocated : Node    0 =   251 MB
* Maximum dynamic memory allocated : Node    1 =    87 MB
* Maximum dynamic memory allocated : Node    2 =    90 MB
* Maximum dynamic memory allocated : Node    3 =   239 MB
* Maximum dynamic memory allocated : Node    4 =   226 MB
* Maximum dynamic memory allocated : Node    5 =    82 MB
* Maximum dynamic memory allocated : Node    6 =    84 MB
* Maximum dynamic memory allocated : Node    7 =   207 MB

* Maximum memory occured during matrixMtoO                    

timer: CPU execution times:
timer:  Routine       Calls   Time/call    Tot.time        %
timer:  siesta            1  189630.238  189630.238   100.00
timer:  Setup             1       3.003       3.003     0.00
timer:  bands             3     270.395     811.186     0.43
timer:  writewave         1       0.017       0.017     0.00
timer:  KSV_init          1       0.002       0.002     0.00
timer:  IterMD            1  188810.237  188810.237    99.57
timer:  hsparse           1       0.394       0.394     0.00
timer:  overlap           1       7.799       7.799     0.00
timer:  IterSCF          43    4385.243  188565.446    99.44
timer:  kinefsm           2       4.046       8.092     0.00
timer:  nlefsm            2      21.808      43.617     0.02
timer:  DHSCF            44     135.048    5942.108     3.13
timer:  DHSCF1            1       0.994       0.994     0.00
timer:  DHSCF2            1      46.826      46.826     0.02
timer:  REORD           354       0.010       3.574     0.00
timer:  POISON           45       2.249     101.199     0.05
timer:  DHSCF3           44     132.891    5847.217     3.08
timer:  rhoofd           44      26.622    1171.366     0.62
timer:  cellXC           44       3.485     153.338     0.08
timer:  vmat             44      66.991    2947.589     1.55
timer:  MolMec            2       0.000       0.000     0.00
timer:  diagon           43    4248.922  182703.642    96.35
timer:  c-eigval      10054       6.693   67292.888    35.49
timer:  c-buildHS     10054       0.124    1246.506     0.66
timer:  cdiag         19987       6.893  137775.759    72.65
timer:  cdiag1        19987       0.429    8564.740     4.52
timer:  cdiag2        19987       1.907   38117.251    20.10
timer:  cdiag3        19987       3.954   79020.735    41.67
timer:  cdiag4        19987       0.224    4473.630     2.36
timer:  c-eigvec       9933       7.294   72455.432    38.21
timer:  c-buildD       9933       4.401   43711.295    23.05
timer:  DHSCF4            1      44.748      44.748     0.02
timer:  dfscf             1      42.010      42.010     0.02
timer:  overfsm           1       0.484       0.484     0.00
timer:  optical           1       5.072       5.072     0.00
  

elaps: ELAPSED times:
elaps:  Routine       Calls   Time/call    Tot.time        %
elaps:  siesta            1   23730.958   23730.958   100.00
elaps:  Setup             1       0.376       0.376     0.00
elaps:  bands             3      33.850     101.551     0.43
elaps:  writewave         1       0.002       0.002     0.00
elaps:  KSV_init          1       0.000       0.000     0.00
elaps:  IterMD            1   23628.361   23628.361    99.57
elaps:  hsparse           1       0.052       0.052     0.00
elaps:  overlap           1       0.978       0.978     0.00
elaps:  IterSCF          43     548.785   23597.739    99.44
elaps:  kinefsm           2       0.508       1.016     0.00
elaps:  nlefsm            2       2.888       5.776     0.02
elaps:  DHSCF            44      17.030     749.304     3.16
elaps:  DHSCF1            1       0.130       0.130     0.00
elaps:  DHSCF2            1       5.852       5.852     0.02
elaps:  REORD           354       0.001       0.479     0.00
elaps:  POISON           45       0.281      12.650     0.05
elaps:  DHSCF3           44      16.625     731.506     3.08
elaps:  rhoofd           44       7.475     328.882     1.39
elaps:  cellXC           44       0.435      19.154     0.08
elaps:  vmat             44       8.380     368.731     1.55
elaps:  MolMec            2       0.000       0.000     0.00
elaps:  diagon           43     531.749   22865.224    96.35
elaps:  c-eigval      10054       0.837    8419.600    35.48
elaps:  c-buildHS     10054       0.017     171.263     0.72
elaps:  cdiag         19987       0.851   17013.733    71.69
elaps:  cdiag1        19987       0.053    1068.437     4.50
elaps:  cdiag2        19987       0.239    4769.548    20.10
elaps:  cdiag3        19987       0.495    9900.385    41.72
elaps:  cdiag4        19987       0.028     566.489     2.39
elaps:  c-eigvec       9933       0.895    8889.828    37.46
elaps:  c-buildD       9933       0.569    5649.040    23.80
elaps:  DHSCF4            1      11.501      11.501     0.05
elaps:  dfscf             1      10.957      10.957     0.05
elaps:  overfsm           1       0.061       0.061     0.00
elaps:  optical           1       0.000       0.000     0.00
  
>> End of run:  24-APR-2016  18:29:40
