Siesta Version:                                        siesta-3.2-pl-3
Architecture  : x86_64-unknown-linux-gnu--unknown
Compiler flags: mpiifort -g -O2 -fPIC -xSSE4.1 -fp-model source -shared-intel 
PARALLEL version

* Running on   12 nodes in parallel
>> Start of run:   2-MAY-2016   4:45:06

                           ***********************       
                           *  WELCOME TO SIESTA  *       
                           ***********************       

reinit: Reading from standard input
************************** Dump of input data file ****************************
#(1) General system descriptors
SystemName            GRP_doping    # Descriptive name of the system
SystemLabel           GRP_doping    # Short name for naming files
%include STRUCT.fdf
%include KPT.fdf
%include BASIS.fdf
#%include TS.fdf # for transiesta calculation
#(4) DFT, Grid, SCF
XC.functional         GGA           # LDA or GGA (default = LDA)
XC.authors            PBE           # CA (Ceperley-Aldr) = PZ
                                    #    (Perdew-Zunger) - LDA - Default
                                    # PW92 (Perdew-Wang-92) - LDA
                                    # PBE (Perdew-Burke-Ernzerhof) - GGA
MeshCutoff            200.000000    Ry      # Default: 50.0 Ry ~ 0.444 Bohr
                                    #         100.0 Ry ~ 0.314 Bohr
MaxSCFIterations      500           # Default: 50
DM.MixingWeight       0.05          # Default: 0.25
DM.NumberPulay        10            # Default: 0
DM.PulayOnFile        F             # SystemLabel.P1, SystemLabel.P2
DM.Tolerance          1.d-4         # Default: 1.d-4
DM.UseSaveDM          .true.        # because of the bug
SCFMustConverge       .true.
NeglNonOverlapInt     F             # Default: F
#(5) Eigenvalue problem: order-N or diagonalization
SolutionMethod        Diagon        # or Transiesta
ElectronicTemperature 300.0 K       # Default: 300.0 K
#(6) Molecular dynamics and relaxations
#MD.TypeOfRun          CG            # Type of dynamics:
#MD.VariableCell       F
#MD.NumCGsteps         0           # 0 for single-point / 100 for gopt
#MD.MaxCGDispl         0.2 Bohr      # Default: 0.2 Bohr
#MD.MaxForceTol        0.02 eV/Ang   # Default: 0.04 eV/Ang
#MD.MaxStressTol       1.0 GPa       # Default: 1.0 GPa
# Geometry Constraints
#%block GeometryConstraints
#	position from 1 to 44
#%endblock GeometryConstraints
BandLinesScale   pi/a
%block BandLines
 1   0.00000000  0.00000000  0.00000000
50   0.00000000  0.07809418  0.00000000
50   0.04509075  0.07809242  0.00000000
20   0.00000000  0.00000000  0.00000000
%endblock BandLines
************************** End of input data file *****************************

reinit: -----------------------------------------------------------------------
reinit: System Name: GRP_doping
reinit: -----------------------------------------------------------------------
reinit: System Label: GRP_doping                                                  
reinit: -----------------------------------------------------------------------

initatom: Reading input for the pseudopotentials and atomic orbitals ----------
 Species number:            1  Label: B Atomic number:           5
 Species number:            2  Label: C Atomic number:           6
Ground state valence configuration:   2s02  2p01
Reading pseudopotential information in formatted form from B.psf

Valence configuration for pseudopotential generation:
2s( 2.00) rc: 1.74
2p( 1.00) rc: 1.74
3d( 0.00) rc: 1.74
4f( 0.00) rc: 1.74
Ground state valence configuration:   2s02  2p02
Reading pseudopotential information in formatted form from C.psf

Valence configuration for pseudopotential generation:
2s( 2.00) rc: 1.54
2p( 2.00) rc: 1.54
3d( 0.00) rc: 1.54
4f( 0.00) rc: 1.54
For B, standard SIESTA heuristics set lmxkb to 3
 (one more than the basis l, including polarization orbitals).
Use PS.lmax or PS.KBprojectors blocks to override.
For C, standard SIESTA heuristics set lmxkb to 3
 (one more than the basis l, including polarization orbitals).
Use PS.lmax or PS.KBprojectors blocks to override.

<basis_specs>
===============================================================================
B                    Z=   5    Mass=  10.810        Charge= 0.17977+309
Lmxo=1 Lmxkb= 3    BasisType=split      Semic=F
L=0  Nsemic=0  Cnfigmx=2
          n=1  nzeta=2  polorb=0
            splnorm:   0.15000    
               vcte:    0.0000    
               rinn:    0.0000    
                rcs:    0.0000      0.0000    
            lambdas:    1.0000      1.0000    
L=1  Nsemic=0  Cnfigmx=2
          n=1  nzeta=2  polorb=1
            splnorm:   0.15000    
               vcte:    0.0000    
               rinn:    0.0000    
                rcs:    0.0000      0.0000    
            lambdas:    1.0000      1.0000    
-------------------------------------------------------------------------------
L=0  Nkbl=1  erefs: 0.17977+309
L=1  Nkbl=1  erefs: 0.17977+309
L=2  Nkbl=1  erefs: 0.17977+309
L=3  Nkbl=1  erefs: 0.17977+309
===============================================================================
</basis_specs>

atom: Called for B                     (Z =   5)

read_vps: Pseudopotential generation method:
read_vps: ATM3      Troullier-Martins                       
Total valence charge:    3.00000

read_vps: Pseudopotential includes a core correction:
read_vps: Pseudo-core for xc-correction

xc_check: Exchange-correlation functional:
xc_check: GGA Perdew, Burke & Ernzerhof 1996
V l=0 = -2*Zval/r beyond r=  1.7165
V l=1 = -2*Zval/r beyond r=  1.7165
V l=2 = -2*Zval/r beyond r=  1.7165
V l=3 = -2*Zval/r beyond r=  1.6951
All V_l potentials equal beyond r=  1.7165
This should be close to max(r_c) in ps generation
All pots = -2*Zval/r beyond r=  1.7165

VLOCAL1: 99.0% of the norm of Vloc inside     14.733 Ry
VLOCAL1: 99.9% of the norm of Vloc inside     33.577 Ry
atom: Maximum radius for 4*pi*r*r*local-pseudopot. charge    2.04484
atom: Maximum radius for r*vlocal+2*Zval:    1.75994
GHOST: No ghost state for L =  0
GHOST: No ghost state for L =  1
GHOST: No ghost state for L =  2
GHOST: No ghost state for L =  3

KBgen: Kleinman-Bylander projectors: 
   l= 0   rc=  1.897051   el= -0.693730   Ekb=  4.595746   kbcos=  0.286105
   l= 1   rc=  1.920920   el= -0.265236   Ekb= -2.350715   kbcos= -0.315747
   l= 2   rc=  2.044840   el=  0.002055   Ekb= -0.690767   kbcos= -0.013822
   l= 3   rc=  2.149707   el=  0.003188   Ekb= -0.315358   kbcos= -0.002055

KBgen: Total number of  Kleinman-Bylander projectors:   16
atom: -------------------------------------------------------------------------

atom: SANKEY-TYPE ORBITALS:
atom: Selected multiple-zeta basis: split     

SPLIT: Orbitals with angular momentum L= 0

SPLIT: Basis orbitals for state 2s

SPLIT: PAO cut-off radius determined from an
SPLIT: energy shift=  0.007350 Ry

   izeta = 1
                 lambda =    1.000000
                     rc =    5.422032
                 energy =   -0.686029
                kinetic =    0.576707
    potential(screened) =   -1.262736
       potential(ionic) =   -3.271094

   izeta = 2
                 rmatch =    4.222573
              splitnorm =    0.150000
                 energy =   -0.602132
                kinetic =    0.858975
    potential(screened) =   -1.461107
       potential(ionic) =   -3.582536

SPLIT: Orbitals with angular momentum L= 1

SPLIT: Basis orbitals for state 2p

SPLIT: PAO cut-off radius determined from an
SPLIT: energy shift=  0.007350 Ry

   izeta = 1
                 lambda =    1.000000
                     rc =    6.790259
                 energy =   -0.258578
                kinetic =    1.481412
    potential(screened) =   -1.739989
       potential(ionic) =   -3.657461

   izeta = 2
                 rmatch =    4.608740
              splitnorm =    0.150000
                 energy =   -0.173757
                kinetic =    2.186690
    potential(screened) =   -2.360447
       potential(ionic) =   -4.464260

POLgen: Perturbative polarization orbital with L=  2

POLgen: Polarization orbital for state 2p

   izeta = 1
                     rc =    6.790259
                 energy =    0.684082
                kinetic =    1.471481
    potential(screened) =   -0.787399
       potential(ionic) =   -2.406985
atom: Total number of Sankey-type orbitals: 13

atm_pop: Valence configuration (for local Pseudopot. screening):
 2s( 2.00)                                                            
 2p( 1.00)                                                            
Vna: chval, zval:    3.00000   3.00000

Vna:  Cut-off radius for the neutral-atom potential:   6.790259
comcore: Pseudo-core radius Rcore=  2.122997

atom: _________________________________________________________________________

<basis_specs>
===============================================================================
C                    Z=   6    Mass=  12.010        Charge= 0.17977+309
Lmxo=1 Lmxkb= 3    BasisType=split      Semic=F
L=0  Nsemic=0  Cnfigmx=2
          n=1  nzeta=2  polorb=0
            splnorm:   0.15000    
               vcte:    0.0000    
               rinn:    0.0000    
                rcs:    0.0000      0.0000    
            lambdas:    1.0000      1.0000    
L=1  Nsemic=0  Cnfigmx=2
          n=1  nzeta=2  polorb=1
            splnorm:   0.15000    
               vcte:    0.0000    
               rinn:    0.0000    
                rcs:    0.0000      0.0000    
            lambdas:    1.0000      1.0000    
-------------------------------------------------------------------------------
L=0  Nkbl=1  erefs: 0.17977+309
L=1  Nkbl=1  erefs: 0.17977+309
L=2  Nkbl=1  erefs: 0.17977+309
L=3  Nkbl=1  erefs: 0.17977+309
===============================================================================
</basis_specs>

atom: Called for C                     (Z =   6)

read_vps: Pseudopotential generation method:
read_vps: ATM3      Troullier-Martins                       
Total valence charge:    4.00000

read_vps: Pseudopotential includes a core correction:
read_vps: Pseudo-core for xc-correction

xc_check: Exchange-correlation functional:
xc_check: GGA Perdew, Burke & Ernzerhof 1996
V l=0 = -2*Zval/r beyond r=  1.5227
V l=1 = -2*Zval/r beyond r=  1.5227
V l=2 = -2*Zval/r beyond r=  1.5227
V l=3 = -2*Zval/r beyond r=  1.5038
All V_l potentials equal beyond r=  1.5227
This should be close to max(r_c) in ps generation
All pots = -2*Zval/r beyond r=  1.5227

VLOCAL1: 99.0% of the norm of Vloc inside     18.722 Ry
VLOCAL1: 99.9% of the norm of Vloc inside     42.668 Ry
atom: Maximum radius for 4*pi*r*r*local-pseudopot. charge    1.83678
atom: Maximum radius for r*vlocal+2*Zval:    1.58088
GHOST: No ghost state for L =  0
GHOST: No ghost state for L =  1
GHOST: No ghost state for L =  2
GHOST: No ghost state for L =  3

KBgen: Kleinman-Bylander projectors: 
   l= 0   rc=  1.704034   el= -1.009801   Ekb=  5.335044   kbcos=  0.316824
   l= 1   rc=  1.704034   el= -0.388707   Ekb= -3.785862   kbcos= -0.366464
   l= 2   rc=  1.791422   el=  0.001971   Ekb= -0.970471   kbcos= -0.009212
   l= 3   rc=  1.859892   el=  0.003065   Ekb= -0.399525   kbcos= -0.001223

KBgen: Total number of  Kleinman-Bylander projectors:   16
atom: -------------------------------------------------------------------------

atom: SANKEY-TYPE ORBITALS:
atom: Selected multiple-zeta basis: split     

SPLIT: Orbitals with angular momentum L= 0

SPLIT: Basis orbitals for state 2s

SPLIT: PAO cut-off radius determined from an
SPLIT: energy shift=  0.007350 Ry

   izeta = 1
                 lambda =    1.000000
                     rc =    4.632753
                 energy =   -1.002270
                kinetic =    0.855760
    potential(screened) =   -1.858031
       potential(ionic) =   -5.417575

   izeta = 2
                 rmatch =    3.431921
              splitnorm =    0.150000
                 energy =   -0.867111
                kinetic =    1.300804
    potential(screened) =   -2.167915
       potential(ionic) =   -5.962684

SPLIT: Orbitals with angular momentum L= 1

SPLIT: Basis orbitals for state 2p

SPLIT: PAO cut-off radius determined from an
SPLIT: energy shift=  0.007350 Ry

   izeta = 1
                 lambda =    1.000000
                     rc =    5.658549
                 energy =   -0.381140
                kinetic =    2.399701
    potential(screened) =   -2.780841
       potential(ionic) =   -6.206085

   izeta = 2
                 rmatch =    3.653288
              splitnorm =    0.150000
                 energy =   -0.249149
                kinetic =    3.542762
    potential(screened) =   -3.791911
       potential(ionic) =   -7.581078

POLgen: Perturbative polarization orbital with L=  2

POLgen: Polarization orbital for state 2p

   izeta = 1
                     rc =    5.658549
                 energy =    1.109913
                kinetic =    2.304789
    potential(screened) =   -1.194876
       potential(ionic) =   -4.013592
atom: Total number of Sankey-type orbitals: 13

atm_pop: Valence configuration (for local Pseudopot. screening):
 2s( 2.00)                                                            
 2p( 2.00)                                                            
Vna: chval, zval:    4.00000   4.00000

Vna:  Cut-off radius for the neutral-atom potential:   5.658549
comcore: Pseudo-core radius Rcore=  1.791422

atom: _________________________________________________________________________

prinput: Basis input ----------------------------------------------------------

PAO.BasisType split     

%block ChemicalSpeciesLabel
    1    5 B                       # Species index, atomic number, species label
    2    6 C                       # Species index, atomic number, species label
%endblock ChemicalSpeciesLabel

%block PAO.Basis                 # Define Basis set
B                     2                    # Species label, number of l-shells
 n=2   0   2                         # n, l, Nzeta 
   5.422      4.223   
   1.000      1.000   
 n=2   1   2 P   1                   # n, l, Nzeta, Polarization, NzetaPol
   6.790      4.609   
   1.000      1.000   
C                     2                    # Species label, number of l-shells
 n=2   0   2                         # n, l, Nzeta 
   4.633      3.432   
   1.000      1.000   
 n=2   1   2 P   1                   # n, l, Nzeta, Polarization, NzetaPol
   5.659      3.653   
   1.000      1.000   
%endblock PAO.Basis

prinput: ----------------------------------------------------------------------

coor:   Atomic-coordinates input format  =     Fractional

siesta: Atomic coordinates (Bohr) and species
siesta:     -2.35420  38.89134   0.00000  1        1
siesta:     -2.35420  41.57980   0.00000  1        2
siesta:      4.63094  21.41544   0.00000  1        3
siesta:     -2.35420  17.38257   0.00000  1        4
siesta:     -0.02582  18.72698   0.00000  1        5
siesta:     -0.02582  21.41544   0.00000  1        6
siesta:      2.30256  22.75985   0.00000  1        7
siesta:     -7.01096  17.38257   0.00000  1        8
siesta:     -4.68258  18.72698   0.00000  1        9
siesta:     -2.35420  22.75985   0.00000  1       10
siesta:     -2.35420  25.44831   0.00000  1       11
siesta:     -9.33934  18.72698   0.00000  1       12
siesta:     -9.33934  21.41544   0.00000  1       13
siesta:     -0.02582  34.85847   0.00000  1       14
siesta:     -0.02582  37.54693   0.00000  1       15
siesta:     -0.02582  42.92421   0.00000  1       16
siesta:     -0.02582   2.59549   0.00000  2       17
siesta:     -0.02582   5.28395   0.00000  2       18
siesta:      2.30256  38.89134   0.00000  2       19
siesta:      2.30256  41.57980   0.00000  2       20
siesta:      4.63094  34.85847   0.00000  2       21
siesta:      4.63094  37.54693   0.00000  2       22
siesta:      6.95932  30.82560   0.00000  2       23
siesta:      6.95932  33.51406   0.00000  2       24
siesta:      9.28770  26.79272   0.00000  2       25
siesta:      9.28770  29.48119   0.00000  2       26
siesta:     -4.68258  34.85847   0.00000  2       27
siesta:     -4.68258  37.54693   0.00000  2       28
siesta:      2.30256   6.62836   0.00000  2       29
siesta:      2.30256   9.31683   0.00000  2       30
siesta:      4.63094  10.66124   0.00000  2       31
siesta:      4.63094  13.34970   0.00000  2       32
siesta:      6.95932  14.69411   0.00000  2       33
siesta:      6.95932  17.38257   0.00000  2       34
siesta:      9.28770  18.72698   0.00000  2       35
siesta:      9.28770  21.41544   0.00000  2       36
siesta:     11.61608  22.75985   0.00000  2       37
siesta:     11.61608  25.44831   0.00000  2       38
siesta:     -2.35420   6.62836   0.00000  2       39
siesta:     -2.35420   9.31683   0.00000  2       40
siesta:     -0.02582  10.66124   0.00000  2       41
siesta:     -0.02582  13.34970   0.00000  2       42
siesta:      2.30256  14.69411   0.00000  2       43
siesta:      2.30256  17.38257   0.00000  2       44
siesta:      4.63094  18.72698   0.00000  2       45
siesta:      6.95932  22.75985   0.00000  2       46
siesta:      6.95932  25.44831   0.00000  2       47
siesta:     -4.68258  10.66124   0.00000  2       48
siesta:     -4.68258  13.34970   0.00000  2       49
siesta:     -2.35420  14.69411   0.00000  2       50
siesta:      2.30256  25.44831   0.00000  2       51
siesta:     -7.01096  14.69411   0.00000  2       52
siesta:     -4.68258  21.41544   0.00000  2       53
siesta:     -7.01096  22.75985   0.00000  2       54
siesta:     -7.01096  25.44831   0.00000  2       55
siesta:    -11.66772  22.75985   0.00000  2       56
siesta:    -11.66772  25.44831   0.00000  2       57
siesta:     -9.33934  26.79272   0.00000  2       58
siesta:     -9.33934  29.48119   0.00000  2       59
siesta:      4.63094  26.79272   0.00000  2       60
siesta:      4.63094  29.48119   0.00000  2       61
siesta:     -0.02582  26.79272   0.00000  2       62
siesta:     -0.02582  29.48119   0.00000  2       63
siesta:     -4.68258  26.79272   0.00000  2       64
siesta:     -4.68258  29.48119   0.00000  2       65
siesta:      2.30256  30.82560   0.00000  2       66
siesta:      2.30256  33.51406   0.00000  2       67
siesta:     -2.35420  30.82560   0.00000  2       68
siesta:     -2.35420  33.51406   0.00000  2       69
siesta:     -7.01096  30.82560   0.00000  2       70
siesta:     -7.01096  33.51406   0.00000  2       71
siesta:     -0.02582  45.61267   0.00000  2       72

siesta: System type = slab      

initatomlists: Number of atoms, orbitals, and projectors:     72   936  1152

siesta: ******************** Simulation parameters ****************************
siesta:
siesta: The following are some of the parameters of the simulation.
siesta: A complete list of the parameters used, including default values,
siesta: can be found in file out.fdf
siesta:
redata: Non-Collinear-spin run           =     F
redata: SpinPolarized (Up/Down) run      =     F
redata: Number of spin components        =     1
redata: Long output                      =     F
redata: Number of Atomic Species         =        2
redata: Charge density info will appear in .RHO file
redata: Write Mulliken Pop.              =     NO
redata: Mesh Cutoff                      =   200.0000  Ry
redata: Net charge of the system         =     0.0000 |e|
redata: Max. number of SCF Iter          =      500
redata: SCF convergence failure will abort job
redata: Performing Pulay mixing using    =    10 iterations
redata: Mix DM in first SCF step ?       =     F
redata: Write Pulay info on disk?        =     F
redata: Discard 1st Pulay DM after  kick =     F
redata: New DM Mixing Weight             =     0.0500
redata: New DM Occupancy tolerance       = 0.000000000001
redata: No kicks to SCF
redata: DM Mixing Weight for Kicks       =     0.5000
redata: DM Tolerance for SCF             =     0.000100
redata: Require Energy convergence for SCF =     F
redata: DM Energy tolerance for SCF      =     0.000100 eV
redata: Require Harris convergence for SCF =     F
redata: DM Harris energy tolerance for SCF =     0.000100 eV
redata: Using Saved Data (generic)   =     F
redata: Use continuation files for DM    =     T
redata: Neglect nonoverlap interactions  =     F
redata: Method of Calculation            =     Diagonalization
redata: Divide and Conquer               =     T
redata: Electronic Temperature           =     0.0019  Ry
redata: Fix the spin of the system       =     F
redata: Dynamics option                  =     Verlet MD run
redata: Initial MD time step             =        1
redata:   Final MD time step             =        1
redata: Length of MD time step           =     1.0000  fs
redata: Initial Temperature of MD run    =     0.0000  K
redata: Perform a MD quench              =     F
redata: ***********************************************************************
Total number of electrons:   272.000000
Total ionic charge:   272.000000

* ProcessorY, Blocksize:    3  24

k-point displ. along   1 input, could be:     0.50    0.00
k-point displ. along   2 input, could be:     0.50    0.00
 Kpoints in:          231 . Kpoints trimmed:          231

siesta: k-grid: Number of k-points =   231
siesta: k-grid: Cutoff (effective) =     5.000 Ang
siesta: k-grid: Supercell and displacements
siesta: k-grid:   21   0   0      0.500
siesta: k-grid:    0  21   0      0.500
siesta: k-grid:    0   0   1      0.000
Naive supercell factors:     2    2    2

superc: Internal auxiliary supercell:     2 x     2 x     2  =       8
superc: Number of atoms, orbitals, and projectors:    576   7488   9216

* Maximum dynamic memory allocated =     4 MB

siesta:                 ==============================
                            Begin MD step =      1
                        ==============================

superc: Internal auxiliary supercell:     2 x     2 x     2  =       8
superc: Number of atoms, orbitals, and projectors:    576   7488   9216

outcell: Unit cell vectors (Ang):
       12.804619    7.392750    0.000000
        0.000000   14.785500    0.000000
        0.000000    0.000000   10.000000

outcell: Cell vector modules (Ang)   :   14.785500   14.785500   10.000000
outcell: Cell angles (23,13,12) (deg):     90.0000     90.0000     60.0000
outcell: Cell volume (Ang**3)        :   1893.2269
New_DM. Step:     1
Initializing Density Matrix...

InitMesh: MESH =   120 x   120 x    90 =     1296000
InitMesh: Mesh cutoff (required, used) =   200.000   223.865 Ry

* Maximum dynamic memory allocated =   155 MB

stepf: Fermi-Dirac step function

siesta: Program's energy decomposition (eV):
siesta: Ebs     =     -5603.775799
siesta: Eions   =     16354.103692
siesta: Ena     =      4344.814170
siesta: Ekin    =      5534.369168
siesta: Enl     =       778.624774
siesta: DEna    =        -0.000010
siesta: DUscf   =         0.000000
siesta: DUext   =         0.000000
siesta: Exc     =     -4188.729980
siesta: eta*DQ  =         0.000000
siesta: Emadel  =         0.000000
siesta: Emeta   =         0.000000
siesta: Emolmec =         0.000000
siesta: Ekinion =         0.000000
siesta: Eharris =     -9659.238529
siesta: Etot    =     -9885.025569
siesta: FreeEng =     -9885.025569

siesta: iscf   Eharris(eV)      E_KS(eV)   FreeEng(eV)   dDmax  Ef(eV)
siesta:    1    -9659.2385    -9885.0256    -9885.0256  7.6633 -8.3820
timer: Routine,Calls,Time,% = IterSCF        1    5342.462  99.76
elaps: Routine,Calls,Wall,% = IterSCF        1     465.722  99.77
siesta:    2   -15283.6234    -8776.0352    -8776.1200 17.3175 -5.2752
siesta:    3    -9690.8214    -9698.0614    -9698.0845  1.9048 -5.5680
siesta:    4    -9617.5173    -9622.7604    -9622.8072  1.4947 -4.9742
siesta:    5    -9549.4400    -9569.8749    -9569.9035  1.2904 -5.2524
siesta:    6    -9516.1765    -9521.1348    -9521.1962  1.1075 -5.1843
siesta:    7    -9507.8902    -9502.3911    -9502.4543  0.9891 -5.1636
siesta:    8    -9499.6145    -9487.7348    -9487.8028  0.6093 -5.1709
siesta:    9    -9498.0512    -9482.4201    -9482.4787  0.6820 -5.1533
siesta:   10    -9497.3570    -9482.8681    -9482.9119  0.6735 -5.1448
siesta:   11    -9496.3221    -9478.9107    -9478.9713  0.3508 -5.0446
siesta:   12    -9497.4614    -9476.5586    -9476.6453  0.5967 -4.9468
siesta:   13    -9497.2482    -9475.5015    -9475.5804  0.3579 -4.9570
siesta:   14    -9495.2413    -9474.8787    -9474.9500  0.3604 -4.9749
siesta:   15    -9495.1103    -9478.2840    -9478.3744  0.3342 -4.9868
siesta:   16    -9494.9808    -9481.6190    -9481.7050  0.2897 -5.0032
siesta:   17    -9494.7338    -9483.8522    -9483.9403  0.2327 -5.0250
siesta:   18    -9494.5988    -9484.8497    -9484.9361  0.2086 -5.0297
siesta:   19    -9494.4381    -9489.2805    -9489.3725  0.1714 -5.0589
siesta:   20    -9494.3342    -9493.0652    -9493.1543  0.1199 -5.0898
siesta:   21    -9494.3269    -9494.7058    -9494.7971  0.0806 -5.0975
siesta:   22    -9494.3028    -9495.2529    -9495.3457  0.0495 -5.0988
siesta:   23    -9494.2857    -9495.6531    -9495.7445  0.0717 -5.0953
siesta:   24    -9494.2686    -9495.4233    -9495.5101  0.0440 -5.0855
siesta:   25    -9494.2650    -9495.5786    -9495.6687  0.0441 -5.0770
siesta:   26    -9494.2638    -9495.4978    -9495.5920  0.0173 -5.0764
siesta:   27    -9494.2626    -9495.5142    -9495.6066  0.0146 -5.0739
siesta:   28    -9494.2593    -9495.2544    -9495.3463  0.0121 -5.0732
siesta:   29    -9494.2583    -9495.0274    -9495.1192  0.0078 -5.0710
siesta:   30    -9494.2571    -9494.7295    -9494.8216  0.0182 -5.0687
siesta:   31    -9494.2575    -9494.5718    -9494.6648  0.0056 -5.0696
siesta:   32    -9494.2577    -9494.4286    -9494.5210  0.0026 -5.0700
siesta:   33    -9494.2577    -9494.3524    -9494.4446  0.0021 -5.0708
siesta:   34    -9494.2575    -9494.3315    -9494.4236  0.0013 -5.0708
siesta:   35    -9494.2574    -9494.3274    -9494.4196  0.0011 -5.0710
siesta:   36    -9494.2574    -9494.3134    -9494.4057  0.0010 -5.0712
siesta:   37    -9494.2574    -9494.2887    -9494.3810  0.0009 -5.0712
siesta:   38    -9494.2574    -9494.2687    -9494.3610  0.0003 -5.0710
siesta:   39    -9494.2574    -9494.2593    -9494.3516  0.0003 -5.0711
siesta:   40    -9494.2574    -9494.2556    -9494.3479  0.0002 -5.0711
siesta:   41    -9494.2574    -9494.2552    -9494.3475  0.0002 -5.0712
siesta:   42    -9494.2574    -9494.2527    -9494.3450  0.0002 -5.0712
siesta:   43    -9494.2574    -9494.2521    -9494.3444  0.0001 -5.0712
siesta:   44    -9494.2574    -9494.2533    -9494.3455  0.0001 -5.0712

siesta: E_KS(eV) =            -9494.2567

siesta: E_KS - E_eggbox =     -9494.2567

siesta: Atomic forces (eV/Ang):
----------------------------------------
   Tot   -0.033170   -0.040407    0.000000
----------------------------------------
   Max  560.784523
   Res  148.368162    sqrt( Sum f_i^2 / 3N )
----------------------------------------
   Max  560.784523    constrained

Stress-tensor-Voigt (kbar):     -754.88    -2652.36       -0.54       13.04        0.00        0.00
(Free)E + p*V (eV/cell)    -8152.0844
Target enthalpy (eV/cell)    -9494.3490

siesta: Stress tensor (static) (eV/Ang**3):
        -0.471154    0.008141    0.000000
         0.008141   -1.655458    0.000000
         0.000000    0.000000   -0.000336

siesta: Pressure (static):       1135.92737609  kBar

siesta: Stress tensor (total) (eV/Ang**3):
        -0.471154    0.008141    0.000000
         0.008141   -1.655458    0.000000
         0.000000    0.000000   -0.000336

siesta: Pressure (total):       1135.92737609  kBar

siesta: Temp_ion =       0.000 K

* Maximum dynamic memory allocated =   168 MB
Computing bands...

siesta: Program's energy decomposition (eV):
siesta: Ebs     =     -4222.926258
siesta: Eions   =     16354.103692
siesta: Ena     =      4344.814170
siesta: Ekin    =      8394.352173
siesta: Enl     =      -849.260165
siesta: DEna    =      -777.372709
siesta: DUscf   =       105.456562
siesta: DUext   =         0.000000
siesta: Exc     =     -4358.143045
siesta: eta*DQ  =         0.000000
siesta: Emadel  =         0.000000
siesta: Emeta   =         0.000000
siesta: Emolmec =         0.000000
siesta: Ekinion =         0.000000
siesta: Eharris =     -9494.257393
siesta: Etot    =     -9494.256706
siesta: FreeEng =     -9494.348995

siesta: Final energy (eV):
siesta:  Band Struct. =   -4222.926258
siesta:       Kinetic =    8394.352173
siesta:       Hartree =   27068.495798
siesta:    Ext. field =       0.000000
siesta:   Exch.-corr. =   -4358.143045
siesta:  Ion-electron =  -62218.504546
siesta:       Ion-ion =   21619.542913
siesta:       Ekinion =       0.000000
siesta:         Total =   -9494.256706

siesta: Atomic forces (eV/Ang):
siesta:      1    1.440255  104.649525    0.000000
siesta:      2   -3.039936 -397.630237    0.000000
siesta:      3    2.703271   -2.602148    0.000000
siesta:      4  -14.901953   -1.391251    0.000000
siesta:      5   -1.657664  415.850019    0.000000
siesta:      6    1.282686   -1.429336    0.000000
siesta:      7   -0.439884    4.484993    0.000000
siesta:      8   -3.078509   -7.486748    0.000000
siesta:      9    1.297071    3.084640    0.000000
siesta:     10   -3.985370   -3.312753    0.000000
siesta:     11    0.336534    4.942666    0.000000
siesta:     12   -4.307866   -2.235036    0.000000
siesta:     13   -3.795941    2.411615    0.000000
siesta:     14    1.191207  113.686266    0.000000
siesta:     15   -5.198236 -392.368417    0.000000
siesta:     16   -4.683372  108.758834    0.000000
siesta:     17   -0.561508  550.177179    0.000000
siesta:     18    0.366697 -132.836860    0.000000
siesta:     19   -6.259871  117.872475    0.000000
siesta:     20    5.843587 -547.285820    0.000000
siesta:     21   26.570052    5.124806    0.000000
siesta:     22   35.431407 -546.699842    0.000000
siesta:     23    2.023991    0.060057    0.000000
siesta:     24   -2.967172    2.322143    0.000000
siesta:     25    1.783212    2.038291    0.000000
siesta:     26   -0.561076    0.388317    0.000000
siesta:     27  -27.065279    5.501262    0.000000
siesta:     28  -26.235109 -543.440284    0.000000
siesta:     29   25.587834  549.258409    0.000000
siesta:     30   -2.784038 -128.428497    0.000000
siesta:     31   34.025910  547.414066    0.000000
siesta:     32   26.359293   -3.280749    0.000000
siesta:     33   -2.598258   -2.330216    0.000000
siesta:     34    2.690864   -0.670243    0.000000
siesta:     35   -1.432567   -0.878266    0.000000
siesta:     36    2.536932   -1.215145    0.000000
siesta:     37   -0.551046    6.725176    0.000000
siesta:     38    0.178474   -6.494331    0.000000
siesta:     39  -25.393214  552.390388    0.000000
siesta:     40    4.430256 -129.069727    0.000000
siesta:     41    1.506194  408.118040    0.000000
siesta:     42   -6.926189 -119.647663    0.000000
siesta:     43   30.918447  560.784523    0.000000
siesta:     44   19.852790   -4.161759    0.000000
siesta:     45   -1.144238   -2.064360    0.000000
siesta:     46    2.636867    2.977406    0.000000
siesta:     47    0.396737   -1.025146    0.000000
siesta:     48  -35.611911  550.429675    0.000000
siesta:     49  -23.408918   -3.005091    0.000000
siesta:     50  -26.592354  408.243319    0.000000
siesta:     51   -0.067679    3.949670    0.000000
siesta:     52    3.139258   -4.089231    0.000000
siesta:     53   -2.618215    3.069269    0.000000
siesta:     54    2.795546    2.073703    0.000000
siesta:     55    0.572335    0.227470    0.000000
siesta:     56   -2.530878    8.976479    0.000000
siesta:     57   -0.167297   -6.710491    0.000000
siesta:     58   -2.731958    1.620298    0.000000
siesta:     59    1.101526    0.346669    0.000000
siesta:     60    0.010258    0.871749    0.000000
siesta:     61   -0.870688   -1.924354    0.000000
siesta:     62    2.755726    1.124681    0.000000
siesta:     63    0.771089 -560.177274    0.000000
siesta:     64   -3.213753    2.165531    0.000000
siesta:     65    0.454105   -2.309441    0.000000
siesta:     66   22.324402    6.243983    0.000000
siesta:     67   15.427824 -550.477301    0.000000
siesta:     68  -22.125825    6.504333    0.000000
siesta:     69  -15.908453 -551.022716    0.000000
siesta:     70   -1.953148    0.387640    0.000000
siesta:     71    2.517905    2.202023    0.000000
siesta:     72    4.075663 -409.797256    0.000000
siesta: ----------------------------------------
siesta:    Tot   -0.033170   -0.040407    0.000000

siesta: Stress tensor (static) (eV/Ang**3):
siesta:    -0.471154    0.008141    0.000000
siesta:     0.008141   -1.655458    0.000000
siesta:     0.000000    0.000000   -0.000336

siesta: Cell volume =       1893.226884 Ang**3

siesta: Pressure (static):
siesta:                Solid            Molecule  Units
siesta:           0.00772172          0.11424573  Ry/Bohr**3
siesta:           0.70898244         10.48965458  eV/Ang**3
siesta:        1135.92737609      16806.46112724  kBar
(Free)E+ p_basis*V_orbitals  =       -9458.556123
(Free)Eharris+ p_basis*V_orbitals  =       -9458.560259

siesta: Electric dipole (a.u.)  =    0.000000    0.000000    0.000000
siesta: Electric dipole (Debye) =    0.000000    0.000000    0.000000

* Maximum dynamic memory allocated : Node    0 =   164 MB
* Maximum dynamic memory allocated : Node    1 =    64 MB
* Maximum dynamic memory allocated : Node    2 =    68 MB
* Maximum dynamic memory allocated : Node    3 =   152 MB
* Maximum dynamic memory allocated : Node    4 =   168 MB
* Maximum dynamic memory allocated : Node    5 =    62 MB
* Maximum dynamic memory allocated : Node    6 =    62 MB
* Maximum dynamic memory allocated : Node    7 =   157 MB
* Maximum dynamic memory allocated : Node    8 =   155 MB
* Maximum dynamic memory allocated : Node    9 =    63 MB
* Maximum dynamic memory allocated : Node   10 =    64 MB
* Maximum dynamic memory allocated : Node   11 =   148 MB

* Maximum memory occured during matrixMtoO                    

timer: CPU execution times:
timer:  Routine       Calls   Time/call    Tot.time        %
timer:  siesta            1  234645.666  234645.666   100.00
timer:  Setup             1       3.213       3.213     0.00
timer:  bands             3     420.671    1262.013     0.54
timer:  writewave         1       0.012       0.012     0.00
timer:  KSV_init          1       0.003       0.003     0.00
timer:  IterMD            1  233372.261  233372.261    99.46
timer:  hsparse           1       0.283       0.283     0.00
timer:  overlap           1       7.423       7.423     0.00
timer:  IterSCF          44    5300.216  233209.514    99.39
timer:  kinefsm           2       3.779       7.559     0.00
timer:  nlefsm            2      19.968      39.936     0.02
timer:  DHSCF            45      84.065    3782.904     1.61
timer:  DHSCF1            1       1.191       1.191     0.00
timer:  DHSCF2            1      32.586      32.586     0.01
timer:  REORD           362       0.002       0.836     0.00
timer:  POISON           46       0.623      28.681     0.01
timer:  DHSCF3           45      82.679    3720.568     1.59
timer:  rhoofd           45      17.437     784.672     0.33
timer:  cellXC           45       2.918     131.309     0.06
timer:  vmat             45      38.727    1742.695     0.74
timer:  MolMec            2       0.000       0.000     0.00
timer:  diagon           44    5214.111  229420.906    97.77
timer:  c-eigval      10285      10.380  106759.611    45.50
timer:  c-buildHS     10285       0.034     351.664     0.15
timer:  cdiag         20449      10.646  217710.032    92.78
timer:  cdiag1        20449       0.479    9804.310     4.18
timer:  cdiag2        20449       3.394   69409.565    29.58
timer:  cdiag3        20449       6.315  129131.617    55.03
timer:  cdiag4        20449       0.163    3323.550     1.42
timer:  c-eigvec      10164      10.980  111605.503    47.56
timer:  c-buildD      10164       1.206   12261.167     5.23
timer:  DHSCF4            1      28.213      28.213     0.01
timer:  dfscf             1      26.115      26.115     0.01
timer:  overfsm           1       0.328       0.328     0.00
timer:  optical           1       7.516       7.516     0.00
  

elaps: ELAPSED times:
elaps:  Routine       Calls   Time/call    Tot.time        %
elaps:  siesta            1   20451.552   20451.552   100.00
elaps:  Setup             1       0.280       0.280     0.00
elaps:  bands             3      36.685     110.056     0.54
elaps:  writewave         1       0.002       0.002     0.00
elaps:  KSV_init          1       0.000       0.000     0.00
elaps:  IterMD            1   20340.562   20340.562    99.46
elaps:  hsparse           1       0.029       0.029     0.00
elaps:  overlap           1       0.714       0.714     0.00
elaps:  IterSCF          44     461.965   20326.445    99.39
elaps:  kinefsm           2       0.453       0.906     0.00
elaps:  nlefsm            2       1.940       3.879     0.02
elaps:  DHSCF            45       7.368     331.548     1.62
elaps:  DHSCF1            1       0.102       0.102     0.00
elaps:  DHSCF2            1       2.849       2.849     0.01
elaps:  REORD           362       0.000       0.099     0.00
elaps:  POISON           46       0.055       2.541     0.01
elaps:  DHSCF3           45       7.206     324.265     1.59
elaps:  rhoofd           45       3.002     135.100     0.66
elaps:  cellXC           45       0.254      11.417     0.06
elaps:  vmat             45       3.376     151.903     0.74
elaps:  MolMec            2       0.000       0.000     0.00
elaps:  diagon           44     454.472   19996.778    97.78
elaps:  c-eigval      10285       0.905    9305.231    45.50
elaps:  c-buildHS     10285       0.004      37.322     0.18
elaps:  cdiag         20449       0.921   18843.192    92.14
elaps:  cdiag1        20449       0.041     845.044     4.13
elaps:  cdiag2        20449       0.296    6057.294    29.62
elaps:  cdiag3        20449       0.551   11277.397    55.14
elaps:  cdiag4        20449       0.013     275.158     1.35
elaps:  c-eigvec      10164       0.946    9615.357    47.02
elaps:  c-buildD      10164       0.116    1179.422     5.77
elaps:  DHSCF4            1       4.285       4.285     0.02
elaps:  dfscf             1       4.031       4.031     0.02
elaps:  overfsm           1       0.034       0.034     0.00
elaps:  optical           1       0.000       0.000     0.00
  
>> End of run:   2-MAY-2016  10:25:58
