Siesta Version:                                        siesta-3.2-pl-3
Architecture  : x86_64-unknown-linux-gnu--unknown
Compiler flags: mpiifort -g -O2 -fPIC -xSSE4.1 -fp-model source -shared-intel 
PARALLEL version

* Running on    8 nodes in parallel
>> Start of run:   7-MAY-2016   3:33:04

                           ***********************       
                           *  WELCOME TO SIESTA  *       
                           ***********************       

reinit: Reading from standard input
************************** Dump of input data file ****************************
#(1) General system descriptors
SystemName            GRP_doping    # Descriptive name of the system
SystemLabel           GRP_doping    # Short name for naming files
%include STRUCT.fdf
%include KPT.fdf
%include BASIS.fdf
#%include TS.fdf # for transiesta calculation
#(4) DFT, Grid, SCF
XC.functional         GGA           # LDA or GGA (default = LDA)
XC.authors            PBE           # CA (Ceperley-Aldr) = PZ
                                    #    (Perdew-Zunger) - LDA - Default
                                    # PW92 (Perdew-Wang-92) - LDA
                                    # PBE (Perdew-Burke-Ernzerhof) - GGA
MeshCutoff            200.000000    Ry      # Default: 50.0 Ry ~ 0.444 Bohr
                                    #         100.0 Ry ~ 0.314 Bohr
MaxSCFIterations      500           # Default: 50
DM.MixingWeight       0.05          # Default: 0.25
DM.NumberPulay        10            # Default: 0
DM.PulayOnFile        F             # SystemLabel.P1, SystemLabel.P2
DM.Tolerance          1.d-4         # Default: 1.d-4
DM.UseSaveDM          .true.        # because of the bug
SCFMustConverge       .true.
NeglNonOverlapInt     F             # Default: F
#(5) Eigenvalue problem: order-N or diagonalization
SolutionMethod        Diagon        # or Transiesta
ElectronicTemperature 300.0 K       # Default: 300.0 K
#(6) Molecular dynamics and relaxations
#MD.TypeOfRun          CG            # Type of dynamics:
#MD.VariableCell       F
#MD.NumCGsteps         0           # 0 for single-point / 100 for gopt
#MD.MaxCGDispl         0.2 Bohr      # Default: 0.2 Bohr
#MD.MaxForceTol        0.02 eV/Ang   # Default: 0.04 eV/Ang
#MD.MaxStressTol       1.0 GPa       # Default: 1.0 GPa
# Geometry Constraints
#%block GeometryConstraints
#	position from 1 to 44
#%endblock GeometryConstraints
BandLinesScale   pi/a
%block BandLines
 1   0.00000000  0.00000000  0.00000000
50   0.00000000  0.07809418  0.00000000
50   0.04509075  0.07809242  0.00000000
20   0.00000000  0.00000000  0.00000000
%endblock BandLines
************************** End of input data file *****************************

reinit: -----------------------------------------------------------------------
reinit: System Name: GRP_doping
reinit: -----------------------------------------------------------------------
reinit: System Label: GRP_doping                                                  
reinit: -----------------------------------------------------------------------

initatom: Reading input for the pseudopotentials and atomic orbitals ----------
 Species number:            1  Label: N Atomic number:           7
 Species number:            2  Label: C Atomic number:           6
Ground state valence configuration:   2s02  2p03
Reading pseudopotential information in formatted form from N.psf

Valence configuration for pseudopotential generation:
2s( 2.00) rc: 1.48
2p( 3.00) rc: 1.48
3d( 0.00) rc: 1.48
4f( 0.00) rc: 1.48
Ground state valence configuration:   2s02  2p02
Reading pseudopotential information in formatted form from C.psf

Valence configuration for pseudopotential generation:
2s( 2.00) rc: 1.54
2p( 2.00) rc: 1.54
3d( 0.00) rc: 1.54
4f( 0.00) rc: 1.54
For N, standard SIESTA heuristics set lmxkb to 3
 (one more than the basis l, including polarization orbitals).
Use PS.lmax or PS.KBprojectors blocks to override.
For C, standard SIESTA heuristics set lmxkb to 3
 (one more than the basis l, including polarization orbitals).
Use PS.lmax or PS.KBprojectors blocks to override.

<basis_specs>
===============================================================================
N                    Z=   7    Mass=  14.010        Charge= 0.17977+309
Lmxo=1 Lmxkb= 3    BasisType=split      Semic=F
L=0  Nsemic=0  Cnfigmx=2
          n=1  nzeta=2  polorb=0
            splnorm:   0.15000    
               vcte:    0.0000    
               rinn:    0.0000    
                rcs:    0.0000      0.0000    
            lambdas:    1.0000      1.0000    
L=1  Nsemic=0  Cnfigmx=2
          n=1  nzeta=2  polorb=1
            splnorm:   0.15000    
               vcte:    0.0000    
               rinn:    0.0000    
                rcs:    0.0000      0.0000    
            lambdas:    1.0000      1.0000    
-------------------------------------------------------------------------------
L=0  Nkbl=1  erefs: 0.17977+309
L=1  Nkbl=1  erefs: 0.17977+309
L=2  Nkbl=1  erefs: 0.17977+309
L=3  Nkbl=1  erefs: 0.17977+309
===============================================================================
</basis_specs>

atom: Called for N                     (Z =   7)

read_vps: Pseudopotential generation method:
read_vps: ATM3      Troullier-Martins                       
Total valence charge:    5.00000

read_vps: Pseudopotential includes a core correction:
read_vps: Pseudo-core for xc-correction

xc_check: Exchange-correlation functional:
xc_check: GGA Perdew, Burke & Ernzerhof 1996
V l=0 = -2*Zval/r beyond r=  1.4606
V l=1 = -2*Zval/r beyond r=  1.4606
V l=2 = -2*Zval/r beyond r=  1.4606
V l=3 = -2*Zval/r beyond r=  1.4606
All V_l potentials equal beyond r=  1.4606
This should be close to max(r_c) in ps generation
All pots = -2*Zval/r beyond r=  1.4606

VLOCAL1: 99.0% of the norm of Vloc inside     20.347 Ry
VLOCAL1: 99.9% of the norm of Vloc inside     46.372 Ry
atom: Maximum radius for 4*pi*r*r*local-pseudopot. charge    1.76189
atom: Maximum radius for r*vlocal+2*Zval:    1.53550
GHOST: No ghost state for L =  0
GHOST: No ghost state for L =  1
GHOST: No ghost state for L =  2
GHOST: No ghost state for L =  3

KBgen: Kleinman-Bylander projectors: 
   l= 0   rc=  1.634559   el= -1.363963   Ekb=  5.296955   kbcos=  0.335621
   l= 1   rc=  1.614250   el= -0.521451   Ekb= -5.259161   kbcos= -0.433408
   l= 2   rc=  1.718383   el=  0.001991   Ekb= -1.271464   kbcos= -0.007566
   l= 3   rc=  1.761893   el=  0.003093   Ekb= -0.494769   kbcos= -0.001015

KBgen: Total number of  Kleinman-Bylander projectors:   16
atom: -------------------------------------------------------------------------

atom: SANKEY-TYPE ORBITALS:
atom: Selected multiple-zeta basis: split     

SPLIT: Orbitals with angular momentum L= 0

SPLIT: Basis orbitals for state 2s

SPLIT: PAO cut-off radius determined from an
SPLIT: energy shift=  0.007350 Ry

   izeta = 1
                 lambda =    1.000000
                     rc =    4.071465
                 energy =   -1.356470
                kinetic =    1.176977
    potential(screened) =   -2.533447
       potential(ionic) =   -8.057990

   izeta = 2
                 rmatch =    2.905100
              splitnorm =    0.150000
                 energy =   -1.158343
                kinetic =    1.813009
    potential(screened) =   -2.971352
       potential(ionic) =   -8.901931

SPLIT: Orbitals with angular momentum L= 1

SPLIT: Basis orbitals for state 2p

SPLIT: PAO cut-off radius determined from an
SPLIT: energy shift=  0.007350 Ry

   izeta = 1
                 lambda =    1.000000
                     rc =    4.972977
                 energy =   -0.513884
                kinetic =    3.441732
    potential(screened) =   -3.955616
       potential(ionic) =   -9.287901

   izeta = 2
                 rmatch =    3.054066
              splitnorm =    0.150000
                 energy =   -0.318226
                kinetic =    5.125348
    potential(screened) =   -5.443573
       potential(ionic) =  -11.380999

POLgen: Perturbative polarization orbital with L=  2

POLgen: Polarization orbital for state 2p

   izeta = 1
                     rc =    4.972977
                 energy =    1.607437
                kinetic =    3.268125
    potential(screened) =   -1.660688
       potential(ionic) =   -5.973652
atom: Total number of Sankey-type orbitals: 13

atm_pop: Valence configuration (for local Pseudopot. screening):
 2s( 2.00)                                                            
 2p( 3.00)                                                            
Vna: chval, zval:    5.00000   5.00000

Vna:  Cut-off radius for the neutral-atom potential:   4.972977
comcore: Pseudo-core radius Rcore=  1.554824

atom: _________________________________________________________________________

<basis_specs>
===============================================================================
C                    Z=   6    Mass=  12.010        Charge= 0.17977+309
Lmxo=1 Lmxkb= 3    BasisType=split      Semic=F
L=0  Nsemic=0  Cnfigmx=2
          n=1  nzeta=2  polorb=0
            splnorm:   0.15000    
               vcte:    0.0000    
               rinn:    0.0000    
                rcs:    0.0000      0.0000    
            lambdas:    1.0000      1.0000    
L=1  Nsemic=0  Cnfigmx=2
          n=1  nzeta=2  polorb=1
            splnorm:   0.15000    
               vcte:    0.0000    
               rinn:    0.0000    
                rcs:    0.0000      0.0000    
            lambdas:    1.0000      1.0000    
-------------------------------------------------------------------------------
L=0  Nkbl=1  erefs: 0.17977+309
L=1  Nkbl=1  erefs: 0.17977+309
L=2  Nkbl=1  erefs: 0.17977+309
L=3  Nkbl=1  erefs: 0.17977+309
===============================================================================
</basis_specs>

atom: Called for C                     (Z =   6)

read_vps: Pseudopotential generation method:
read_vps: ATM3      Troullier-Martins                       
Total valence charge:    4.00000

read_vps: Pseudopotential includes a core correction:
read_vps: Pseudo-core for xc-correction

xc_check: Exchange-correlation functional:
xc_check: GGA Perdew, Burke & Ernzerhof 1996
V l=0 = -2*Zval/r beyond r=  1.5227
V l=1 = -2*Zval/r beyond r=  1.5227
V l=2 = -2*Zval/r beyond r=  1.5227
V l=3 = -2*Zval/r beyond r=  1.5038
All V_l potentials equal beyond r=  1.5227
This should be close to max(r_c) in ps generation
All pots = -2*Zval/r beyond r=  1.5227

VLOCAL1: 99.0% of the norm of Vloc inside     18.722 Ry
VLOCAL1: 99.9% of the norm of Vloc inside     42.668 Ry
atom: Maximum radius for 4*pi*r*r*local-pseudopot. charge    1.83678
atom: Maximum radius for r*vlocal+2*Zval:    1.58088
GHOST: No ghost state for L =  0
GHOST: No ghost state for L =  1
GHOST: No ghost state for L =  2
GHOST: No ghost state for L =  3

KBgen: Kleinman-Bylander projectors: 
   l= 0   rc=  1.704034   el= -1.009801   Ekb=  5.335044   kbcos=  0.316824
   l= 1   rc=  1.704034   el= -0.388707   Ekb= -3.785862   kbcos= -0.366464
   l= 2   rc=  1.791422   el=  0.001971   Ekb= -0.970471   kbcos= -0.009212
   l= 3   rc=  1.859892   el=  0.003065   Ekb= -0.399525   kbcos= -0.001223

KBgen: Total number of  Kleinman-Bylander projectors:   16
atom: -------------------------------------------------------------------------

atom: SANKEY-TYPE ORBITALS:
atom: Selected multiple-zeta basis: split     

SPLIT: Orbitals with angular momentum L= 0

SPLIT: Basis orbitals for state 2s

SPLIT: PAO cut-off radius determined from an
SPLIT: energy shift=  0.007350 Ry

   izeta = 1
                 lambda =    1.000000
                     rc =    4.632753
                 energy =   -1.002270
                kinetic =    0.855760
    potential(screened) =   -1.858031
       potential(ionic) =   -5.417575

   izeta = 2
                 rmatch =    3.431921
              splitnorm =    0.150000
                 energy =   -0.867111
                kinetic =    1.300804
    potential(screened) =   -2.167915
       potential(ionic) =   -5.962684

SPLIT: Orbitals with angular momentum L= 1

SPLIT: Basis orbitals for state 2p

SPLIT: PAO cut-off radius determined from an
SPLIT: energy shift=  0.007350 Ry

   izeta = 1
                 lambda =    1.000000
                     rc =    5.658549
                 energy =   -0.381140
                kinetic =    2.399701
    potential(screened) =   -2.780841
       potential(ionic) =   -6.206085

   izeta = 2
                 rmatch =    3.653288
              splitnorm =    0.150000
                 energy =   -0.249149
                kinetic =    3.542762
    potential(screened) =   -3.791911
       potential(ionic) =   -7.581078

POLgen: Perturbative polarization orbital with L=  2

POLgen: Polarization orbital for state 2p

   izeta = 1
                     rc =    5.658549
                 energy =    1.109913
                kinetic =    2.304789
    potential(screened) =   -1.194876
       potential(ionic) =   -4.013592
atom: Total number of Sankey-type orbitals: 13

atm_pop: Valence configuration (for local Pseudopot. screening):
 2s( 2.00)                                                            
 2p( 2.00)                                                            
Vna: chval, zval:    4.00000   4.00000

Vna:  Cut-off radius for the neutral-atom potential:   5.658549
comcore: Pseudo-core radius Rcore=  1.791422

atom: _________________________________________________________________________

prinput: Basis input ----------------------------------------------------------

PAO.BasisType split     

%block ChemicalSpeciesLabel
    1    7 N                       # Species index, atomic number, species label
    2    6 C                       # Species index, atomic number, species label
%endblock ChemicalSpeciesLabel

%block PAO.Basis                 # Define Basis set
N                     2                    # Species label, number of l-shells
 n=2   0   2                         # n, l, Nzeta 
   4.071      2.905   
   1.000      1.000   
 n=2   1   2 P   1                   # n, l, Nzeta, Polarization, NzetaPol
   4.973      3.054   
   1.000      1.000   
C                     2                    # Species label, number of l-shells
 n=2   0   2                         # n, l, Nzeta 
   4.633      3.432   
   1.000      1.000   
 n=2   1   2 P   1                   # n, l, Nzeta, Polarization, NzetaPol
   5.659      3.653   
   1.000      1.000   
%endblock PAO.Basis

prinput: ----------------------------------------------------------------------

coor:   Atomic-coordinates input format  =     Fractional

siesta: Atomic coordinates (Bohr) and species
siesta:     -2.35420  17.38257   0.00000  1        1
siesta:     -0.02582  18.72698   0.00000  1        2
siesta:     -0.02582  21.41544   0.00000  1        3
siesta:      2.30256  22.75985   0.00000  1        4
siesta:      2.30256  25.44831   0.00000  1        5
siesta:     -4.68258  18.72698   0.00000  1        6
siesta:     -4.68258  21.41544   0.00000  1        7
siesta:     -2.35420  25.44831   0.00000  1        8
siesta:     -7.01096  22.75985   0.00000  1        9
siesta:     -7.01096  25.44831   0.00000  1       10
siesta:     -0.02582  26.79272   0.00000  1       11
siesta:     -4.68258  26.79272   0.00000  1       12
siesta:     -0.02582   2.59549   0.00000  2       13
siesta:     -0.02582   5.28395   0.00000  2       14
siesta:     -2.35420  38.89134   0.00000  2       15
siesta:     -2.35420  41.57980   0.00000  2       16
siesta:      2.30256  38.89134   0.00000  2       17
siesta:      2.30256  41.57980   0.00000  2       18
siesta:      4.63094  34.85847   0.00000  2       19
siesta:      4.63094  37.54693   0.00000  2       20
siesta:      6.95932  30.82560   0.00000  2       21
siesta:      6.95932  33.51406   0.00000  2       22
siesta:      9.28770  26.79272   0.00000  2       23
siesta:      9.28770  29.48119   0.00000  2       24
siesta:     -4.68258  34.85847   0.00000  2       25
siesta:     -4.68258  37.54693   0.00000  2       26
siesta:      2.30256   6.62836   0.00000  2       27
siesta:      2.30256   9.31683   0.00000  2       28
siesta:      4.63094  10.66124   0.00000  2       29
siesta:      4.63094  13.34970   0.00000  2       30
siesta:      6.95932  14.69411   0.00000  2       31
siesta:      6.95932  17.38257   0.00000  2       32
siesta:      9.28770  18.72698   0.00000  2       33
siesta:      9.28770  21.41544   0.00000  2       34
siesta:     11.61608  22.75985   0.00000  2       35
siesta:     11.61608  25.44831   0.00000  2       36
siesta:     -2.35420   6.62836   0.00000  2       37
siesta:     -2.35420   9.31683   0.00000  2       38
siesta:     -0.02582  10.66124   0.00000  2       39
siesta:     -0.02582  13.34970   0.00000  2       40
siesta:      2.30256  14.69411   0.00000  2       41
siesta:      2.30256  17.38257   0.00000  2       42
siesta:      4.63094  18.72698   0.00000  2       43
siesta:      4.63094  21.41544   0.00000  2       44
siesta:      6.95932  22.75985   0.00000  2       45
siesta:      6.95932  25.44831   0.00000  2       46
siesta:     -4.68258  10.66124   0.00000  2       47
siesta:     -4.68258  13.34970   0.00000  2       48
siesta:     -2.35420  14.69411   0.00000  2       49
siesta:     -7.01096  14.69411   0.00000  2       50
siesta:     -7.01096  17.38257   0.00000  2       51
siesta:     -2.35420  22.75985   0.00000  2       52
siesta:     -9.33934  18.72698   0.00000  2       53
siesta:     -9.33934  21.41544   0.00000  2       54
siesta:    -11.66772  22.75985   0.00000  2       55
siesta:    -11.66772  25.44831   0.00000  2       56
siesta:     -9.33934  26.79272   0.00000  2       57
siesta:     -9.33934  29.48119   0.00000  2       58
siesta:      4.63094  26.79272   0.00000  2       59
siesta:      4.63094  29.48119   0.00000  2       60
siesta:     -0.02582  29.48119   0.00000  2       61
siesta:     -4.68258  29.48119   0.00000  2       62
siesta:      2.30256  30.82560   0.00000  2       63
siesta:      2.30256  33.51406   0.00000  2       64
siesta:     -2.35420  30.82560   0.00000  2       65
siesta:     -2.35420  33.51406   0.00000  2       66
siesta:     -7.01096  30.82560   0.00000  2       67
siesta:     -7.01096  33.51406   0.00000  2       68
siesta:     -0.02582  34.85847   0.00000  2       69
siesta:     -0.02582  37.54693   0.00000  2       70
siesta:     -0.02582  42.92421   0.00000  2       71
siesta:     -0.02582  45.61267   0.00000  2       72

siesta: System type = slab      

initatomlists: Number of atoms, orbitals, and projectors:     72   936  1152

siesta: ******************** Simulation parameters ****************************
siesta:
siesta: The following are some of the parameters of the simulation.
siesta: A complete list of the parameters used, including default values,
siesta: can be found in file out.fdf
siesta:
redata: Non-Collinear-spin run           =     F
redata: SpinPolarized (Up/Down) run      =     F
redata: Number of spin components        =     1
redata: Long output                      =     F
redata: Number of Atomic Species         =        2
redata: Charge density info will appear in .RHO file
redata: Write Mulliken Pop.              =     NO
redata: Mesh Cutoff                      =   200.0000  Ry
redata: Net charge of the system         =     0.0000 |e|
redata: Max. number of SCF Iter          =      500
redata: SCF convergence failure will abort job
redata: Performing Pulay mixing using    =    10 iterations
redata: Mix DM in first SCF step ?       =     F
redata: Write Pulay info on disk?        =     F
redata: Discard 1st Pulay DM after  kick =     F
redata: New DM Mixing Weight             =     0.0500
redata: New DM Occupancy tolerance       = 0.000000000001
redata: No kicks to SCF
redata: DM Mixing Weight for Kicks       =     0.5000
redata: DM Tolerance for SCF             =     0.000100
redata: Require Energy convergence for SCF =     F
redata: DM Energy tolerance for SCF      =     0.000100 eV
redata: Require Harris convergence for SCF =     F
redata: DM Harris energy tolerance for SCF =     0.000100 eV
redata: Using Saved Data (generic)   =     F
redata: Use continuation files for DM    =     T
redata: Neglect nonoverlap interactions  =     F
redata: Method of Calculation            =     Diagonalization
redata: Divide and Conquer               =     T
redata: Electronic Temperature           =     0.0019  Ry
redata: Fix the spin of the system       =     F
redata: Dynamics option                  =     Verlet MD run
redata: Initial MD time step             =        1
redata:   Final MD time step             =        1
redata: Length of MD time step           =     1.0000  fs
redata: Initial Temperature of MD run    =     0.0000  K
redata: Perform a MD quench              =     F
redata: ***********************************************************************
Total number of electrons:   300.000000
Total ionic charge:   300.000000

* ProcessorY, Blocksize:    2  24

k-point displ. along   1 input, could be:     0.50    0.00
k-point displ. along   2 input, could be:     0.50    0.00
 Kpoints in:          231 . Kpoints trimmed:          231

siesta: k-grid: Number of k-points =   231
siesta: k-grid: Cutoff (effective) =     5.000 Ang
siesta: k-grid: Supercell and displacements
siesta: k-grid:   21   0   0      0.500
siesta: k-grid:    0  21   0      0.500
siesta: k-grid:    0   0   1      0.000
Naive supercell factors:     2    2    2

superc: Internal auxiliary supercell:     2 x     2 x     2  =       8
superc: Number of atoms, orbitals, and projectors:    576   7488   9216

* Maximum dynamic memory allocated =     4 MB

siesta:                 ==============================
                            Begin MD step =      1
                        ==============================

superc: Internal auxiliary supercell:     2 x     2 x     2  =       8
superc: Number of atoms, orbitals, and projectors:    576   7488   9216

outcell: Unit cell vectors (Ang):
       12.804619    7.392750    0.000000
        0.000000   14.785500    0.000000
        0.000000    0.000000   10.000000

outcell: Cell vector modules (Ang)   :   14.785500   14.785500   10.000000
outcell: Cell angles (23,13,12) (deg):     90.0000     90.0000     60.0000
outcell: Cell volume (Ang**3)        :   1893.2269
New_DM. Step:     1
Initializing Density Matrix...

InitMesh: MESH =   120 x   120 x    90 =     1296000
InitMesh: Mesh cutoff (required, used) =   200.000   223.865 Ry

* Maximum dynamic memory allocated =   193 MB

stepf: Fermi-Dirac step function

siesta: Program's energy decomposition (eV):
siesta: Ebs     =     -6069.206770
siesta: Eions   =     20331.973201
siesta: Ena     =      4838.996400
siesta: Ekin    =      7385.248291
siesta: Enl     =       290.993727
siesta: DEna    =        -0.000015
siesta: DUscf   =         0.000000
siesta: DUext   =         0.000000
siesta: Exc     =     -4463.378971
siesta: eta*DQ  =         0.000000
siesta: Emadel  =         0.000000
siesta: Emeta   =         0.000000
siesta: Emolmec =         0.000000
siesta: Ekinion =         0.000000
siesta: Eharris =    -11947.454370
siesta: Etot    =    -12280.113768
siesta: FreeEng =    -12280.113768

siesta: iscf   Eharris(eV)      E_KS(eV)   FreeEng(eV)   dDmax  Ef(eV)
siesta:    1   -11947.4544   -12280.1138   -12280.1138  6.2911 -7.1240
timer: Routine,Calls,Time,% = IterSCF        1    3390.818  99.70
elaps: Routine,Calls,Wall,% = IterSCF        1     424.680  99.70
siesta:    2   -18714.9563   -11056.8888   -11056.8916 37.2092 -8.1785
siesta:    3   -11893.8021   -12113.6289   -12113.6294  2.9701 -5.5481
siesta:    4   -11844.4685   -11977.3275   -11977.3909  1.3439 -4.7478
siesta:    5   -11796.7595   -11879.1876   -11879.2676  1.0404 -4.0138
siesta:    6   -11789.9187   -11838.1762   -11838.2281  0.9861 -3.8575
siesta:    7   -11779.8428   -11815.4190   -11815.4517  0.8829 -3.8084
siesta:    8   -11777.4182   -11802.3683   -11802.4145  0.7893 -3.9095
siesta:    9   -11777.1676   -11790.1072   -11790.1572  0.6900 -3.9375
siesta:   10   -11779.5400   -11767.3461   -11767.3813  0.4424 -4.0106
siesta:   11   -11777.1765   -11766.0280   -11766.1109  0.4099 -4.0231
siesta:   12   -11777.1167   -11758.8434   -11758.9112  0.2468 -3.9212
siesta:   13   -11776.5912   -11755.3162   -11755.3664  0.1767 -3.9272
siesta:   14   -11775.8681   -11759.0568   -11759.1168  0.1454 -3.9206
siesta:   15   -11775.4547   -11763.0103   -11763.0666  0.1378 -3.9450
siesta:   16   -11775.3892   -11765.5585   -11765.6024  0.0996 -3.9662
siesta:   17   -11775.2593   -11767.5984   -11767.6462  0.0718 -3.9984
siesta:   18   -11775.2394   -11768.6738   -11768.7358  0.0616 -3.9944
siesta:   19   -11775.2178   -11770.5337   -11770.5939  0.0332 -3.9906
siesta:   20   -11775.2099   -11772.0560   -11772.1165  0.0424 -3.9887
siesta:   21   -11775.2035   -11772.9872   -11773.0455  0.0340 -3.9867
siesta:   22   -11775.2001   -11774.8138   -11774.8733  0.0312 -3.9896
siesta:   23   -11775.1978   -11775.8705   -11775.9295  0.0277 -3.9894
siesta:   24   -11775.1988   -11776.6158   -11776.6746  0.0190 -3.9863
siesta:   25   -11775.1987   -11776.3488   -11776.4067  0.0140 -3.9839
siesta:   26   -11775.1975   -11775.8336   -11775.8913  0.0069 -3.9811
siesta:   27   -11775.1959   -11775.6271   -11775.6844  0.0040 -3.9799
siesta:   28   -11775.1958   -11775.5468   -11775.6049  0.0021 -3.9797
siesta:   29   -11775.1958   -11775.4713   -11775.5293  0.0010 -3.9803
siesta:   30   -11775.1957   -11775.4415   -11775.4995  0.0010 -3.9810
siesta:   31   -11775.1957   -11775.3336   -11775.3915  0.0012 -3.9814
siesta:   32   -11775.1957   -11775.2687   -11775.3267  0.0004 -3.9817
siesta:   33   -11775.1957   -11775.2416   -11775.2996  0.0003 -3.9818
siesta:   34   -11775.1957   -11775.2251   -11775.2831  0.0002 -3.9819
siesta:   35   -11775.1957   -11775.2119   -11775.2699  0.0003 -3.9819
siesta:   36   -11775.1957   -11775.2028   -11775.2608  0.0001 -3.9819
siesta:   37   -11775.1957   -11775.1998   -11775.2578  0.0001 -3.9819
siesta:   38   -11775.1957   -11775.1984   -11775.2564  0.0001 -3.9818

siesta: E_KS(eV) =           -11775.1957

siesta: E_KS - E_eggbox =    -11775.1957

siesta: Atomic forces (eV/Ang):
----------------------------------------
   Tot   -0.030326    0.017700    0.000000
----------------------------------------
   Max  683.297370
   Res  165.216631    sqrt( Sum f_i^2 / 3N )
----------------------------------------
   Max  683.297370    constrained

Stress-tensor-Voigt (kbar):     -718.21    -2881.07       -0.13       -7.67        0.00        0.00
(Free)E + p*V (eV/cell)   -10357.5115
Target enthalpy (eV/cell)   -11775.2537

siesta: Stress tensor (static) (eV/Ang**3):
        -0.448268   -0.004787    0.000000
        -0.004787   -1.798201    0.000000
         0.000000    0.000000   -0.000079

siesta: Pressure (static):       1199.80224988  kBar

siesta: Stress tensor (total) (eV/Ang**3):
        -0.448268   -0.004787    0.000000
        -0.004787   -1.798201    0.000000
         0.000000    0.000000   -0.000079

siesta: Pressure (total):       1199.80224988  kBar

siesta: Temp_ion =       0.000 K

* Maximum dynamic memory allocated =   209 MB
Computing bands...

siesta: Program's energy decomposition (eV):
siesta: Ebs     =     -4877.565299
siesta: Eions   =     20331.973201
siesta: Ena     =      4838.996400
siesta: Ekin    =     10366.265563
siesta: Enl     =     -1368.212619
siesta: DEna    =      -756.173403
siesta: DUscf   =       104.443621
siesta: DUext   =         0.000000
siesta: Exc     =     -4628.542047
siesta: eta*DQ  =         0.000000
siesta: Emadel  =         0.000000
siesta: Emeta   =         0.000000
siesta: Emolmec =         0.000000
siesta: Ekinion =         0.000000
siesta: Eharris =    -11775.195702
siesta: Etot    =    -11775.195686
siesta: FreeEng =    -11775.253661

siesta: Final energy (eV):
siesta:  Band Struct. =   -4877.565299
siesta:       Kinetic =   10366.265563
siesta:       Hartree =   33541.201230
siesta:    Ext. field =       0.000000
siesta:   Exch.-corr. =   -4628.542047
siesta:  Ion-electron =  -77070.735926
siesta:       Ion-ion =   26016.615496
siesta:       Ekinion =       0.000000
siesta:         Total =  -11775.195686

siesta: Atomic forces (eV/Ang):
siesta:      1  -35.620803  -17.118677    0.000000
siesta:      2   17.107248  683.297370    0.000000
siesta:      3    0.281016   -2.101768    0.000000
siesta:      4    0.884247   -0.418820    0.000000
siesta:      5    0.716872    0.648655    0.000000
siesta:      6   -1.683635    1.888273    0.000000
siesta:      7    1.574534    2.560456    0.000000
siesta:      8   -0.409216   -1.828508    0.000000
siesta:      9    0.450202   -0.202651    0.000000
siesta:     10    0.163775   -0.628244    0.000000
siesta:     11   -0.092817    1.869190    0.000000
siesta:     12    0.280765    1.116545    0.000000
siesta:     13    1.029469  544.592314    0.000000
siesta:     14   -0.836229 -126.359885    0.000000
siesta:     15    0.668027  128.232098    0.000000
siesta:     16  -20.102001 -553.034344    0.000000
siesta:     17   -0.620424  127.192500    0.000000
siesta:     18   15.263524 -546.762185    0.000000
siesta:     19   26.868564    6.348251    0.000000
siesta:     20   34.229136 -550.642513    0.000000
siesta:     21    2.675546    0.174833    0.000000
siesta:     22   -2.667862    1.546637    0.000000
siesta:     23    2.003340    2.324583    0.000000
siesta:     24   -1.431917    0.249356    0.000000
siesta:     25  -26.420124    7.239604    0.000000
siesta:     26  -34.712729 -550.371248    0.000000
siesta:     27   15.869733  547.784391    0.000000
siesta:     28   -1.415753 -127.233830    0.000000
siesta:     29   32.346113  549.754017    0.000000
siesta:     30   26.610681   -5.737765    0.000000
siesta:     31   -2.784986   -1.862253    0.000000
siesta:     32    2.506744   -0.023761    0.000000
siesta:     33   -1.415356   -0.421681    0.000000
siesta:     34    2.059282   -2.159813    0.000000
siesta:     35   -0.284796    7.467652    0.000000
siesta:     36   -0.266180   -7.498092    0.000000
siesta:     37  -16.404881  550.184434    0.000000
siesta:     38    1.250050 -128.267943    0.000000
siesta:     39   -0.813431  545.524414    0.000000
siesta:     40   -1.451619 -126.843958    0.000000
siesta:     41   24.882684  557.190708    0.000000
siesta:     42   25.511365  -11.716326    0.000000
siesta:     43   -1.978591    3.606922    0.000000
siesta:     44   -0.169309   -0.817404    0.000000
siesta:     45   -0.462234    0.903579    0.000000
siesta:     46   -0.527504   -0.856348    0.000000
siesta:     47  -33.204509  549.859435    0.000000
siesta:     48  -26.208119   -6.894184    0.000000
siesta:     49  -12.557558  560.993651    0.000000
siesta:     50    2.875246   -0.783517    0.000000
siesta:     51   -2.142188   -0.177753    0.000000
siesta:     52   -2.090883   -0.508862    0.000000
siesta:     53    1.416863    0.046376    0.000000
siesta:     54   -1.823929   -1.612537    0.000000
siesta:     55    0.908615    4.515812    0.000000
siesta:     56    0.920496   -4.572706    0.000000
siesta:     57   -1.837287    2.027577    0.000000
siesta:     58    0.500529   -0.672301    0.000000
siesta:     59   -0.335125    0.844585    0.000000
siesta:     60   -2.157254   -3.382843    0.000000
siesta:     61   -0.600996 -565.293015    0.000000
siesta:     62    1.789182   -2.570626    0.000000
siesta:     63   22.409767    6.260840    0.000000
siesta:     64   21.724530 -557.420557    0.000000
siesta:     65  -23.712375    4.172911    0.000000
siesta:     66  -18.374122 -558.359076    0.000000
siesta:     67   -1.298582    0.106265    0.000000
siesta:     68    2.758796    1.339935    0.000000
siesta:     69   -0.756585  127.673135    0.000000
siesta:     70    0.167545 -544.233465    0.000000
siesta:     71   -1.783280  120.707284    0.000000
siesta:     72   -9.279626 -640.837429    0.000000
siesta: ----------------------------------------
siesta:    Tot   -0.030326    0.017700    0.000000

siesta: Stress tensor (static) (eV/Ang**3):
siesta:    -0.448268   -0.004787    0.000000
siesta:    -0.004787   -1.798201    0.000000
siesta:     0.000000    0.000000   -0.000079

siesta: Cell volume =       1893.226884 Ang**3

siesta: Pressure (static):
siesta:                Solid            Molecule  Units
siesta:           0.00815593          0.12865012  Ry/Bohr**3
siesta:           0.74884957         11.81221629  eV/Ang**3
siesta:        1199.80224988      18925.46150320  kBar
(Free)E+ p_basis*V_orbitals  =      -11746.231605
(Free)Eharris+ p_basis*V_orbitals  =      -11746.228883

siesta: Electric dipole (a.u.)  =    0.000000    0.000000    0.000000
siesta: Electric dipole (Debye) =    0.000000    0.000000    0.000000

* Maximum dynamic memory allocated : Node    0 =   209 MB
* Maximum dynamic memory allocated : Node    1 =    73 MB
* Maximum dynamic memory allocated : Node    2 =    74 MB
* Maximum dynamic memory allocated : Node    3 =   198 MB
* Maximum dynamic memory allocated : Node    4 =   186 MB
* Maximum dynamic memory allocated : Node    5 =    71 MB
* Maximum dynamic memory allocated : Node    6 =    73 MB
* Maximum dynamic memory allocated : Node    7 =   173 MB

* Maximum memory occured during matrixMtoO                    

timer: CPU execution times:
timer:  Routine       Calls   Time/call    Tot.time        %
timer:  siesta            1  127195.512  127195.512   100.00
timer:  Setup             1       2.697       2.697     0.00
timer:  bands             3     243.692     731.076     0.57
timer:  writewave         1       0.016       0.016     0.00
timer:  KSV_init          1       0.006       0.006     0.00
timer:  IterMD            1  126456.510  126456.510    99.42
timer:  hsparse           1       0.284       0.284     0.00
timer:  overlap           1       6.700       6.700     0.01
timer:  IterSCF          38    3323.556  126295.121    99.29
timer:  kinefsm           2       3.466       6.933     0.01
timer:  nlefsm            2      17.549      35.097     0.03
timer:  DHSCF            39      80.862    3153.637     2.48
timer:  DHSCF1            1       0.746       0.746     0.00
timer:  DHSCF2            1      31.853      31.853     0.03
timer:  REORD           314       0.005       1.628     0.00
timer:  POISON           40       0.875      35.001     0.03
timer:  DHSCF3           39      79.244    3090.506     2.43
timer:  rhoofd           39      16.431     640.821     0.50
timer:  cellXC           39       3.241     126.394     0.10
timer:  vmat             39      36.790    1434.803     1.13
timer:  MolMec            2       0.000       0.000     0.00
timer:  diagon           38    3241.996  123195.832    96.86
timer:  c-eigval       8899       6.015   53527.168    42.08
timer:  c-buildHS      8899       0.047     422.338     0.33
timer:  cdiag         17677       6.138  108505.007    85.31
timer:  cdiag1        17677       0.384    6793.032     5.34
timer:  cdiag2        17677       1.765   31200.120    24.53
timer:  cdiag3        17677       3.730   65935.796    51.84
timer:  cdiag4        17677       0.149    2638.698     2.07
timer:  c-eigvec       8778       6.349   55731.825    43.82
timer:  c-buildD       8778       1.666   14622.773    11.50
timer:  DHSCF4            1      29.557      29.557     0.02
timer:  dfscf             1      27.656      27.656     0.02
timer:  overfsm           1       0.383       0.383     0.00
timer:  optical           1       4.565       4.565     0.00
  

elaps: ELAPSED times:
elaps:  Routine       Calls   Time/call    Tot.time        %
elaps:  siesta            1   15929.750   15929.750   100.00
elaps:  Setup             1       0.339       0.339     0.00
elaps:  bands             3      30.536      91.609     0.58
elaps:  writewave         1       0.002       0.002     0.00
elaps:  KSV_init          1       0.000       0.000     0.00
elaps:  IterMD            1   15837.199   15837.199    99.42
elaps:  hsparse           1       0.037       0.037     0.00
elaps:  overlap           1       0.899       0.899     0.01
elaps:  IterSCF          38     416.237   15816.989    99.29
elaps:  kinefsm           2       0.464       0.928     0.01
elaps:  nlefsm            2       2.166       4.332     0.03
elaps:  DHSCF            39      10.234     399.119     2.51
elaps:  DHSCF1            1       0.095       0.095     0.00
elaps:  DHSCF2            1       3.988       3.988     0.03
elaps:  REORD           314       0.001       0.217     0.00
elaps:  POISON           40       0.110       4.389     0.03
elaps:  DHSCF3           39       9.925     387.068     2.43
elaps:  rhoofd           39       4.764     185.784     1.17
elaps:  cellXC           39       0.406      15.817     0.10
elaps:  vmat             39       4.608     179.707     1.13
elaps:  MolMec            2       0.000       0.000     0.00
elaps:  diagon           38     406.024   15428.906    96.86
elaps:  c-eigval       8899       0.753    6703.499    42.08
elaps:  c-buildHS      8899       0.006      56.207     0.35
elaps:  cdiag         17677       0.767   13561.240    85.13
elaps:  cdiag1        17677       0.048     850.940     5.34
elaps:  cdiag2        17677       0.221    3908.175    24.53
elaps:  cdiag3        17677       0.468    8269.130    51.91
elaps:  cdiag4        17677       0.019     327.489     2.06
elaps:  c-eigvec       8778       0.793    6959.795    43.69
elaps:  c-buildD       8778       0.211    1849.178    11.61
elaps:  DHSCF4            1       7.837       7.837     0.05
elaps:  dfscf             1       7.422       7.422     0.05
elaps:  overfsm           1       0.049       0.049     0.00
elaps:  optical           1       0.000       0.000     0.00
  
>> End of run:   7-MAY-2016   7:58:33
