Siesta Version:                                        siesta-3.2-pl-3
Architecture  : x86_64-unknown-linux-gnu--unknown
Compiler flags: mpiifort -g -O2 -fPIC -xSSE4.1 -fp-model source -shared-intel 
PARALLEL version

* Running on   12 nodes in parallel
>> Start of run:   1-MAY-2016   2:20:01

                           ***********************       
                           *  WELCOME TO SIESTA  *       
                           ***********************       

reinit: Reading from standard input
************************** Dump of input data file ****************************
#(1) General system descriptors
SystemName            GRP_doping    # Descriptive name of the system
SystemLabel           GRP_doping    # Short name for naming files
%include STRUCT.fdf
%include KPT.fdf
%include BASIS.fdf
#%include TS.fdf # for transiesta calculation
#(4) DFT, Grid, SCF
XC.functional         GGA           # LDA or GGA (default = LDA)
XC.authors            PBE           # CA (Ceperley-Aldr) = PZ
                                    #    (Perdew-Zunger) - LDA - Default
                                    # PW92 (Perdew-Wang-92) - LDA
                                    # PBE (Perdew-Burke-Ernzerhof) - GGA
MeshCutoff            200.000000    Ry      # Default: 50.0 Ry ~ 0.444 Bohr
                                    #         100.0 Ry ~ 0.314 Bohr
MaxSCFIterations      500           # Default: 50
DM.MixingWeight       0.05          # Default: 0.25
DM.NumberPulay        10            # Default: 0
DM.PulayOnFile        F             # SystemLabel.P1, SystemLabel.P2
DM.Tolerance          1.d-4         # Default: 1.d-4
DM.UseSaveDM          .true.        # because of the bug
SCFMustConverge       .true.
NeglNonOverlapInt     F             # Default: F
#(5) Eigenvalue problem: order-N or diagonalization
SolutionMethod        Diagon        # or Transiesta
ElectronicTemperature 300.0 K       # Default: 300.0 K
#(6) Molecular dynamics and relaxations
#MD.TypeOfRun          CG            # Type of dynamics:
#MD.VariableCell       F
#MD.NumCGsteps         0           # 0 for single-point / 100 for gopt
#MD.MaxCGDispl         0.2 Bohr      # Default: 0.2 Bohr
#MD.MaxForceTol        0.02 eV/Ang   # Default: 0.04 eV/Ang
#MD.MaxStressTol       1.0 GPa       # Default: 1.0 GPa
# Geometry Constraints
#%block GeometryConstraints
#	position from 1 to 44
#%endblock GeometryConstraints
BandLinesScale   pi/a
%block BandLines
 1   0.00000000  0.00000000  0.00000000
50   0.00000000  0.07809418  0.00000000
50   0.04509075  0.07809242  0.00000000
20   0.00000000  0.00000000  0.00000000
%endblock BandLines
************************** End of input data file *****************************

reinit: -----------------------------------------------------------------------
reinit: System Name: GRP_doping
reinit: -----------------------------------------------------------------------
reinit: System Label: GRP_doping                                                  
reinit: -----------------------------------------------------------------------

initatom: Reading input for the pseudopotentials and atomic orbitals ----------
 Species number:            1  Label: B Atomic number:           5
 Species number:            2  Label: C Atomic number:           6
Ground state valence configuration:   2s02  2p01
Reading pseudopotential information in formatted form from B.psf

Valence configuration for pseudopotential generation:
2s( 2.00) rc: 1.74
2p( 1.00) rc: 1.74
3d( 0.00) rc: 1.74
4f( 0.00) rc: 1.74
Ground state valence configuration:   2s02  2p02
Reading pseudopotential information in formatted form from C.psf

Valence configuration for pseudopotential generation:
2s( 2.00) rc: 1.54
2p( 2.00) rc: 1.54
3d( 0.00) rc: 1.54
4f( 0.00) rc: 1.54
For B, standard SIESTA heuristics set lmxkb to 3
 (one more than the basis l, including polarization orbitals).
Use PS.lmax or PS.KBprojectors blocks to override.
For C, standard SIESTA heuristics set lmxkb to 3
 (one more than the basis l, including polarization orbitals).
Use PS.lmax or PS.KBprojectors blocks to override.

<basis_specs>
===============================================================================
B                    Z=   5    Mass=  10.810        Charge= 0.17977+309
Lmxo=1 Lmxkb= 3    BasisType=split      Semic=F
L=0  Nsemic=0  Cnfigmx=2
          n=1  nzeta=2  polorb=0
            splnorm:   0.15000    
               vcte:    0.0000    
               rinn:    0.0000    
                rcs:    0.0000      0.0000    
            lambdas:    1.0000      1.0000    
L=1  Nsemic=0  Cnfigmx=2
          n=1  nzeta=2  polorb=1
            splnorm:   0.15000    
               vcte:    0.0000    
               rinn:    0.0000    
                rcs:    0.0000      0.0000    
            lambdas:    1.0000      1.0000    
-------------------------------------------------------------------------------
L=0  Nkbl=1  erefs: 0.17977+309
L=1  Nkbl=1  erefs: 0.17977+309
L=2  Nkbl=1  erefs: 0.17977+309
L=3  Nkbl=1  erefs: 0.17977+309
===============================================================================
</basis_specs>

atom: Called for B                     (Z =   5)

read_vps: Pseudopotential generation method:
read_vps: ATM3      Troullier-Martins                       
Total valence charge:    3.00000

read_vps: Pseudopotential includes a core correction:
read_vps: Pseudo-core for xc-correction

xc_check: Exchange-correlation functional:
xc_check: GGA Perdew, Burke & Ernzerhof 1996
V l=0 = -2*Zval/r beyond r=  1.7165
V l=1 = -2*Zval/r beyond r=  1.7165
V l=2 = -2*Zval/r beyond r=  1.7165
V l=3 = -2*Zval/r beyond r=  1.6951
All V_l potentials equal beyond r=  1.7165
This should be close to max(r_c) in ps generation
All pots = -2*Zval/r beyond r=  1.7165

VLOCAL1: 99.0% of the norm of Vloc inside     14.733 Ry
VLOCAL1: 99.9% of the norm of Vloc inside     33.577 Ry
atom: Maximum radius for 4*pi*r*r*local-pseudopot. charge    2.04484
atom: Maximum radius for r*vlocal+2*Zval:    1.75994
GHOST: No ghost state for L =  0
GHOST: No ghost state for L =  1
GHOST: No ghost state for L =  2
GHOST: No ghost state for L =  3

KBgen: Kleinman-Bylander projectors: 
   l= 0   rc=  1.897051   el= -0.693730   Ekb=  4.595746   kbcos=  0.286105
   l= 1   rc=  1.920920   el= -0.265236   Ekb= -2.350715   kbcos= -0.315747
   l= 2   rc=  2.044840   el=  0.002055   Ekb= -0.690767   kbcos= -0.013822
   l= 3   rc=  2.149707   el=  0.003188   Ekb= -0.315358   kbcos= -0.002055

KBgen: Total number of  Kleinman-Bylander projectors:   16
atom: -------------------------------------------------------------------------

atom: SANKEY-TYPE ORBITALS:
atom: Selected multiple-zeta basis: split     

SPLIT: Orbitals with angular momentum L= 0

SPLIT: Basis orbitals for state 2s

SPLIT: PAO cut-off radius determined from an
SPLIT: energy shift=  0.007350 Ry

   izeta = 1
                 lambda =    1.000000
                     rc =    5.422032
                 energy =   -0.686029
                kinetic =    0.576707
    potential(screened) =   -1.262736
       potential(ionic) =   -3.271094

   izeta = 2
                 rmatch =    4.222573
              splitnorm =    0.150000
                 energy =   -0.602132
                kinetic =    0.858975
    potential(screened) =   -1.461107
       potential(ionic) =   -3.582536

SPLIT: Orbitals with angular momentum L= 1

SPLIT: Basis orbitals for state 2p

SPLIT: PAO cut-off radius determined from an
SPLIT: energy shift=  0.007350 Ry

   izeta = 1
                 lambda =    1.000000
                     rc =    6.790259
                 energy =   -0.258578
                kinetic =    1.481412
    potential(screened) =   -1.739989
       potential(ionic) =   -3.657461

   izeta = 2
                 rmatch =    4.608740
              splitnorm =    0.150000
                 energy =   -0.173757
                kinetic =    2.186690
    potential(screened) =   -2.360447
       potential(ionic) =   -4.464260

POLgen: Perturbative polarization orbital with L=  2

POLgen: Polarization orbital for state 2p

   izeta = 1
                     rc =    6.790259
                 energy =    0.684082
                kinetic =    1.471481
    potential(screened) =   -0.787399
       potential(ionic) =   -2.406985
atom: Total number of Sankey-type orbitals: 13

atm_pop: Valence configuration (for local Pseudopot. screening):
 2s( 2.00)                                                            
 2p( 1.00)                                                            
Vna: chval, zval:    3.00000   3.00000

Vna:  Cut-off radius for the neutral-atom potential:   6.790259
comcore: Pseudo-core radius Rcore=  2.122997

atom: _________________________________________________________________________

<basis_specs>
===============================================================================
C                    Z=   6    Mass=  12.010        Charge= 0.17977+309
Lmxo=1 Lmxkb= 3    BasisType=split      Semic=F
L=0  Nsemic=0  Cnfigmx=2
          n=1  nzeta=2  polorb=0
            splnorm:   0.15000    
               vcte:    0.0000    
               rinn:    0.0000    
                rcs:    0.0000      0.0000    
            lambdas:    1.0000      1.0000    
L=1  Nsemic=0  Cnfigmx=2
          n=1  nzeta=2  polorb=1
            splnorm:   0.15000    
               vcte:    0.0000    
               rinn:    0.0000    
                rcs:    0.0000      0.0000    
            lambdas:    1.0000      1.0000    
-------------------------------------------------------------------------------
L=0  Nkbl=1  erefs: 0.17977+309
L=1  Nkbl=1  erefs: 0.17977+309
L=2  Nkbl=1  erefs: 0.17977+309
L=3  Nkbl=1  erefs: 0.17977+309
===============================================================================
</basis_specs>

atom: Called for C                     (Z =   6)

read_vps: Pseudopotential generation method:
read_vps: ATM3      Troullier-Martins                       
Total valence charge:    4.00000

read_vps: Pseudopotential includes a core correction:
read_vps: Pseudo-core for xc-correction

xc_check: Exchange-correlation functional:
xc_check: GGA Perdew, Burke & Ernzerhof 1996
V l=0 = -2*Zval/r beyond r=  1.5227
V l=1 = -2*Zval/r beyond r=  1.5227
V l=2 = -2*Zval/r beyond r=  1.5227
V l=3 = -2*Zval/r beyond r=  1.5038
All V_l potentials equal beyond r=  1.5227
This should be close to max(r_c) in ps generation
All pots = -2*Zval/r beyond r=  1.5227

VLOCAL1: 99.0% of the norm of Vloc inside     18.722 Ry
VLOCAL1: 99.9% of the norm of Vloc inside     42.668 Ry
atom: Maximum radius for 4*pi*r*r*local-pseudopot. charge    1.83678
atom: Maximum radius for r*vlocal+2*Zval:    1.58088
GHOST: No ghost state for L =  0
GHOST: No ghost state for L =  1
GHOST: No ghost state for L =  2
GHOST: No ghost state for L =  3

KBgen: Kleinman-Bylander projectors: 
   l= 0   rc=  1.704034   el= -1.009801   Ekb=  5.335044   kbcos=  0.316824
   l= 1   rc=  1.704034   el= -0.388707   Ekb= -3.785862   kbcos= -0.366464
   l= 2   rc=  1.791422   el=  0.001971   Ekb= -0.970471   kbcos= -0.009212
   l= 3   rc=  1.859892   el=  0.003065   Ekb= -0.399525   kbcos= -0.001223

KBgen: Total number of  Kleinman-Bylander projectors:   16
atom: -------------------------------------------------------------------------

atom: SANKEY-TYPE ORBITALS:
atom: Selected multiple-zeta basis: split     

SPLIT: Orbitals with angular momentum L= 0

SPLIT: Basis orbitals for state 2s

SPLIT: PAO cut-off radius determined from an
SPLIT: energy shift=  0.007350 Ry

   izeta = 1
                 lambda =    1.000000
                     rc =    4.632753
                 energy =   -1.002270
                kinetic =    0.855760
    potential(screened) =   -1.858031
       potential(ionic) =   -5.417575

   izeta = 2
                 rmatch =    3.431921
              splitnorm =    0.150000
                 energy =   -0.867111
                kinetic =    1.300804
    potential(screened) =   -2.167915
       potential(ionic) =   -5.962684

SPLIT: Orbitals with angular momentum L= 1

SPLIT: Basis orbitals for state 2p

SPLIT: PAO cut-off radius determined from an
SPLIT: energy shift=  0.007350 Ry

   izeta = 1
                 lambda =    1.000000
                     rc =    5.658549
                 energy =   -0.381140
                kinetic =    2.399701
    potential(screened) =   -2.780841
       potential(ionic) =   -6.206085

   izeta = 2
                 rmatch =    3.653288
              splitnorm =    0.150000
                 energy =   -0.249149
                kinetic =    3.542762
    potential(screened) =   -3.791911
       potential(ionic) =   -7.581078

POLgen: Perturbative polarization orbital with L=  2

POLgen: Polarization orbital for state 2p

   izeta = 1
                     rc =    5.658549
                 energy =    1.109913
                kinetic =    2.304789
    potential(screened) =   -1.194876
       potential(ionic) =   -4.013592
atom: Total number of Sankey-type orbitals: 13

atm_pop: Valence configuration (for local Pseudopot. screening):
 2s( 2.00)                                                            
 2p( 2.00)                                                            
Vna: chval, zval:    4.00000   4.00000

Vna:  Cut-off radius for the neutral-atom potential:   5.658549
comcore: Pseudo-core radius Rcore=  1.791422

atom: _________________________________________________________________________

prinput: Basis input ----------------------------------------------------------

PAO.BasisType split     

%block ChemicalSpeciesLabel
    1    5 B                       # Species index, atomic number, species label
    2    6 C                       # Species index, atomic number, species label
%endblock ChemicalSpeciesLabel

%block PAO.Basis                 # Define Basis set
B                     2                    # Species label, number of l-shells
 n=2   0   2                         # n, l, Nzeta 
   5.422      4.223   
   1.000      1.000   
 n=2   1   2 P   1                   # n, l, Nzeta, Polarization, NzetaPol
   6.790      4.609   
   1.000      1.000   
C                     2                    # Species label, number of l-shells
 n=2   0   2                         # n, l, Nzeta 
   4.633      3.432   
   1.000      1.000   
 n=2   1   2 P   1                   # n, l, Nzeta, Polarization, NzetaPol
   5.659      3.653   
   1.000      1.000   
%endblock PAO.Basis

prinput: ----------------------------------------------------------------------

coor:   Atomic-coordinates input format  =     Fractional

siesta: Atomic coordinates (Bohr) and species
siesta:      2.30256  38.89134   0.00000  1        1
siesta:      4.63094  34.85847   0.00000  1        2
siesta:     -4.68258  37.54693   0.00000  1        3
siesta:      2.30256   6.62836   0.00000  1        4
siesta:      4.63094  10.66124   0.00000  1        5
siesta:      6.95932  17.38257   0.00000  1        6
siesta:      9.28770  21.41544   0.00000  1        7
siesta:     -4.68258  13.34970   0.00000  1        8
siesta:     -0.02582  21.41544   0.00000  1        9
siesta:      2.30256  25.44831   0.00000  1       10
siesta:     -7.01096  17.38257   0.00000  1       11
siesta:     -9.33934  29.48119   0.00000  1       12
siesta:      4.63094  29.48119   0.00000  1       13
siesta:     -4.68258  26.79272   0.00000  1       14
siesta:     -2.35420  30.82560   0.00000  1       15
siesta:     -7.01096  33.51406   0.00000  1       16
siesta:     -0.02582  34.85847   0.00000  1       17
siesta:     -0.02582   2.59549   0.00000  2       18
siesta:     -0.02582   5.28395   0.00000  2       19
siesta:     -2.35420  38.89134   0.00000  2       20
siesta:     -2.35420  41.57980   0.00000  2       21
siesta:      2.30256  41.57980   0.00000  2       22
siesta:      4.63094  37.54693   0.00000  2       23
siesta:      6.95932  30.82560   0.00000  2       24
siesta:      6.95932  33.51406   0.00000  2       25
siesta:      9.28770  26.79272   0.00000  2       26
siesta:      9.28770  29.48119   0.00000  2       27
siesta:     -4.68258  34.85847   0.00000  2       28
siesta:      2.30256   9.31683   0.00000  2       29
siesta:      4.63094  13.34970   0.00000  2       30
siesta:      6.95932  14.69411   0.00000  2       31
siesta:      9.28770  18.72698   0.00000  2       32
siesta:     11.61608  22.75985   0.00000  2       33
siesta:     11.61608  25.44831   0.00000  2       34
siesta:     -2.35420   6.62836   0.00000  2       35
siesta:     -2.35420   9.31683   0.00000  2       36
siesta:     -0.02582  10.66124   0.00000  2       37
siesta:     -0.02582  13.34970   0.00000  2       38
siesta:      2.30256  14.69411   0.00000  2       39
siesta:      2.30256  17.38257   0.00000  2       40
siesta:      4.63094  18.72698   0.00000  2       41
siesta:      4.63094  21.41544   0.00000  2       42
siesta:      6.95932  22.75985   0.00000  2       43
siesta:      6.95932  25.44831   0.00000  2       44
siesta:     -4.68258  10.66124   0.00000  2       45
siesta:     -2.35420  14.69411   0.00000  2       46
siesta:     -2.35420  17.38257   0.00000  2       47
siesta:     -0.02582  18.72698   0.00000  2       48
siesta:      2.30256  22.75985   0.00000  2       49
siesta:     -7.01096  14.69411   0.00000  2       50
siesta:     -4.68258  18.72698   0.00000  2       51
siesta:     -4.68258  21.41544   0.00000  2       52
siesta:     -2.35420  22.75985   0.00000  2       53
siesta:     -2.35420  25.44831   0.00000  2       54
siesta:     -9.33934  18.72698   0.00000  2       55
siesta:     -9.33934  21.41544   0.00000  2       56
siesta:     -7.01096  22.75985   0.00000  2       57
siesta:     -7.01096  25.44831   0.00000  2       58
siesta:    -11.66772  22.75985   0.00000  2       59
siesta:    -11.66772  25.44831   0.00000  2       60
siesta:     -9.33934  26.79272   0.00000  2       61
siesta:      4.63094  26.79272   0.00000  2       62
siesta:     -0.02582  26.79272   0.00000  2       63
siesta:     -0.02582  29.48119   0.00000  2       64
siesta:     -4.68258  29.48119   0.00000  2       65
siesta:      2.30256  30.82560   0.00000  2       66
siesta:      2.30256  33.51406   0.00000  2       67
siesta:     -2.35420  33.51406   0.00000  2       68
siesta:     -7.01096  30.82560   0.00000  2       69
siesta:     -0.02582  37.54693   0.00000  2       70
siesta:     -0.02582  42.92421   0.00000  2       71
siesta:     -0.02582  45.61267   0.00000  2       72

siesta: System type = slab      

initatomlists: Number of atoms, orbitals, and projectors:     72   936  1152

siesta: ******************** Simulation parameters ****************************
siesta:
siesta: The following are some of the parameters of the simulation.
siesta: A complete list of the parameters used, including default values,
siesta: can be found in file out.fdf
siesta:
redata: Non-Collinear-spin run           =     F
redata: SpinPolarized (Up/Down) run      =     F
redata: Number of spin components        =     1
redata: Long output                      =     F
redata: Number of Atomic Species         =        2
redata: Charge density info will appear in .RHO file
redata: Write Mulliken Pop.              =     NO
redata: Mesh Cutoff                      =   200.0000  Ry
redata: Net charge of the system         =     0.0000 |e|
redata: Max. number of SCF Iter          =      500
redata: SCF convergence failure will abort job
redata: Performing Pulay mixing using    =    10 iterations
redata: Mix DM in first SCF step ?       =     F
redata: Write Pulay info on disk?        =     F
redata: Discard 1st Pulay DM after  kick =     F
redata: New DM Mixing Weight             =     0.0500
redata: New DM Occupancy tolerance       = 0.000000000001
redata: No kicks to SCF
redata: DM Mixing Weight for Kicks       =     0.5000
redata: DM Tolerance for SCF             =     0.000100
redata: Require Energy convergence for SCF =     F
redata: DM Energy tolerance for SCF      =     0.000100 eV
redata: Require Harris convergence for SCF =     F
redata: DM Harris energy tolerance for SCF =     0.000100 eV
redata: Using Saved Data (generic)   =     F
redata: Use continuation files for DM    =     T
redata: Neglect nonoverlap interactions  =     F
redata: Method of Calculation            =     Diagonalization
redata: Divide and Conquer               =     T
redata: Electronic Temperature           =     0.0019  Ry
redata: Fix the spin of the system       =     F
redata: Dynamics option                  =     Verlet MD run
redata: Initial MD time step             =        1
redata:   Final MD time step             =        1
redata: Length of MD time step           =     1.0000  fs
redata: Initial Temperature of MD run    =     0.0000  K
redata: Perform a MD quench              =     F
redata: ***********************************************************************
Total number of electrons:   271.000000
Total ionic charge:   271.000000

* ProcessorY, Blocksize:    3  24

k-point displ. along   1 input, could be:     0.50    0.00
k-point displ. along   2 input, could be:     0.50    0.00
 Kpoints in:          231 . Kpoints trimmed:          231

siesta: k-grid: Number of k-points =   231
siesta: k-grid: Cutoff (effective) =     5.000 Ang
siesta: k-grid: Supercell and displacements
siesta: k-grid:   21   0   0      0.500
siesta: k-grid:    0  21   0      0.500
siesta: k-grid:    0   0   1      0.000
Naive supercell factors:     2    2    2

superc: Internal auxiliary supercell:     2 x     2 x     2  =       8
superc: Number of atoms, orbitals, and projectors:    576   7488   9216

* Maximum dynamic memory allocated =     4 MB

siesta:                 ==============================
                            Begin MD step =      1
                        ==============================

superc: Internal auxiliary supercell:     2 x     2 x     2  =       8
superc: Number of atoms, orbitals, and projectors:    576   7488   9216

outcell: Unit cell vectors (Ang):
       12.804619    7.392750    0.000000
        0.000000   14.785500    0.000000
        0.000000    0.000000   10.000000

outcell: Cell vector modules (Ang)   :   14.785500   14.785500   10.000000
outcell: Cell angles (23,13,12) (deg):     90.0000     90.0000     60.0000
outcell: Cell volume (Ang**3)        :   1893.2269
New_DM. Step:     1
Initializing Density Matrix...

InitMesh: MESH =   120 x   120 x    90 =     1296000
InitMesh: Mesh cutoff (required, used) =   200.000   223.865 Ry

* Maximum dynamic memory allocated =   159 MB

stepf: Fermi-Dirac step function

siesta: Program's energy decomposition (eV):
siesta: Ebs     =     -5608.405550
siesta: Eions   =     16226.046981
siesta: Ena     =      4316.384908
siesta: Ekin    =      5481.631332
siesta: Enl     =       781.563231
siesta: DEna    =        -0.000009
siesta: DUscf   =         0.000000
siesta: DUext   =         0.000000
siesta: Exc     =     -4191.880406
siesta: eta*DQ  =         0.000000
siesta: Emadel  =         0.000000
siesta: Emeta   =         0.000000
siesta: Emolmec =         0.000000
siesta: Ekinion =         0.000000
siesta: Eharris =     -9603.955451
siesta: Etot    =     -9838.347926
siesta: FreeEng =     -9838.347926

siesta: iscf   Eharris(eV)      E_KS(eV)   FreeEng(eV)   dDmax  Ef(eV)
siesta:    1    -9603.9555    -9838.3479    -9838.3479  6.2492 -8.3558
timer: Routine,Calls,Time,% = IterSCF        1    3043.423  99.59
elaps: Routine,Calls,Wall,% = IterSCF        1     254.222  99.59
siesta:    2   -13787.7187    -8912.7812    -8912.8386 14.5228 -4.0217
siesta:    3    -9598.3711    -9658.7355    -9658.7663  2.3466 -5.8998
siesta:    4    -9535.5165    -9591.1978    -9591.2499  1.5585 -5.6882
siesta:    5    -9464.0740    -9495.9276    -9495.9889  1.2578 -5.3066
siesta:    6    -9455.6830    -9476.0519    -9476.0736  1.0653 -5.1072
siesta:    7    -9453.4804    -9469.2177    -9469.2660  1.0550 -5.0981
siesta:    8    -9449.6125    -9457.4214    -9457.4950  0.7015 -5.1034
siesta:    9    -9448.5298    -9450.4234    -9450.4936  0.6478 -5.1097
siesta:   10    -9448.2582    -9441.9101    -9441.9786  0.4124 -5.0317
siesta:   11    -9449.0522    -9434.9022    -9434.9877  0.5316 -5.0131
siesta:   12    -9447.8787    -9429.9301    -9430.0022  0.2860 -4.9756
siesta:   13    -9447.3041    -9430.3430    -9430.4083  0.4277 -4.9858
siesta:   14    -9447.1547    -9431.4696    -9431.5567  0.3426 -5.0134
siesta:   15    -9446.6133    -9433.0889    -9433.1705  0.1607 -5.0478
siesta:   16    -9446.4779    -9435.6448    -9435.7346  0.2236 -5.0638
siesta:   17    -9446.3658    -9437.1941    -9437.2834  0.1825 -5.0886
siesta:   18    -9446.3156    -9438.7557    -9438.8363  0.1125 -5.0910
siesta:   19    -9446.3047    -9441.4668    -9441.5597  0.2240 -5.1091
siesta:   20    -9446.2665    -9443.7800    -9443.8566  0.0510 -5.1021
siesta:   21    -9446.2615    -9445.3573    -9445.4469  0.0377 -5.1130
siesta:   22    -9446.2486    -9446.3400    -9446.4253  0.0324 -5.1175
siesta:   23    -9446.2438    -9446.6036    -9446.6910  0.0261 -5.1159
siesta:   24    -9446.2390    -9446.5721    -9446.6610  0.0233 -5.1124
siesta:   25    -9446.2388    -9447.0768    -9447.1676  0.0196 -5.1010
siesta:   26    -9446.2359    -9446.8703    -9446.9607  0.0156 -5.0964
siesta:   27    -9446.2355    -9446.8026    -9446.8955  0.0073 -5.0952
siesta:   28    -9446.2357    -9446.7651    -9446.8572  0.0071 -5.0952
siesta:   29    -9446.2355    -9446.6509    -9446.7424  0.0044 -5.0962
siesta:   30    -9446.2356    -9446.5509    -9446.6424  0.0040 -5.0969
siesta:   31    -9446.2354    -9446.3752    -9446.4666  0.0019 -5.0966
siesta:   32    -9446.2354    -9446.3350    -9446.4266  0.0016 -5.0964
siesta:   33    -9446.2356    -9446.3216    -9446.4133  0.0011 -5.0971
siesta:   34    -9446.2355    -9446.3004    -9446.3918  0.0007 -5.0969
siesta:   35    -9446.2355    -9446.2609    -9446.3524  0.0004 -5.0971
siesta:   36    -9446.2355    -9446.2394    -9446.3309  0.0011 -5.0972
siesta:   37    -9446.2355    -9446.2299    -9446.3213  0.0007 -5.0971
siesta:   38    -9446.2355    -9446.2315    -9446.3230  0.0004 -5.0972
siesta:   39    -9446.2355    -9446.2299    -9446.3214  0.0001 -5.0972
siesta:   40    -9446.2355    -9446.2334    -9446.3249  0.0001 -5.0972
siesta:   41    -9446.2355    -9446.2343    -9446.3257  0.0001 -5.0972
siesta:   42    -9446.2355    -9446.2381    -9446.3296  0.0001 -5.0972

siesta: E_KS(eV) =            -9446.2360

siesta: E_KS - E_eggbox =     -9446.2360

siesta: Atomic forces (eV/Ang):
----------------------------------------
   Tot   -0.158971   -0.074583    0.000000
----------------------------------------
   Max  561.274535
   Res  148.245694    sqrt( Sum f_i^2 / 3N )
----------------------------------------
   Max  561.274535    constrained

Stress-tensor-Voigt (kbar):     -741.23    -2673.77       -0.54       15.07        0.00        0.00
(Free)E + p*V (eV/cell)    -8101.0033
Target enthalpy (eV/cell)    -9446.3275

siesta: Stress tensor (static) (eV/Ang**3):
        -0.462636    0.009407    0.000000
         0.009407   -1.668819    0.000000
         0.000000    0.000000   -0.000340

siesta: Pressure (static):       1138.51661565  kBar

siesta: Stress tensor (total) (eV/Ang**3):
        -0.462636    0.009407    0.000000
         0.009407   -1.668819    0.000000
         0.000000    0.000000   -0.000340

siesta: Pressure (total):       1138.51661565  kBar

siesta: Temp_ion =       0.000 K

* Maximum dynamic memory allocated =   172 MB
Computing bands...

siesta: Program's energy decomposition (eV):
siesta: Ebs     =     -4233.451053
siesta: Eions   =     16226.046981
siesta: Ena     =      4316.384908
siesta: Ekin    =      8371.020205
siesta: Enl     =      -863.295902
siesta: DEna    =      -786.276745
siesta: DUscf   =       105.864340
siesta: DUext   =         0.000000
siesta: Exc     =     -4363.885807
siesta: eta*DQ  =         0.000000
siesta: Emadel  =         0.000000
siesta: Emeta   =         0.000000
siesta: Emolmec =         0.000000
siesta: Ekinion =         0.000000
siesta: Eharris =     -9446.235519
siesta: Etot    =     -9446.235982
siesta: FreeEng =     -9446.327469

siesta: Final energy (eV):
siesta:  Band Struct. =   -4233.451053
siesta:       Kinetic =    8371.020205
siesta:       Hartree =   27055.630399
siesta:    Ext. field =       0.000000
siesta:   Exch.-corr. =   -4363.885807
siesta:  Ion-electron =  -62197.231967
siesta:       Ion-ion =   21688.231189
siesta:       Ekinion =       0.000000
siesta:         Total =   -9446.235982

siesta: Atomic forces (eV/Ang):
siesta:      1   -5.002176  111.561295    0.000000
siesta:      2   22.691578   -2.675319    0.000000
siesta:      3  -30.259703 -402.335816    0.000000
siesta:      4    5.161285  401.467898    0.000000
siesta:      5   28.502881  399.372692    0.000000
siesta:      6    3.429573   -1.130717    0.000000
siesta:      7    3.011497   -2.381670    0.000000
siesta:      8  -21.726503    2.426733    0.000000
siesta:      9    0.262299    1.396595    0.000000
siesta:     10    0.583624    0.321885    0.000000
siesta:     11   -2.924083   -1.923423    0.000000
siesta:     12    0.248381    1.326927    0.000000
siesta:     13   -2.024912   -0.827518    0.000000
siesta:     14   -0.043594   -0.153851    0.000000
siesta:     15  -20.117192    3.056725    0.000000
siesta:     16    0.565972    1.740961    0.000000
siesta:     17   -8.720408  113.069921    0.000000
siesta:     18    3.182739  550.995167    0.000000
siesta:     19   10.892720 -126.374206    0.000000
siesta:     20   -6.609235  121.267557    0.000000
siesta:     21  -11.032750 -543.877090    0.000000
siesta:     22   10.426580 -545.333796    0.000000
siesta:     23   24.890484 -395.748735    0.000000
siesta:     24    7.465104    4.042548    0.000000
siesta:     25   -0.708724   -0.578100    0.000000
siesta:     26    2.609544    2.153986    0.000000
siesta:     27   -1.092195   -0.422348    0.000000
siesta:     28  -22.333781    2.894497    0.000000
siesta:     29   11.038980 -122.826635    0.000000
siesta:     30   24.987688   -1.812434    0.000000
siesta:     31   -3.542222   -6.295132    0.000000
siesta:     32    0.579181   -1.326810    0.000000
siesta:     33    4.144813    8.696621    0.000000
siesta:     34    0.010995   -6.162727    0.000000
siesta:     35  -22.995363  556.039525    0.000000
siesta:     36   -1.897050 -126.597772    0.000000
siesta:     37    2.463851  551.437516    0.000000
siesta:     38    2.063219 -133.570182    0.000000
siesta:     39   29.353103  559.839562    0.000000
siesta:     40   21.307083   -4.847021    0.000000
siesta:     41   -3.739077    2.370593    0.000000
siesta:     42   -0.362274    1.111811    0.000000
siesta:     43   -3.007194    1.915582    0.000000
siesta:     44   -1.637896   -0.910694    0.000000
siesta:     45  -29.040174  397.962907    0.000000
siesta:     46  -30.377720  552.720740    0.000000
siesta:     47  -21.066285   -5.270704    0.000000
siesta:     48   -0.637826  560.854451    0.000000
siesta:     49    2.097309   -2.696134    0.000000
siesta:     50    1.379531   -4.183180    0.000000
siesta:     51    3.093329    3.731631    0.000000
siesta:     52    0.204967   -0.286976    0.000000
siesta:     53   -1.831338    1.168064    0.000000
siesta:     54    3.010739   -0.790097    0.000000
siesta:     55   -1.764974    3.219088    0.000000
siesta:     56   -3.064613   -2.285456    0.000000
siesta:     57   -0.214363    1.385113    0.000000
siesta:     58   -2.886205   -3.135850    0.000000
siesta:     59   -0.276583    6.371095    0.000000
siesta:     60    0.388623   -6.801994    0.000000
siesta:     61   -3.567917   -1.690942    0.000000
siesta:     62    3.283016   -2.049266    0.000000
siesta:     63   -2.931614    0.812332    0.000000
siesta:     64   -2.029699 -561.274535    0.000000
siesta:     65   -0.010321    2.464035    0.000000
siesta:     66   19.972445    4.151832    0.000000
siesta:     67   28.881273 -405.926050    0.000000
siesta:     68  -19.010798 -547.840783    0.000000
siesta:     69   -1.980098    0.364617    0.000000
siesta:     70    6.647024 -537.414765    0.000000
siesta:     71    0.343661  127.441960    0.000000
siesta:     72    1.132801 -551.470316    0.000000
siesta: ----------------------------------------
siesta:    Tot   -0.158971   -0.074583    0.000000

siesta: Stress tensor (static) (eV/Ang**3):
siesta:    -0.462636    0.009407    0.000000
siesta:     0.009407   -1.668819    0.000000
siesta:     0.000000    0.000000   -0.000340

siesta: Cell volume =       1893.226884 Ang**3

siesta: Pressure (static):
siesta:                Solid            Molecule  Units
siesta:           0.00773932          0.11381595  Ry/Bohr**3
siesta:           0.71059850         10.45019348  eV/Ang**3
siesta:        1138.51661565      16743.23679184  kBar
(Free)E+ p_basis*V_orbitals  =       -9410.218643
(Free)Eharris+ p_basis*V_orbitals  =       -9410.216046

siesta: Electric dipole (a.u.)  =    0.000000    0.000000    0.000000
siesta: Electric dipole (Debye) =    0.000000    0.000000    0.000000

* Maximum dynamic memory allocated : Node    0 =   172 MB
* Maximum dynamic memory allocated : Node    1 =    68 MB
* Maximum dynamic memory allocated : Node    2 =    70 MB
* Maximum dynamic memory allocated : Node    3 =   159 MB
* Maximum dynamic memory allocated : Node    4 =   169 MB
* Maximum dynamic memory allocated : Node    5 =    61 MB
* Maximum dynamic memory allocated : Node    6 =    63 MB
* Maximum dynamic memory allocated : Node    7 =   159 MB
* Maximum dynamic memory allocated : Node    8 =   150 MB
* Maximum dynamic memory allocated : Node    9 =    61 MB
* Maximum dynamic memory allocated : Node   10 =    62 MB
* Maximum dynamic memory allocated : Node   11 =   142 MB

* Maximum memory occured during matrixMtoO                    

timer: CPU execution times:
timer:  Routine       Calls   Time/call    Tot.time        %
timer:  siesta            1  124689.554  124689.554   100.00
timer:  Setup             1       3.378       3.378     0.00
timer:  bands             3     226.316     678.949     0.54
timer:  writewave         1       0.024       0.024     0.00
timer:  KSV_init          1       0.006       0.006     0.00
timer:  IterMD            1  124000.374  124000.374    99.45
timer:  hsparse           1       0.284       0.284     0.00
timer:  overlap           1       7.619       7.619     0.01
timer:  IterSCF          42    2948.534  123838.411    99.32
timer:  kinefsm           2       3.876       7.751     0.01
timer:  nlefsm            2      20.737      41.474     0.03
timer:  DHSCF            43      84.210    3621.041     2.90
timer:  DHSCF1            1       1.191       1.191     0.00
timer:  DHSCF2            1      33.760      33.760     0.03
timer:  REORD           346       0.002       0.672     0.00
timer:  POISON           44       0.452      19.879     0.02
timer:  DHSCF3           43      82.732    3557.484     2.85
timer:  rhoofd           43      17.394     747.954     0.60
timer:  cellXC           43       2.432     104.582     0.08
timer:  vmat             43      40.653    1748.094     1.40
timer:  MolMec            2       0.000       0.000     0.00
timer:  diagon           42    2863.243  120256.208    96.44
timer:  c-eigval       9823       5.581   54826.388    43.97
timer:  c-buildHS      9823       0.037     358.639     0.29
timer:  cdiag         19525       5.676  110825.357    88.88
timer:  cdiag1        19525       0.262    5107.405     4.10
timer:  cdiag2        19525       1.837   35872.565    28.77
timer:  cdiag3        19525       3.370   65791.433    52.76
timer:  cdiag4        19525       0.087    1702.442     1.37
timer:  c-eigvec       9702       5.840   56659.482    45.44
timer:  c-buildD       9702       0.968    9396.008     7.54
timer:  DHSCF4            1      28.315      28.315     0.02
timer:  dfscf             1      26.191      26.191     0.02
timer:  overfsm           1       0.329       0.329     0.00
timer:  optical           1       6.251       6.251     0.01
  

elaps: ELAPSED times:
elaps:  Routine       Calls   Time/call    Tot.time        %
elaps:  siesta            1   10415.256   10415.256   100.00
elaps:  Setup             1       0.281       0.281     0.00
elaps:  bands             3      18.919      56.758     0.54
elaps:  writewave         1       0.002       0.002     0.00
elaps:  KSV_init          1       0.000       0.000     0.00
elaps:  IterMD            1   10357.689   10357.689    99.45
elaps:  hsparse           1       0.028       0.028     0.00
elaps:  overlap           1       0.717       0.717     0.01
elaps:  IterSCF          42     246.290   10344.161    99.32
elaps:  kinefsm           2       0.369       0.738     0.01
elaps:  nlefsm            2       1.833       3.666     0.04
elaps:  DHSCF            43       7.090     304.873     2.93
elaps:  DHSCF1            1       0.102       0.102     0.00
elaps:  DHSCF2            1       2.817       2.817     0.03
elaps:  REORD           346       0.000       0.103     0.00
elaps:  POISON           44       0.038       1.670     0.02
elaps:  DHSCF3           43       6.912     297.231     2.85
elaps:  rhoofd           43       3.142     135.127     1.30
elaps:  cellXC           43       0.203       8.715     0.08
elaps:  vmat             43       3.397     146.086     1.40
elaps:  MolMec            2       0.000       0.000     0.00
elaps:  diagon           42     239.171   10045.192    96.45
elaps:  c-eigval       9823       0.466    4579.540    43.97
elaps:  c-buildHS      9823       0.004      37.839     0.36
elaps:  cdiag         19525       0.469    9162.662    87.97
elaps:  cdiag1        19525       0.022     420.057     4.03
elaps:  cdiag2        19525       0.154    2999.077    28.80
elaps:  cdiag3        19525       0.282    5503.125    52.84
elaps:  cdiag4        19525       0.007     136.716     1.31
elaps:  c-eigvec       9702       0.480    4652.926    44.67
elaps:  c-buildD       9702       0.089     864.382     8.30
elaps:  DHSCF4            1       4.680       4.680     0.04
elaps:  dfscf             1       4.417       4.417     0.04
elaps:  overfsm           1       0.036       0.036     0.00
elaps:  optical           1       0.000       0.000     0.00
  
>> End of run:   1-MAY-2016   5:13:36
