Siesta Version:                                        siesta-3.2-pl-3
Architecture  : x86_64-unknown-linux-gnu--unknown
Compiler flags: mpiifort -g -O2 -fPIC -xSSE4.1 -fp-model source -shared-intel 
PARALLEL version

* Running on    8 nodes in parallel
>> Start of run:  27-APR-2016   3:04:18

                           ***********************       
                           *  WELCOME TO SIESTA  *       
                           ***********************       

reinit: Reading from standard input
************************** Dump of input data file ****************************
#(1) General system descriptors
SystemName            GRP_doping    # Descriptive name of the system
SystemLabel           GRP_doping    # Short name for naming files
%include STRUCT.fdf
%include KPT.fdf
%include BASIS.fdf
#%include TS.fdf # for transiesta calculation
#(4) DFT, Grid, SCF
XC.functional         GGA           # LDA or GGA (default = LDA)
XC.authors            PBE           # CA (Ceperley-Aldr) = PZ
                                    #    (Perdew-Zunger) - LDA - Default
                                    # PW92 (Perdew-Wang-92) - LDA
                                    # PBE (Perdew-Burke-Ernzerhof) - GGA
MeshCutoff            200.000000    Ry      # Default: 50.0 Ry ~ 0.444 Bohr
                                    #         100.0 Ry ~ 0.314 Bohr
MaxSCFIterations      500           # Default: 50
DM.MixingWeight       0.05          # Default: 0.25
DM.NumberPulay        10            # Default: 0
DM.PulayOnFile        F             # SystemLabel.P1, SystemLabel.P2
DM.Tolerance          1.d-4         # Default: 1.d-4
DM.UseSaveDM          .true.        # because of the bug
SCFMustConverge       .true.
NeglNonOverlapInt     F             # Default: F
#(5) Eigenvalue problem: order-N or diagonalization
SolutionMethod        Diagon        # or Transiesta
ElectronicTemperature 300.0 K       # Default: 300.0 K
#(6) Molecular dynamics and relaxations
#MD.TypeOfRun          CG            # Type of dynamics:
#MD.VariableCell       F
#MD.NumCGsteps         0           # 0 for single-point / 100 for gopt
#MD.MaxCGDispl         0.2 Bohr      # Default: 0.2 Bohr
#MD.MaxForceTol        0.02 eV/Ang   # Default: 0.04 eV/Ang
#MD.MaxStressTol       1.0 GPa       # Default: 1.0 GPa
# Geometry Constraints
#%block GeometryConstraints
#	position from 1 to 44
#%endblock GeometryConstraints
BandLinesScale   pi/a
%block BandLines
 1   0.00000000  0.00000000  0.00000000
50   0.00000000  0.07809418  0.00000000
50   0.04509075  0.07809242  0.00000000
20   0.00000000  0.00000000  0.00000000
%endblock BandLines
************************** End of input data file *****************************

reinit: -----------------------------------------------------------------------
reinit: System Name: GRP_doping
reinit: -----------------------------------------------------------------------
reinit: System Label: GRP_doping                                                  
reinit: -----------------------------------------------------------------------

initatom: Reading input for the pseudopotentials and atomic orbitals ----------
 Species number:            1  Label: B Atomic number:           5
 Species number:            2  Label: C Atomic number:           6
Ground state valence configuration:   2s02  2p01
Reading pseudopotential information in formatted form from B.psf

Valence configuration for pseudopotential generation:
2s( 2.00) rc: 1.74
2p( 1.00) rc: 1.74
3d( 0.00) rc: 1.74
4f( 0.00) rc: 1.74
Ground state valence configuration:   2s02  2p02
Reading pseudopotential information in formatted form from C.psf

Valence configuration for pseudopotential generation:
2s( 2.00) rc: 1.54
2p( 2.00) rc: 1.54
3d( 0.00) rc: 1.54
4f( 0.00) rc: 1.54
For B, standard SIESTA heuristics set lmxkb to 3
 (one more than the basis l, including polarization orbitals).
Use PS.lmax or PS.KBprojectors blocks to override.
For C, standard SIESTA heuristics set lmxkb to 3
 (one more than the basis l, including polarization orbitals).
Use PS.lmax or PS.KBprojectors blocks to override.

<basis_specs>
===============================================================================
B                    Z=   5    Mass=  10.810        Charge= 0.17977+309
Lmxo=1 Lmxkb= 3    BasisType=split      Semic=F
L=0  Nsemic=0  Cnfigmx=2
          n=1  nzeta=2  polorb=0
            splnorm:   0.15000    
               vcte:    0.0000    
               rinn:    0.0000    
                rcs:    0.0000      0.0000    
            lambdas:    1.0000      1.0000    
L=1  Nsemic=0  Cnfigmx=2
          n=1  nzeta=2  polorb=1
            splnorm:   0.15000    
               vcte:    0.0000    
               rinn:    0.0000    
                rcs:    0.0000      0.0000    
            lambdas:    1.0000      1.0000    
-------------------------------------------------------------------------------
L=0  Nkbl=1  erefs: 0.17977+309
L=1  Nkbl=1  erefs: 0.17977+309
L=2  Nkbl=1  erefs: 0.17977+309
L=3  Nkbl=1  erefs: 0.17977+309
===============================================================================
</basis_specs>

atom: Called for B                     (Z =   5)

read_vps: Pseudopotential generation method:
read_vps: ATM3      Troullier-Martins                       
Total valence charge:    3.00000

read_vps: Pseudopotential includes a core correction:
read_vps: Pseudo-core for xc-correction

xc_check: Exchange-correlation functional:
xc_check: GGA Perdew, Burke & Ernzerhof 1996
V l=0 = -2*Zval/r beyond r=  1.7165
V l=1 = -2*Zval/r beyond r=  1.7165
V l=2 = -2*Zval/r beyond r=  1.7165
V l=3 = -2*Zval/r beyond r=  1.6951
All V_l potentials equal beyond r=  1.7165
This should be close to max(r_c) in ps generation
All pots = -2*Zval/r beyond r=  1.7165

VLOCAL1: 99.0% of the norm of Vloc inside     14.733 Ry
VLOCAL1: 99.9% of the norm of Vloc inside     33.577 Ry
atom: Maximum radius for 4*pi*r*r*local-pseudopot. charge    2.04484
atom: Maximum radius for r*vlocal+2*Zval:    1.75994
GHOST: No ghost state for L =  0
GHOST: No ghost state for L =  1
GHOST: No ghost state for L =  2
GHOST: No ghost state for L =  3

KBgen: Kleinman-Bylander projectors: 
   l= 0   rc=  1.897051   el= -0.693730   Ekb=  4.595746   kbcos=  0.286105
   l= 1   rc=  1.920920   el= -0.265236   Ekb= -2.350715   kbcos= -0.315747
   l= 2   rc=  2.044840   el=  0.002055   Ekb= -0.690767   kbcos= -0.013822
   l= 3   rc=  2.149707   el=  0.003188   Ekb= -0.315358   kbcos= -0.002055

KBgen: Total number of  Kleinman-Bylander projectors:   16
atom: -------------------------------------------------------------------------

atom: SANKEY-TYPE ORBITALS:
atom: Selected multiple-zeta basis: split     

SPLIT: Orbitals with angular momentum L= 0

SPLIT: Basis orbitals for state 2s

SPLIT: PAO cut-off radius determined from an
SPLIT: energy shift=  0.007350 Ry

   izeta = 1
                 lambda =    1.000000
                     rc =    5.422032
                 energy =   -0.686029
                kinetic =    0.576707
    potential(screened) =   -1.262736
       potential(ionic) =   -3.271094

   izeta = 2
                 rmatch =    4.222573
              splitnorm =    0.150000
                 energy =   -0.602132
                kinetic =    0.858975
    potential(screened) =   -1.461107
       potential(ionic) =   -3.582536

SPLIT: Orbitals with angular momentum L= 1

SPLIT: Basis orbitals for state 2p

SPLIT: PAO cut-off radius determined from an
SPLIT: energy shift=  0.007350 Ry

   izeta = 1
                 lambda =    1.000000
                     rc =    6.790259
                 energy =   -0.258578
                kinetic =    1.481412
    potential(screened) =   -1.739989
       potential(ionic) =   -3.657461

   izeta = 2
                 rmatch =    4.608740
              splitnorm =    0.150000
                 energy =   -0.173757
                kinetic =    2.186690
    potential(screened) =   -2.360447
       potential(ionic) =   -4.464260

POLgen: Perturbative polarization orbital with L=  2

POLgen: Polarization orbital for state 2p

   izeta = 1
                     rc =    6.790259
                 energy =    0.684082
                kinetic =    1.471481
    potential(screened) =   -0.787399
       potential(ionic) =   -2.406985
atom: Total number of Sankey-type orbitals: 13

atm_pop: Valence configuration (for local Pseudopot. screening):
 2s( 2.00)                                                            
 2p( 1.00)                                                            
Vna: chval, zval:    3.00000   3.00000

Vna:  Cut-off radius for the neutral-atom potential:   6.790259
comcore: Pseudo-core radius Rcore=  2.122997

atom: _________________________________________________________________________

<basis_specs>
===============================================================================
C                    Z=   6    Mass=  12.010        Charge= 0.17977+309
Lmxo=1 Lmxkb= 3    BasisType=split      Semic=F
L=0  Nsemic=0  Cnfigmx=2
          n=1  nzeta=2  polorb=0
            splnorm:   0.15000    
               vcte:    0.0000    
               rinn:    0.0000    
                rcs:    0.0000      0.0000    
            lambdas:    1.0000      1.0000    
L=1  Nsemic=0  Cnfigmx=2
          n=1  nzeta=2  polorb=1
            splnorm:   0.15000    
               vcte:    0.0000    
               rinn:    0.0000    
                rcs:    0.0000      0.0000    
            lambdas:    1.0000      1.0000    
-------------------------------------------------------------------------------
L=0  Nkbl=1  erefs: 0.17977+309
L=1  Nkbl=1  erefs: 0.17977+309
L=2  Nkbl=1  erefs: 0.17977+309
L=3  Nkbl=1  erefs: 0.17977+309
===============================================================================
</basis_specs>

atom: Called for C                     (Z =   6)

read_vps: Pseudopotential generation method:
read_vps: ATM3      Troullier-Martins                       
Total valence charge:    4.00000

read_vps: Pseudopotential includes a core correction:
read_vps: Pseudo-core for xc-correction

xc_check: Exchange-correlation functional:
xc_check: GGA Perdew, Burke & Ernzerhof 1996
V l=0 = -2*Zval/r beyond r=  1.5227
V l=1 = -2*Zval/r beyond r=  1.5227
V l=2 = -2*Zval/r beyond r=  1.5227
V l=3 = -2*Zval/r beyond r=  1.5038
All V_l potentials equal beyond r=  1.5227
This should be close to max(r_c) in ps generation
All pots = -2*Zval/r beyond r=  1.5227

VLOCAL1: 99.0% of the norm of Vloc inside     18.722 Ry
VLOCAL1: 99.9% of the norm of Vloc inside     42.668 Ry
atom: Maximum radius for 4*pi*r*r*local-pseudopot. charge    1.83678
atom: Maximum radius for r*vlocal+2*Zval:    1.58088
GHOST: No ghost state for L =  0
GHOST: No ghost state for L =  1
GHOST: No ghost state for L =  2
GHOST: No ghost state for L =  3

KBgen: Kleinman-Bylander projectors: 
   l= 0   rc=  1.704034   el= -1.009801   Ekb=  5.335044   kbcos=  0.316824
   l= 1   rc=  1.704034   el= -0.388707   Ekb= -3.785862   kbcos= -0.366464
   l= 2   rc=  1.791422   el=  0.001971   Ekb= -0.970471   kbcos= -0.009212
   l= 3   rc=  1.859892   el=  0.003065   Ekb= -0.399525   kbcos= -0.001223

KBgen: Total number of  Kleinman-Bylander projectors:   16
atom: -------------------------------------------------------------------------

atom: SANKEY-TYPE ORBITALS:
atom: Selected multiple-zeta basis: split     

SPLIT: Orbitals with angular momentum L= 0

SPLIT: Basis orbitals for state 2s

SPLIT: PAO cut-off radius determined from an
SPLIT: energy shift=  0.007350 Ry

   izeta = 1
                 lambda =    1.000000
                     rc =    4.632753
                 energy =   -1.002270
                kinetic =    0.855760
    potential(screened) =   -1.858031
       potential(ionic) =   -5.417575

   izeta = 2
                 rmatch =    3.431921
              splitnorm =    0.150000
                 energy =   -0.867111
                kinetic =    1.300804
    potential(screened) =   -2.167915
       potential(ionic) =   -5.962684

SPLIT: Orbitals with angular momentum L= 1

SPLIT: Basis orbitals for state 2p

SPLIT: PAO cut-off radius determined from an
SPLIT: energy shift=  0.007350 Ry

   izeta = 1
                 lambda =    1.000000
                     rc =    5.658549
                 energy =   -0.381140
                kinetic =    2.399701
    potential(screened) =   -2.780841
       potential(ionic) =   -6.206085

   izeta = 2
                 rmatch =    3.653288
              splitnorm =    0.150000
                 energy =   -0.249149
                kinetic =    3.542762
    potential(screened) =   -3.791911
       potential(ionic) =   -7.581078

POLgen: Perturbative polarization orbital with L=  2

POLgen: Polarization orbital for state 2p

   izeta = 1
                     rc =    5.658549
                 energy =    1.109913
                kinetic =    2.304789
    potential(screened) =   -1.194876
       potential(ionic) =   -4.013592
atom: Total number of Sankey-type orbitals: 13

atm_pop: Valence configuration (for local Pseudopot. screening):
 2s( 2.00)                                                            
 2p( 2.00)                                                            
Vna: chval, zval:    4.00000   4.00000

Vna:  Cut-off radius for the neutral-atom potential:   5.658549
comcore: Pseudo-core radius Rcore=  1.791422

atom: _________________________________________________________________________

prinput: Basis input ----------------------------------------------------------

PAO.BasisType split     

%block ChemicalSpeciesLabel
    1    5 B                       # Species index, atomic number, species label
    2    6 C                       # Species index, atomic number, species label
%endblock ChemicalSpeciesLabel

%block PAO.Basis                 # Define Basis set
B                     2                    # Species label, number of l-shells
 n=2   0   2                         # n, l, Nzeta 
   5.422      4.223   
   1.000      1.000   
 n=2   1   2 P   1                   # n, l, Nzeta, Polarization, NzetaPol
   6.790      4.609   
   1.000      1.000   
C                     2                    # Species label, number of l-shells
 n=2   0   2                         # n, l, Nzeta 
   4.633      3.432   
   1.000      1.000   
 n=2   1   2 P   1                   # n, l, Nzeta, Polarization, NzetaPol
   5.659      3.653   
   1.000      1.000   
%endblock PAO.Basis

prinput: ----------------------------------------------------------------------

coor:   Atomic-coordinates input format  =     Fractional

siesta: Atomic coordinates (Bohr) and species
siesta:     -2.35420  38.89134   0.00000  1        1
siesta:     -4.68258  34.85847   0.00000  1        2
siesta:     -4.68258  37.54693   0.00000  1        3
siesta:     -0.02582  13.34970   0.00000  1        4
siesta:     -4.68258  10.66124   0.00000  1        5
siesta:     -4.68258  13.34970   0.00000  1        6
siesta:     -2.35420  14.69411   0.00000  1        7
siesta:     -2.35420  17.38257   0.00000  1        8
siesta:     -0.02582  18.72698   0.00000  1        9
siesta:     -4.68258  18.72698   0.00000  1       10
siesta:     -4.68258  21.41544   0.00000  1       11
siesta:     -7.01096  22.75985   0.00000  1       12
siesta:     -7.01096  25.44831   0.00000  1       13
siesta:    -11.66772  22.75985   0.00000  1       14
siesta:    -11.66772  25.44831   0.00000  1       15
siesta:     -9.33934  26.79272   0.00000  1       16
siesta:     -9.33934  29.48119   0.00000  1       17
siesta:     -4.68258  26.79272   0.00000  1       18
siesta:     -7.01096  30.82560   0.00000  1       19
siesta:     -7.01096  33.51406   0.00000  1       20
siesta:     -0.02582   2.59549   0.00000  2       21
siesta:     -0.02582   5.28395   0.00000  2       22
siesta:     -2.35420  41.57980   0.00000  2       23
siesta:      2.30256  38.89134   0.00000  2       24
siesta:      2.30256  41.57980   0.00000  2       25
siesta:      4.63094  34.85847   0.00000  2       26
siesta:      4.63094  37.54693   0.00000  2       27
siesta:      6.95932  30.82560   0.00000  2       28
siesta:      6.95932  33.51406   0.00000  2       29
siesta:      9.28770  26.79272   0.00000  2       30
siesta:      9.28770  29.48119   0.00000  2       31
siesta:      2.30256   6.62836   0.00000  2       32
siesta:      2.30256   9.31683   0.00000  2       33
siesta:      4.63094  10.66124   0.00000  2       34
siesta:      4.63094  13.34970   0.00000  2       35
siesta:      6.95932  14.69411   0.00000  2       36
siesta:      6.95932  17.38257   0.00000  2       37
siesta:      9.28770  18.72698   0.00000  2       38
siesta:      9.28770  21.41544   0.00000  2       39
siesta:     11.61608  22.75985   0.00000  2       40
siesta:     11.61608  25.44831   0.00000  2       41
siesta:     -2.35420   6.62836   0.00000  2       42
siesta:     -2.35420   9.31683   0.00000  2       43
siesta:     -0.02582  10.66124   0.00000  2       44
siesta:      2.30256  14.69411   0.00000  2       45
siesta:      2.30256  17.38257   0.00000  2       46
siesta:      4.63094  18.72698   0.00000  2       47
siesta:      4.63094  21.41544   0.00000  2       48
siesta:      6.95932  22.75985   0.00000  2       49
siesta:      6.95932  25.44831   0.00000  2       50
siesta:     -0.02582  21.41544   0.00000  2       51
siesta:      2.30256  22.75985   0.00000  2       52
siesta:      2.30256  25.44831   0.00000  2       53
siesta:     -7.01096  14.69411   0.00000  2       54
siesta:     -7.01096  17.38257   0.00000  2       55
siesta:     -2.35420  22.75985   0.00000  2       56
siesta:     -2.35420  25.44831   0.00000  2       57
siesta:     -9.33934  18.72698   0.00000  2       58
siesta:     -9.33934  21.41544   0.00000  2       59
siesta:      4.63094  26.79272   0.00000  2       60
siesta:      4.63094  29.48119   0.00000  2       61
siesta:     -0.02582  26.79272   0.00000  2       62
siesta:     -0.02582  29.48119   0.00000  2       63
siesta:     -4.68258  29.48119   0.00000  2       64
siesta:      2.30256  30.82560   0.00000  2       65
siesta:      2.30256  33.51406   0.00000  2       66
siesta:     -2.35420  30.82560   0.00000  2       67
siesta:     -2.35420  33.51406   0.00000  2       68
siesta:     -0.02582  34.85847   0.00000  2       69
siesta:     -0.02582  37.54693   0.00000  2       70
siesta:     -0.02582  42.92421   0.00000  2       71
siesta:     -0.02582  45.61267   0.00000  2       72

siesta: System type = slab      

initatomlists: Number of atoms, orbitals, and projectors:     72   936  1152

siesta: ******************** Simulation parameters ****************************
siesta:
siesta: The following are some of the parameters of the simulation.
siesta: A complete list of the parameters used, including default values,
siesta: can be found in file out.fdf
siesta:
redata: Non-Collinear-spin run           =     F
redata: SpinPolarized (Up/Down) run      =     F
redata: Number of spin components        =     1
redata: Long output                      =     F
redata: Number of Atomic Species         =        2
redata: Charge density info will appear in .RHO file
redata: Write Mulliken Pop.              =     NO
redata: Mesh Cutoff                      =   200.0000  Ry
redata: Net charge of the system         =     0.0000 |e|
redata: Max. number of SCF Iter          =      500
redata: SCF convergence failure will abort job
redata: Performing Pulay mixing using    =    10 iterations
redata: Mix DM in first SCF step ?       =     F
redata: Write Pulay info on disk?        =     F
redata: Discard 1st Pulay DM after  kick =     F
redata: New DM Mixing Weight             =     0.0500
redata: New DM Occupancy tolerance       = 0.000000000001
redata: No kicks to SCF
redata: DM Mixing Weight for Kicks       =     0.5000
redata: DM Tolerance for SCF             =     0.000100
redata: Require Energy convergence for SCF =     F
redata: DM Energy tolerance for SCF      =     0.000100 eV
redata: Require Harris convergence for SCF =     F
redata: DM Harris energy tolerance for SCF =     0.000100 eV
redata: Using Saved Data (generic)   =     F
redata: Use continuation files for DM    =     T
redata: Neglect nonoverlap interactions  =     F
redata: Method of Calculation            =     Diagonalization
redata: Divide and Conquer               =     T
redata: Electronic Temperature           =     0.0019  Ry
redata: Fix the spin of the system       =     F
redata: Dynamics option                  =     Verlet MD run
redata: Initial MD time step             =        1
redata:   Final MD time step             =        1
redata: Length of MD time step           =     1.0000  fs
redata: Initial Temperature of MD run    =     0.0000  K
redata: Perform a MD quench              =     F
redata: ***********************************************************************
Total number of electrons:   268.000000
Total ionic charge:   268.000000

* ProcessorY, Blocksize:    2  24

k-point displ. along   1 input, could be:     0.50    0.00
k-point displ. along   2 input, could be:     0.50    0.00
 Kpoints in:          231 . Kpoints trimmed:          231

siesta: k-grid: Number of k-points =   231
siesta: k-grid: Cutoff (effective) =     5.000 Ang
siesta: k-grid: Supercell and displacements
siesta: k-grid:   21   0   0      0.500
siesta: k-grid:    0  21   0      0.500
siesta: k-grid:    0   0   1      0.000
Naive supercell factors:     2    2    2

superc: Internal auxiliary supercell:     2 x     2 x     2  =       8
superc: Number of atoms, orbitals, and projectors:    576   7488   9216

* Maximum dynamic memory allocated =     4 MB

siesta:                 ==============================
                            Begin MD step =      1
                        ==============================

superc: Internal auxiliary supercell:     2 x     2 x     2  =       8
superc: Number of atoms, orbitals, and projectors:    576   7488   9216

outcell: Unit cell vectors (Ang):
       12.804619    7.392750    0.000000
        0.000000   14.785500    0.000000
        0.000000    0.000000   10.000000

outcell: Cell vector modules (Ang)   :   14.785500   14.785500   10.000000
outcell: Cell angles (23,13,12) (deg):     90.0000     90.0000     60.0000
outcell: Cell volume (Ang**3)        :   1893.2269
New_DM. Step:     1
Initializing Density Matrix...

InitMesh: MESH =   120 x   120 x    90 =     1296000
InitMesh: Mesh cutoff (required, used) =   200.000   223.865 Ry

* Maximum dynamic memory allocated =   227 MB

stepf: Fermi-Dirac step function

siesta: Program's energy decomposition (eV):
siesta: Ebs     =     -5526.052434
siesta: Eions   =     15841.876847
siesta: Ena     =      4239.527616
siesta: Ekin    =      5323.417823
siesta: Enl     =       803.941429
siesta: DEna    =        -0.000008
siesta: DUscf   =         0.000000
siesta: DUext   =         0.000000
siesta: Exc     =     -4197.577252
siesta: eta*DQ  =         0.000000
siesta: Emadel  =         0.000000
siesta: Emeta   =         0.000000
siesta: Emolmec =         0.000000
siesta: Ekinion =         0.000000
siesta: Eharris =     -9436.882662
siesta: Etot    =     -9672.567239
siesta: FreeEng =     -9672.567239

siesta: iscf   Eharris(eV)      E_KS(eV)   FreeEng(eV)   dDmax  Ef(eV)
siesta:    1    -9436.8827    -9672.5672    -9672.5672  8.5649 -8.2676
timer: Routine,Calls,Time,% = IterSCF        1    4537.798  99.74
elaps: Routine,Calls,Wall,% = IterSCF        1     567.936  99.74
siesta:    2   -14083.0898    -8679.8458    -8679.9330 15.3547 -4.4534
siesta:    3    -9448.2740    -9462.0647    -9462.0721  2.0484 -5.6489
siesta:    4    -9390.5662    -9402.9634    -9403.0469  1.3813 -5.2928
siesta:    5    -9314.0710    -9338.1616    -9338.2010  1.1807 -4.9318
siesta:    6    -9291.4439    -9311.4683    -9311.4881  1.2097 -5.0116
siesta:    7    -9286.7097    -9298.9008    -9298.9372  1.1533 -4.9564
siesta:    8    -9278.7896    -9284.2599    -9284.3034  0.9255 -4.9502
siesta:    9    -9278.0094    -9273.5501    -9273.6079  0.7363 -4.9431
siesta:   10    -9277.6940    -9266.8207    -9266.9082  0.5581 -4.9050
siesta:   11    -9278.3730    -9260.7860    -9260.8409  0.3458 -4.8246
siesta:   12    -9277.6985    -9259.2644    -9259.2972  0.2435 -4.7422
siesta:   13    -9277.1849    -9258.8848    -9258.9067  0.1878 -4.8106
siesta:   14    -9276.8183    -9260.0522    -9260.1183  0.1637 -4.8045
siesta:   15    -9276.5636    -9263.3472    -9263.3994  0.1434 -4.8460
siesta:   16    -9276.4756    -9265.0977    -9265.1615  0.1151 -4.8511
siesta:   17    -9276.3243    -9267.8625    -9267.9185  0.0901 -4.8808
siesta:   18    -9276.1794    -9270.7960    -9270.8568  0.0925 -4.9413
siesta:   19    -9276.1408    -9270.9004    -9270.9705  0.0510 -4.9240
siesta:   20    -9276.1328    -9272.1877    -9272.2539  0.0522 -4.9355
siesta:   21    -9276.1187    -9273.4715    -9273.5408  0.0376 -4.9158
siesta:   22    -9276.1107    -9274.6393    -9274.7051  0.0170 -4.9209
siesta:   23    -9276.1039    -9275.5175    -9275.5868  0.0170 -4.9227
siesta:   24    -9276.1008    -9275.5840    -9275.6534  0.0205 -4.9219
siesta:   25    -9276.1007    -9275.7458    -9275.8152  0.0172 -4.9206
siesta:   26    -9276.1009    -9275.7968    -9275.8657  0.0087 -4.9167
siesta:   27    -9276.1006    -9275.8193    -9275.8877  0.0061 -4.9155
siesta:   28    -9276.1003    -9275.8136    -9275.8820  0.0062 -4.9155
siesta:   29    -9276.1003    -9275.8544    -9275.9228  0.0053 -4.9159
siesta:   30    -9276.1004    -9275.9183    -9275.9867  0.0031 -4.9159
siesta:   31    -9276.1004    -9276.0269    -9276.0952  0.0015 -4.9164
siesta:   32    -9276.1005    -9276.0607    -9276.1289  0.0008 -4.9167
siesta:   33    -9276.1004    -9276.0785    -9276.1467  0.0006 -4.9167
siesta:   34    -9276.1004    -9276.0862    -9276.1544  0.0007 -4.9166
siesta:   35    -9276.1003    -9276.0793    -9276.1475  0.0004 -4.9167
siesta:   36    -9276.1003    -9276.0842    -9276.1525  0.0004 -4.9166
siesta:   37    -9276.1003    -9276.0863    -9276.1546  0.0004 -4.9165
siesta:   38    -9276.1003    -9276.0916    -9276.1599  0.0002 -4.9165
siesta:   39    -9276.1003    -9276.0919    -9276.1601  0.0002 -4.9165
siesta:   40    -9276.1003    -9276.0943    -9276.1625  0.0001 -4.9165

siesta: E_KS(eV) =            -9276.0970

siesta: E_KS - E_eggbox =     -9276.0970

siesta: Atomic forces (eV/Ang):
----------------------------------------
   Tot   -0.137409   -0.328662    0.000000
----------------------------------------
   Max  564.237308
   Res  145.881519    sqrt( Sum f_i^2 / 3N )
----------------------------------------
   Max  564.237308    constrained

Stress-tensor-Voigt (kbar):     -728.13    -2645.04       -0.65       -9.39        0.00        0.00
(Free)E + p*V (eV/cell)    -7947.2791
Target enthalpy (eV/cell)    -9276.1652

siesta: Stress tensor (static) (eV/Ang**3):
        -0.454458   -0.005862    0.000000
        -0.005862   -1.650885    0.000000
         0.000000    0.000000   -0.000404

siesta: Pressure (static):       1124.60549502  kBar

siesta: Stress tensor (total) (eV/Ang**3):
        -0.454458   -0.005862    0.000000
        -0.005862   -1.650885    0.000000
         0.000000    0.000000   -0.000404

siesta: Pressure (total):       1124.60549502  kBar

siesta: Temp_ion =       0.000 K

* Maximum dynamic memory allocated =   244 MB
Computing bands...

siesta: Program's energy decomposition (eV):
siesta: Ebs     =     -4191.164270
siesta: Eions   =     15841.876847
siesta: Ena     =      4239.527616
siesta: Ekin    =      8170.648084
siesta: Enl     =      -819.129886
siesta: DEna    =      -763.574306
siesta: DUscf   =       101.861264
siesta: DUext   =         0.000000
siesta: Exc     =     -4363.552916
siesta: eta*DQ  =         0.000000
siesta: Emadel  =         0.000000
siesta: Emeta   =         0.000000
siesta: Emolmec =         0.000000
siesta: Ekinion =         0.000000
siesta: Eharris =     -9276.100328
siesta: Etot    =     -9276.096992
siesta: FreeEng =     -9276.165236

siesta: Final energy (eV):
siesta:  Band Struct. =   -4191.164270
siesta:       Kinetic =    8170.648084
siesta:       Hartree =   26897.820505
siesta:    Ext. field =       0.000000
siesta:   Exch.-corr. =   -4363.552916
siesta:  Ion-electron =  -61715.157800
siesta:       Ion-ion =   21734.145136
siesta:       Ekinion =       0.000000
siesta:         Total =   -9276.096992

siesta: Atomic forces (eV/Ang):
siesta:      1    0.744257  111.307112    0.000000
siesta:      2  -17.549227    0.262232    0.000000
siesta:      3  -23.093648 -282.046454    0.000000
siesta:      4   -2.536323 -111.014013    0.000000
siesta:      5  -23.142344  283.308802    0.000000
siesta:      6  -18.513148    2.010530    0.000000
siesta:      7  -17.535593  398.114862    0.000000
siesta:      8  -14.948690   -0.181839    0.000000
siesta:      9   -0.954471  414.040447    0.000000
siesta:     10   -3.258541   -2.813361    0.000000
siesta:     11    5.164909    3.291712    0.000000
siesta:     12   -3.859055   -3.053861    0.000000
siesta:     13    1.086867    0.901092    0.000000
siesta:     14   -2.251348   -4.059039    0.000000
siesta:     15   -6.151206    3.843885    0.000000
siesta:     16   -4.380384    0.034241    0.000000
siesta:     17   -5.384204    1.773465    0.000000
siesta:     18    3.095234    2.051509    0.000000
siesta:     19    1.623432    1.099202    0.000000
siesta:     20   -3.240372    4.006270    0.000000
siesta:     21    1.725154  548.824944    0.000000
siesta:     22   -1.412303 -128.357856    0.000000
siesta:     23  -13.456585 -397.452655    0.000000
siesta:     24   -1.983292  132.612276    0.000000
siesta:     25   25.435626 -555.527353    0.000000
siesta:     26   26.935267    3.874525    0.000000
siesta:     27   32.537507 -550.629619    0.000000
siesta:     28    1.663586   -0.062248    0.000000
siesta:     29   -2.421022    2.274053    0.000000
siesta:     30    2.100939    1.881683    0.000000
siesta:     31   -0.439212    0.649989    0.000000
siesta:     32   12.260010  546.374723    0.000000
siesta:     33    0.500737 -125.591145    0.000000
siesta:     34   33.063193  549.179772    0.000000
siesta:     35   25.643409   -5.433582    0.000000
siesta:     36   -2.537949   -2.259399    0.000000
siesta:     37    2.028947    0.160026    0.000000
siesta:     38   -0.669971   -0.458050    0.000000
siesta:     39    1.664356   -1.818485    0.000000
siesta:     40    0.684742    6.034673    0.000000
siesta:     41   -0.289785   -6.072323    0.000000
siesta:     42   -7.057772  545.755271    0.000000
siesta:     43   -6.495859 -122.284222    0.000000
siesta:     44   -1.829548  546.016430    0.000000
siesta:     45   12.635755  556.543178    0.000000
siesta:     46   22.286352   -3.672046    0.000000
siesta:     47   -0.988766    2.045194    0.000000
siesta:     48    0.577447   -0.295802    0.000000
siesta:     49   -0.392775    0.565072    0.000000
siesta:     50   -0.358734   -0.575373    0.000000
siesta:     51    0.376673    3.543802    0.000000
siesta:     52   -0.756632    0.385625    0.000000
siesta:     53   -0.014746    0.108980    0.000000
siesta:     54   -0.664367    0.470740    0.000000
siesta:     55   -6.354298   -4.092102    0.000000
siesta:     56    4.564072    0.690607    0.000000
siesta:     57    4.684047   -0.343966    0.000000
siesta:     58    1.343939    2.140117    0.000000
siesta:     59   -3.980136   -6.302733    0.000000
siesta:     60    0.430895    0.396144    0.000000
siesta:     61   -1.062435   -2.201413    0.000000
siesta:     62   -0.492767   -2.296795    0.000000
siesta:     63   -0.805532 -564.237308    0.000000
siesta:     64    3.235782    0.322637    0.000000
siesta:     65   21.861767    5.935640    0.000000
siesta:     66   25.867276 -554.927210    0.000000
siesta:     67  -22.171084    5.661865    0.000000
siesta:     68  -29.938242 -552.780048    0.000000
siesta:     69   -1.801214  129.368785    0.000000
siesta:     70  -13.226933 -546.357860    0.000000
siesta:     71   -9.965529  126.959567    0.000000
siesta:     72    2.406459 -407.952182    0.000000
siesta: ----------------------------------------
siesta:    Tot   -0.137409   -0.328662    0.000000

siesta: Stress tensor (static) (eV/Ang**3):
siesta:    -0.454458   -0.005862    0.000000
siesta:    -0.005862   -1.650885    0.000000
siesta:     0.000000    0.000000   -0.000404

siesta: Cell volume =       1893.226884 Ang**3

siesta: Pressure (static):
siesta:                Solid            Molecule  Units
siesta:           0.00764476          0.11052298  Ry/Bohr**3
siesta:           0.70191595         10.14784415  eV/Ang**3
siesta:        1124.60549502      16258.81451783  kBar
(Free)E+ p_basis*V_orbitals  =       -9239.108551
(Free)Eharris+ p_basis*V_orbitals  =       -9239.114608

siesta: Electric dipole (a.u.)  =    0.000000    0.000000    0.000000
siesta: Electric dipole (Debye) =    0.000000    0.000000    0.000000

* Maximum dynamic memory allocated : Node    0 =   244 MB
* Maximum dynamic memory allocated : Node    1 =    86 MB
* Maximum dynamic memory allocated : Node    2 =    88 MB
* Maximum dynamic memory allocated : Node    3 =   232 MB
* Maximum dynamic memory allocated : Node    4 =   225 MB
* Maximum dynamic memory allocated : Node    5 =    81 MB
* Maximum dynamic memory allocated : Node    6 =    84 MB
* Maximum dynamic memory allocated : Node    7 =   206 MB

* Maximum memory occured during matrixMtoO                    

timer: CPU execution times:
timer:  Routine       Calls   Time/call    Tot.time        %
timer:  siesta            1  179001.299  179001.299   100.00
timer:  Setup             1       3.003       3.003     0.00
timer:  bands             3     269.319     807.957     0.45
timer:  writewave         1       0.019       0.019     0.00
timer:  KSV_init          1       0.000       0.000     0.00
timer:  IterMD            1  178184.475  178184.475    99.54
timer:  hsparse           1       0.393       0.393     0.00
timer:  overlap           1       7.783       7.783     0.00
timer:  IterSCF          40    4448.754  177950.179    99.41
timer:  kinefsm           2       4.028       8.056     0.00
timer:  nlefsm            2      21.613      43.226     0.02
timer:  DHSCF            41     127.863    5242.398     2.93
timer:  DHSCF1            1       1.001       1.001     0.00
timer:  DHSCF2            1      45.314      45.314     0.03
timer:  REORD           330       0.010       3.249     0.00
timer:  POISON           42       2.242      94.153     0.05
timer:  DHSCF3           41     125.621    5150.473     2.88
timer:  rhoofd           41      25.684    1053.024     0.59
timer:  cellXC           41       3.485     142.871     0.08
timer:  vmat             41      61.094    2504.860     1.40
timer:  MolMec            2       0.000       0.000     0.00
timer:  diagon           40    4319.534  172781.345    96.53
timer:  c-eigval       9361       6.676   62491.623    34.91
timer:  c-buildHS      9361       0.122    1145.266     0.64
timer:  cdiag         18601       6.920  128717.954    71.91
timer:  cdiag1        18601       0.428    7960.832     4.45
timer:  cdiag2        18601       1.909   35506.162    19.84
timer:  cdiag3        18601       3.937   73234.170    40.91
timer:  cdiag4        18601       0.226    4200.043     2.35
timer:  c-eigvec       9240       7.360   68004.424    37.99
timer:  c-buildD       9240       4.658   43042.435    24.05
timer:  DHSCF4            1      43.488      43.488     0.02
timer:  dfscf             1      40.775      40.775     0.02
timer:  overfsm           1       0.479       0.479     0.00
timer:  optical           1       5.121       5.121     0.00
  

elaps: ELAPSED times:
elaps:  Routine       Calls   Time/call    Tot.time        %
elaps:  siesta            1   22401.696   22401.696   100.00
elaps:  Setup             1       0.376       0.376     0.00
elaps:  bands             3      33.716     101.149     0.45
elaps:  writewave         1       0.002       0.002     0.00
elaps:  KSV_init          1       0.000       0.000     0.00
elaps:  IterMD            1   22299.495   22299.495    99.54
elaps:  hsparse           1       0.051       0.051     0.00
elaps:  overlap           1       0.976       0.976     0.00
elaps:  IterSCF          40     556.755   22270.184    99.41
elaps:  kinefsm           2       0.505       1.010     0.00
elaps:  nlefsm            2       2.826       5.652     0.03
elaps:  DHSCF            41      16.133     661.466     2.95
elaps:  DHSCF1            1       0.135       0.135     0.00
elaps:  DHSCF2            1       5.658       5.658     0.03
elaps:  REORD           330       0.001       0.451     0.00
elaps:  POISON           42       0.280      11.759     0.05
elaps:  DHSCF3           41      15.716     644.345     2.88
elaps:  rhoofd           41       6.865     281.468     1.26
elaps:  cellXC           41       0.435      17.835     0.08
elaps:  vmat             41       7.642     313.337     1.40
elaps:  MolMec            2       0.000       0.000     0.00
elaps:  diagon           40     540.621   21624.820    96.53
elaps:  c-eigval       9361       0.835    7818.838    34.90
elaps:  c-buildHS      9361       0.017     158.861     0.71
elaps:  cdiag         18601       0.848   15768.279    70.39
elaps:  cdiag1        18601       0.053     991.117     4.42
elaps:  cdiag2        18601       0.239    4442.566    19.83
elaps:  cdiag3        18601       0.493    9176.005    40.96
elaps:  cdiag4        18601       0.029     533.129     2.38
elaps:  c-eigvec       9240       0.890    8219.019    36.69
elaps:  c-buildD       9240       0.615    5680.358    25.36
elaps:  DHSCF4            1      11.039      11.039     0.05
elaps:  dfscf             1      10.480      10.480     0.05
elaps:  overfsm           1       0.059       0.059     0.00
elaps:  optical           1       0.000       0.000     0.00
  
>> End of run:  27-APR-2016   9:17:40
