Siesta Version:                                        siesta-3.2-pl-3
Architecture  : x86_64-unknown-linux-gnu--unknown
Compiler flags: mpiifort -g -O2 -fPIC -xSSE4.1 -fp-model source -shared-intel 
PARALLEL version

* Running on   12 nodes in parallel
>> Start of run:   5-MAY-2016   8:50:03

                           ***********************       
                           *  WELCOME TO SIESTA  *       
                           ***********************       

reinit: Reading from standard input
************************** Dump of input data file ****************************
#(1) General system descriptors
SystemName            GRP_doping    # Descriptive name of the system
SystemLabel           GRP_doping    # Short name for naming files
%include STRUCT.fdf
%include KPT.fdf
%include BASIS.fdf
#%include TS.fdf # for transiesta calculation
#(4) DFT, Grid, SCF
XC.functional         GGA           # LDA or GGA (default = LDA)
XC.authors            PBE           # CA (Ceperley-Aldr) = PZ
                                    #    (Perdew-Zunger) - LDA - Default
                                    # PW92 (Perdew-Wang-92) - LDA
                                    # PBE (Perdew-Burke-Ernzerhof) - GGA
MeshCutoff            200.000000    Ry      # Default: 50.0 Ry ~ 0.444 Bohr
                                    #         100.0 Ry ~ 0.314 Bohr
MaxSCFIterations      500           # Default: 50
DM.MixingWeight       0.05          # Default: 0.25
DM.NumberPulay        10            # Default: 0
DM.PulayOnFile        F             # SystemLabel.P1, SystemLabel.P2
DM.Tolerance          1.d-4         # Default: 1.d-4
DM.UseSaveDM          .true.        # because of the bug
SCFMustConverge       .true.
NeglNonOverlapInt     F             # Default: F
#(5) Eigenvalue problem: order-N or diagonalization
SolutionMethod        Diagon        # or Transiesta
ElectronicTemperature 300.0 K       # Default: 300.0 K
#(6) Molecular dynamics and relaxations
#MD.TypeOfRun          CG            # Type of dynamics:
#MD.VariableCell       F
#MD.NumCGsteps         0           # 0 for single-point / 100 for gopt
#MD.MaxCGDispl         0.2 Bohr      # Default: 0.2 Bohr
#MD.MaxForceTol        0.02 eV/Ang   # Default: 0.04 eV/Ang
#MD.MaxStressTol       1.0 GPa       # Default: 1.0 GPa
# Geometry Constraints
#%block GeometryConstraints
#	position from 1 to 44
#%endblock GeometryConstraints
BandLinesScale   pi/a
%block BandLines
 1   0.00000000  0.00000000  0.00000000
50   0.00000000  0.07809418  0.00000000
50   0.04509075  0.07809242  0.00000000
20   0.00000000  0.00000000  0.00000000
%endblock BandLines
************************** End of input data file *****************************

reinit: -----------------------------------------------------------------------
reinit: System Name: GRP_doping
reinit: -----------------------------------------------------------------------
reinit: System Label: GRP_doping                                                  
reinit: -----------------------------------------------------------------------

initatom: Reading input for the pseudopotentials and atomic orbitals ----------
 Species number:            1  Label: B Atomic number:           5
 Species number:            2  Label: C Atomic number:           6
Ground state valence configuration:   2s02  2p01
Reading pseudopotential information in formatted form from B.psf

Valence configuration for pseudopotential generation:
2s( 2.00) rc: 1.74
2p( 1.00) rc: 1.74
3d( 0.00) rc: 1.74
4f( 0.00) rc: 1.74
Ground state valence configuration:   2s02  2p02
Reading pseudopotential information in formatted form from C.psf

Valence configuration for pseudopotential generation:
2s( 2.00) rc: 1.54
2p( 2.00) rc: 1.54
3d( 0.00) rc: 1.54
4f( 0.00) rc: 1.54
For B, standard SIESTA heuristics set lmxkb to 3
 (one more than the basis l, including polarization orbitals).
Use PS.lmax or PS.KBprojectors blocks to override.
For C, standard SIESTA heuristics set lmxkb to 3
 (one more than the basis l, including polarization orbitals).
Use PS.lmax or PS.KBprojectors blocks to override.

<basis_specs>
===============================================================================
B                    Z=   5    Mass=  10.810        Charge= 0.17977+309
Lmxo=1 Lmxkb= 3    BasisType=split      Semic=F
L=0  Nsemic=0  Cnfigmx=2
          n=1  nzeta=2  polorb=0
            splnorm:   0.15000    
               vcte:    0.0000    
               rinn:    0.0000    
                rcs:    0.0000      0.0000    
            lambdas:    1.0000      1.0000    
L=1  Nsemic=0  Cnfigmx=2
          n=1  nzeta=2  polorb=1
            splnorm:   0.15000    
               vcte:    0.0000    
               rinn:    0.0000    
                rcs:    0.0000      0.0000    
            lambdas:    1.0000      1.0000    
-------------------------------------------------------------------------------
L=0  Nkbl=1  erefs: 0.17977+309
L=1  Nkbl=1  erefs: 0.17977+309
L=2  Nkbl=1  erefs: 0.17977+309
L=3  Nkbl=1  erefs: 0.17977+309
===============================================================================
</basis_specs>

atom: Called for B                     (Z =   5)

read_vps: Pseudopotential generation method:
read_vps: ATM3      Troullier-Martins                       
Total valence charge:    3.00000

read_vps: Pseudopotential includes a core correction:
read_vps: Pseudo-core for xc-correction

xc_check: Exchange-correlation functional:
xc_check: GGA Perdew, Burke & Ernzerhof 1996
V l=0 = -2*Zval/r beyond r=  1.7165
V l=1 = -2*Zval/r beyond r=  1.7165
V l=2 = -2*Zval/r beyond r=  1.7165
V l=3 = -2*Zval/r beyond r=  1.6951
All V_l potentials equal beyond r=  1.7165
This should be close to max(r_c) in ps generation
All pots = -2*Zval/r beyond r=  1.7165

VLOCAL1: 99.0% of the norm of Vloc inside     14.733 Ry
VLOCAL1: 99.9% of the norm of Vloc inside     33.577 Ry
atom: Maximum radius for 4*pi*r*r*local-pseudopot. charge    2.04484
atom: Maximum radius for r*vlocal+2*Zval:    1.75994
GHOST: No ghost state for L =  0
GHOST: No ghost state for L =  1
GHOST: No ghost state for L =  2
GHOST: No ghost state for L =  3

KBgen: Kleinman-Bylander projectors: 
   l= 0   rc=  1.897051   el= -0.693730   Ekb=  4.595746   kbcos=  0.286105
   l= 1   rc=  1.920920   el= -0.265236   Ekb= -2.350715   kbcos= -0.315747
   l= 2   rc=  2.044840   el=  0.002055   Ekb= -0.690767   kbcos= -0.013822
   l= 3   rc=  2.149707   el=  0.003188   Ekb= -0.315358   kbcos= -0.002055

KBgen: Total number of  Kleinman-Bylander projectors:   16
atom: -------------------------------------------------------------------------

atom: SANKEY-TYPE ORBITALS:
atom: Selected multiple-zeta basis: split     

SPLIT: Orbitals with angular momentum L= 0

SPLIT: Basis orbitals for state 2s

SPLIT: PAO cut-off radius determined from an
SPLIT: energy shift=  0.007350 Ry

   izeta = 1
                 lambda =    1.000000
                     rc =    5.422032
                 energy =   -0.686029
                kinetic =    0.576707
    potential(screened) =   -1.262736
       potential(ionic) =   -3.271094

   izeta = 2
                 rmatch =    4.222573
              splitnorm =    0.150000
                 energy =   -0.602132
                kinetic =    0.858975
    potential(screened) =   -1.461107
       potential(ionic) =   -3.582536

SPLIT: Orbitals with angular momentum L= 1

SPLIT: Basis orbitals for state 2p

SPLIT: PAO cut-off radius determined from an
SPLIT: energy shift=  0.007350 Ry

   izeta = 1
                 lambda =    1.000000
                     rc =    6.790259
                 energy =   -0.258578
                kinetic =    1.481412
    potential(screened) =   -1.739989
       potential(ionic) =   -3.657461

   izeta = 2
                 rmatch =    4.608740
              splitnorm =    0.150000
                 energy =   -0.173757
                kinetic =    2.186690
    potential(screened) =   -2.360447
       potential(ionic) =   -4.464260

POLgen: Perturbative polarization orbital with L=  2

POLgen: Polarization orbital for state 2p

   izeta = 1
                     rc =    6.790259
                 energy =    0.684082
                kinetic =    1.471481
    potential(screened) =   -0.787399
       potential(ionic) =   -2.406985
atom: Total number of Sankey-type orbitals: 13

atm_pop: Valence configuration (for local Pseudopot. screening):
 2s( 2.00)                                                            
 2p( 1.00)                                                            
Vna: chval, zval:    3.00000   3.00000

Vna:  Cut-off radius for the neutral-atom potential:   6.790259
comcore: Pseudo-core radius Rcore=  2.122997

atom: _________________________________________________________________________

<basis_specs>
===============================================================================
C                    Z=   6    Mass=  12.010        Charge= 0.17977+309
Lmxo=1 Lmxkb= 3    BasisType=split      Semic=F
L=0  Nsemic=0  Cnfigmx=2
          n=1  nzeta=2  polorb=0
            splnorm:   0.15000    
               vcte:    0.0000    
               rinn:    0.0000    
                rcs:    0.0000      0.0000    
            lambdas:    1.0000      1.0000    
L=1  Nsemic=0  Cnfigmx=2
          n=1  nzeta=2  polorb=1
            splnorm:   0.15000    
               vcte:    0.0000    
               rinn:    0.0000    
                rcs:    0.0000      0.0000    
            lambdas:    1.0000      1.0000    
-------------------------------------------------------------------------------
L=0  Nkbl=1  erefs: 0.17977+309
L=1  Nkbl=1  erefs: 0.17977+309
L=2  Nkbl=1  erefs: 0.17977+309
L=3  Nkbl=1  erefs: 0.17977+309
===============================================================================
</basis_specs>

atom: Called for C                     (Z =   6)

read_vps: Pseudopotential generation method:
read_vps: ATM3      Troullier-Martins                       
Total valence charge:    4.00000

read_vps: Pseudopotential includes a core correction:
read_vps: Pseudo-core for xc-correction

xc_check: Exchange-correlation functional:
xc_check: GGA Perdew, Burke & Ernzerhof 1996
V l=0 = -2*Zval/r beyond r=  1.5227
V l=1 = -2*Zval/r beyond r=  1.5227
V l=2 = -2*Zval/r beyond r=  1.5227
V l=3 = -2*Zval/r beyond r=  1.5038
All V_l potentials equal beyond r=  1.5227
This should be close to max(r_c) in ps generation
All pots = -2*Zval/r beyond r=  1.5227

VLOCAL1: 99.0% of the norm of Vloc inside     18.722 Ry
VLOCAL1: 99.9% of the norm of Vloc inside     42.668 Ry
atom: Maximum radius for 4*pi*r*r*local-pseudopot. charge    1.83678
atom: Maximum radius for r*vlocal+2*Zval:    1.58088
GHOST: No ghost state for L =  0
GHOST: No ghost state for L =  1
GHOST: No ghost state for L =  2
GHOST: No ghost state for L =  3

KBgen: Kleinman-Bylander projectors: 
   l= 0   rc=  1.704034   el= -1.009801   Ekb=  5.335044   kbcos=  0.316824
   l= 1   rc=  1.704034   el= -0.388707   Ekb= -3.785862   kbcos= -0.366464
   l= 2   rc=  1.791422   el=  0.001971   Ekb= -0.970471   kbcos= -0.009212
   l= 3   rc=  1.859892   el=  0.003065   Ekb= -0.399525   kbcos= -0.001223

KBgen: Total number of  Kleinman-Bylander projectors:   16
atom: -------------------------------------------------------------------------

atom: SANKEY-TYPE ORBITALS:
atom: Selected multiple-zeta basis: split     

SPLIT: Orbitals with angular momentum L= 0

SPLIT: Basis orbitals for state 2s

SPLIT: PAO cut-off radius determined from an
SPLIT: energy shift=  0.007350 Ry

   izeta = 1
                 lambda =    1.000000
                     rc =    4.632753
                 energy =   -1.002270
                kinetic =    0.855760
    potential(screened) =   -1.858031
       potential(ionic) =   -5.417575

   izeta = 2
                 rmatch =    3.431921
              splitnorm =    0.150000
                 energy =   -0.867111
                kinetic =    1.300804
    potential(screened) =   -2.167915
       potential(ionic) =   -5.962684

SPLIT: Orbitals with angular momentum L= 1

SPLIT: Basis orbitals for state 2p

SPLIT: PAO cut-off radius determined from an
SPLIT: energy shift=  0.007350 Ry

   izeta = 1
                 lambda =    1.000000
                     rc =    5.658549
                 energy =   -0.381140
                kinetic =    2.399701
    potential(screened) =   -2.780841
       potential(ionic) =   -6.206085

   izeta = 2
                 rmatch =    3.653288
              splitnorm =    0.150000
                 energy =   -0.249149
                kinetic =    3.542762
    potential(screened) =   -3.791911
       potential(ionic) =   -7.581078

POLgen: Perturbative polarization orbital with L=  2

POLgen: Polarization orbital for state 2p

   izeta = 1
                     rc =    5.658549
                 energy =    1.109913
                kinetic =    2.304789
    potential(screened) =   -1.194876
       potential(ionic) =   -4.013592
atom: Total number of Sankey-type orbitals: 13

atm_pop: Valence configuration (for local Pseudopot. screening):
 2s( 2.00)                                                            
 2p( 2.00)                                                            
Vna: chval, zval:    4.00000   4.00000

Vna:  Cut-off radius for the neutral-atom potential:   5.658549
comcore: Pseudo-core radius Rcore=  1.791422

atom: _________________________________________________________________________

prinput: Basis input ----------------------------------------------------------

PAO.BasisType split     

%block ChemicalSpeciesLabel
    1    5 B                       # Species index, atomic number, species label
    2    6 C                       # Species index, atomic number, species label
%endblock ChemicalSpeciesLabel

%block PAO.Basis                 # Define Basis set
B                     2                    # Species label, number of l-shells
 n=2   0   2                         # n, l, Nzeta 
   5.422      4.223   
   1.000      1.000   
 n=2   1   2 P   1                   # n, l, Nzeta, Polarization, NzetaPol
   6.790      4.609   
   1.000      1.000   
C                     2                    # Species label, number of l-shells
 n=2   0   2                         # n, l, Nzeta 
   4.633      3.432   
   1.000      1.000   
 n=2   1   2 P   1                   # n, l, Nzeta, Polarization, NzetaPol
   5.659      3.653   
   1.000      1.000   
%endblock PAO.Basis

prinput: ----------------------------------------------------------------------

coor:   Atomic-coordinates input format  =     Fractional

siesta: Atomic coordinates (Bohr) and species
siesta:     -2.35420  17.38257   0.00000  1        1
siesta:     -0.02582  18.72698   0.00000  1        2
siesta:     -0.02582  21.41544   0.00000  1        3
siesta:      2.30256  22.75985   0.00000  1        4
siesta:      2.30256  25.44831   0.00000  1        5
siesta:     -4.68258  18.72698   0.00000  1        6
siesta:     -4.68258  21.41544   0.00000  1        7
siesta:     -2.35420  22.75985   0.00000  1        8
siesta:     -2.35420  25.44831   0.00000  1        9
siesta:     -7.01096  22.75985   0.00000  1       10
siesta:     -0.02582  26.79272   0.00000  1       11
siesta:     -4.68258  26.79272   0.00000  1       12
siesta:     -0.02582   2.59549   0.00000  2       13
siesta:     -0.02582   5.28395   0.00000  2       14
siesta:     -2.35420  38.89134   0.00000  2       15
siesta:     -2.35420  41.57980   0.00000  2       16
siesta:      2.30256  38.89134   0.00000  2       17
siesta:      2.30256  41.57980   0.00000  2       18
siesta:      4.63094  34.85847   0.00000  2       19
siesta:      4.63094  37.54693   0.00000  2       20
siesta:      6.95932  30.82560   0.00000  2       21
siesta:      6.95932  33.51406   0.00000  2       22
siesta:      9.28770  26.79272   0.00000  2       23
siesta:      9.28770  29.48119   0.00000  2       24
siesta:     -4.68258  34.85847   0.00000  2       25
siesta:     -4.68258  37.54693   0.00000  2       26
siesta:      2.30256   6.62836   0.00000  2       27
siesta:      2.30256   9.31683   0.00000  2       28
siesta:      4.63094  10.66124   0.00000  2       29
siesta:      4.63094  13.34970   0.00000  2       30
siesta:      6.95932  14.69411   0.00000  2       31
siesta:      6.95932  17.38257   0.00000  2       32
siesta:      9.28770  18.72698   0.00000  2       33
siesta:      9.28770  21.41544   0.00000  2       34
siesta:     11.61608  22.75985   0.00000  2       35
siesta:     11.61608  25.44831   0.00000  2       36
siesta:     -2.35420   6.62836   0.00000  2       37
siesta:     -2.35420   9.31683   0.00000  2       38
siesta:     -0.02582  10.66124   0.00000  2       39
siesta:     -0.02582  13.34970   0.00000  2       40
siesta:      2.30256  14.69411   0.00000  2       41
siesta:      2.30256  17.38257   0.00000  2       42
siesta:      4.63094  18.72698   0.00000  2       43
siesta:      4.63094  21.41544   0.00000  2       44
siesta:      6.95932  22.75985   0.00000  2       45
siesta:      6.95932  25.44831   0.00000  2       46
siesta:     -4.68258  10.66124   0.00000  2       47
siesta:     -4.68258  13.34970   0.00000  2       48
siesta:     -2.35420  14.69411   0.00000  2       49
siesta:     -7.01096  14.69411   0.00000  2       50
siesta:     -7.01096  17.38257   0.00000  2       51
siesta:     -9.33934  18.72698   0.00000  2       52
siesta:     -9.33934  21.41544   0.00000  2       53
siesta:     -7.01096  25.44831   0.00000  2       54
siesta:    -11.66772  22.75985   0.00000  2       55
siesta:    -11.66772  25.44831   0.00000  2       56
siesta:     -9.33934  26.79272   0.00000  2       57
siesta:     -9.33934  29.48119   0.00000  2       58
siesta:      4.63094  26.79272   0.00000  2       59
siesta:      4.63094  29.48119   0.00000  2       60
siesta:     -0.02582  29.48119   0.00000  2       61
siesta:     -4.68258  29.48119   0.00000  2       62
siesta:      2.30256  30.82560   0.00000  2       63
siesta:      2.30256  33.51406   0.00000  2       64
siesta:     -2.35420  30.82560   0.00000  2       65
siesta:     -2.35420  33.51406   0.00000  2       66
siesta:     -7.01096  30.82560   0.00000  2       67
siesta:     -7.01096  33.51406   0.00000  2       68
siesta:     -0.02582  34.85847   0.00000  2       69
siesta:     -0.02582  37.54693   0.00000  2       70
siesta:     -0.02582  42.92421   0.00000  2       71
siesta:     -0.02582  45.61267   0.00000  2       72

siesta: System type = slab      

initatomlists: Number of atoms, orbitals, and projectors:     72   936  1152

siesta: ******************** Simulation parameters ****************************
siesta:
siesta: The following are some of the parameters of the simulation.
siesta: A complete list of the parameters used, including default values,
siesta: can be found in file out.fdf
siesta:
redata: Non-Collinear-spin run           =     F
redata: SpinPolarized (Up/Down) run      =     F
redata: Number of spin components        =     1
redata: Long output                      =     F
redata: Number of Atomic Species         =        2
redata: Charge density info will appear in .RHO file
redata: Write Mulliken Pop.              =     NO
redata: Mesh Cutoff                      =   200.0000  Ry
redata: Net charge of the system         =     0.0000 |e|
redata: Max. number of SCF Iter          =      500
redata: SCF convergence failure will abort job
redata: Performing Pulay mixing using    =    10 iterations
redata: Mix DM in first SCF step ?       =     F
redata: Write Pulay info on disk?        =     F
redata: Discard 1st Pulay DM after  kick =     F
redata: New DM Mixing Weight             =     0.0500
redata: New DM Occupancy tolerance       = 0.000000000001
redata: No kicks to SCF
redata: DM Mixing Weight for Kicks       =     0.5000
redata: DM Tolerance for SCF             =     0.000100
redata: Require Energy convergence for SCF =     F
redata: DM Energy tolerance for SCF      =     0.000100 eV
redata: Require Harris convergence for SCF =     F
redata: DM Harris energy tolerance for SCF =     0.000100 eV
redata: Using Saved Data (generic)   =     F
redata: Use continuation files for DM    =     T
redata: Neglect nonoverlap interactions  =     F
redata: Method of Calculation            =     Diagonalization
redata: Divide and Conquer               =     T
redata: Electronic Temperature           =     0.0019  Ry
redata: Fix the spin of the system       =     F
redata: Dynamics option                  =     Verlet MD run
redata: Initial MD time step             =        1
redata:   Final MD time step             =        1
redata: Length of MD time step           =     1.0000  fs
redata: Initial Temperature of MD run    =     0.0000  K
redata: Perform a MD quench              =     F
redata: ***********************************************************************
Total number of electrons:   276.000000
Total ionic charge:   276.000000

* ProcessorY, Blocksize:    3  24

k-point displ. along   1 input, could be:     0.50    0.00
k-point displ. along   2 input, could be:     0.50    0.00
 Kpoints in:          231 . Kpoints trimmed:          231

siesta: k-grid: Number of k-points =   231
siesta: k-grid: Cutoff (effective) =     5.000 Ang
siesta: k-grid: Supercell and displacements
siesta: k-grid:   21   0   0      0.500
siesta: k-grid:    0  21   0      0.500
siesta: k-grid:    0   0   1      0.000
Naive supercell factors:     2    2    2

superc: Internal auxiliary supercell:     2 x     2 x     2  =       8
superc: Number of atoms, orbitals, and projectors:    576   7488   9216

* Maximum dynamic memory allocated =     4 MB

siesta:                 ==============================
                            Begin MD step =      1
                        ==============================

superc: Internal auxiliary supercell:     2 x     2 x     2  =       8
superc: Number of atoms, orbitals, and projectors:    576   7488   9216

outcell: Unit cell vectors (Ang):
       12.804619    7.392750    0.000000
        0.000000   14.785500    0.000000
        0.000000    0.000000   10.000000

outcell: Cell vector modules (Ang)   :   14.785500   14.785500   10.000000
outcell: Cell angles (23,13,12) (deg):     90.0000     90.0000     60.0000
outcell: Cell volume (Ang**3)        :   1893.2269
New_DM. Step:     1
Initializing Density Matrix...

InitMesh: MESH =   120 x   120 x    90 =     1296000
InitMesh: Mesh cutoff (required, used) =   200.000   223.865 Ry

* Maximum dynamic memory allocated =   149 MB

stepf: Fermi-Dirac step function

siesta: Program's energy decomposition (eV):
siesta: Ebs     =     -5684.294633
siesta: Eions   =     16866.330537
siesta: Ena     =      4431.865307
siesta: Ekin    =      5745.320513
siesta: Enl     =       730.791386
siesta: DEna    =        -0.000011
siesta: DUscf   =         0.000000
siesta: DUext   =         0.000000
siesta: Exc     =     -4192.150920
siesta: eta*DQ  =         0.000000
siesta: Emadel  =         0.000000
siesta: Emeta   =         0.000000
siesta: Emolmec =         0.000000
siesta: Ekinion =         0.000000
siesta: Eharris =     -9839.476513
siesta: Etot    =    -10150.504263
siesta: FreeEng =    -10150.504263

siesta: iscf   Eharris(eV)      E_KS(eV)   FreeEng(eV)   dDmax  Ef(eV)
siesta:    1    -9839.4765   -10150.5043   -10150.5043  6.3759 -8.1265
timer: Routine,Calls,Time,% = IterSCF        1    3038.687  99.59
elaps: Routine,Calls,Wall,% = IterSCF        1     253.823  99.58
siesta:    2   -14282.6662    -9137.6749    -9137.7485 17.5956 -3.3037
siesta:    3    -9780.2262   -10007.1622   -10007.2160  3.6736 -6.6202
siesta:    4    -9758.9206    -9849.6929    -9849.6959  1.4559 -5.3204
siesta:    5    -9713.2314    -9770.0198    -9770.0814  0.8179 -5.2826
siesta:    6    -9697.8935    -9732.6465    -9732.6529  0.7170 -5.3419
siesta:    7    -9694.8448    -9728.5844    -9728.6335  0.6913 -5.3279
siesta:    8    -9688.4686    -9715.3301    -9715.3811  0.6621 -5.2688
siesta:    9    -9687.6066    -9705.0465    -9705.0864  0.6029 -5.2608
siesta:   10    -9686.2463    -9695.5597    -9695.6171  0.5436 -5.1798
siesta:   11    -9687.0465    -9675.5759    -9675.6199  0.2730 -5.0188
siesta:   12    -9686.4573    -9666.1045    -9666.1671  0.3204 -5.0219
siesta:   13    -9686.2131    -9660.6840    -9660.7458  0.2949 -4.9358
siesta:   14    -9686.0894    -9663.1339    -9663.1688  0.2634 -4.9450
siesta:   15    -9685.5363    -9663.0172    -9663.0601  0.2101 -4.9857
siesta:   16    -9685.1589    -9668.5231    -9668.5538  0.1457 -5.0512
siesta:   17    -9685.0920    -9672.3952    -9672.4324  0.1358 -5.0632
siesta:   18    -9685.0735    -9677.1749    -9677.2144  0.0857 -5.0686
siesta:   19    -9685.0623    -9678.7416    -9678.7748  0.0701 -5.0710
siesta:   20    -9685.0448    -9681.8015    -9681.8357  0.0456 -5.0819
siesta:   21    -9685.0363    -9682.8094    -9682.8496  0.0352 -5.0830
siesta:   22    -9685.0294    -9684.2194    -9684.2614  0.0212 -5.0826
siesta:   23    -9685.0290    -9685.0049    -9685.0469  0.0071 -5.0792
siesta:   24    -9685.0272    -9684.5492    -9684.5908  0.0079 -5.0731
siesta:   25    -9685.0264    -9684.7486    -9684.7902  0.0083 -5.0723
siesta:   26    -9685.0256    -9684.5811    -9684.6233  0.0091 -5.0719
siesta:   27    -9685.0257    -9684.6215    -9684.6637  0.0079 -5.0734
siesta:   28    -9685.0259    -9684.7000    -9684.7422  0.0073 -5.0738
siesta:   29    -9685.0257    -9684.7782    -9684.8204  0.0071 -5.0740
siesta:   30    -9685.0259    -9684.6005    -9684.6428  0.0066 -5.0737
siesta:   31    -9685.0261    -9684.3333    -9684.3753  0.0056 -5.0738
siesta:   32    -9685.0262    -9684.3978    -9684.4396  0.0035 -5.0752
siesta:   33    -9685.0257    -9684.9313    -9684.9730  0.0021 -5.0751
siesta:   34    -9685.0260    -9684.8687    -9684.9106  0.0008 -5.0752
siesta:   35    -9685.0259    -9684.8990    -9684.9405  0.0005 -5.0753
siesta:   36    -9685.0258    -9684.8929    -9684.9344  0.0004 -5.0753
siesta:   37    -9685.0258    -9684.9083    -9684.9498  0.0004 -5.0754
siesta:   38    -9685.0258    -9684.9260    -9684.9676  0.0004 -5.0754
siesta:   39    -9685.0258    -9684.9794    -9685.0209  0.0002 -5.0752
siesta:   40    -9685.0258    -9684.9841    -9685.0256  0.0001 -5.0751
siesta:   41    -9685.0258    -9684.9879    -9685.0295  0.0001 -5.0751
siesta:   42    -9685.0258    -9685.0017    -9685.0432  0.0001 -5.0751
siesta:   43    -9685.0258    -9685.0128    -9685.0544  0.0001 -5.0751
siesta:   44    -9685.0258    -9685.0199    -9685.0614  0.0001 -5.0751

siesta: E_KS(eV) =            -9685.0218

siesta: E_KS - E_eggbox =     -9685.0218

siesta: Atomic forces (eV/Ang):
----------------------------------------
   Tot   -0.105422   -0.075974    0.000000
----------------------------------------
   Max  562.909624
   Res  157.141878    sqrt( Sum f_i^2 / 3N )
----------------------------------------
   Max  562.909624    constrained

Stress-tensor-Voigt (kbar):     -792.41    -2833.24       -0.50       -4.63        0.00        0.00
(Free)E + p*V (eV/cell)    -8256.7860
Target enthalpy (eV/cell)    -9685.0634

siesta: Stress tensor (static) (eV/Ang**3):
        -0.494579   -0.002892    0.000000
        -0.002892   -1.768349    0.000000
         0.000000    0.000000   -0.000315

siesta: Pressure (static):       1208.71800379  kBar

siesta: Stress tensor (total) (eV/Ang**3):
        -0.494579   -0.002892    0.000000
        -0.002892   -1.768349    0.000000
         0.000000    0.000000   -0.000315

siesta: Pressure (total):       1208.71800379  kBar

siesta: Temp_ion =       0.000 K

* Maximum dynamic memory allocated =   162 MB
Computing bands...

siesta: Program's energy decomposition (eV):
siesta: Ebs     =     -4353.924511
siesta: Eions   =     16866.330537
siesta: Ena     =      4431.865307
siesta: Ekin    =      8683.583975
siesta: Enl     =      -883.056062
siesta: DEna    =      -792.413315
siesta: DUscf   =       104.406999
siesta: DUext   =         0.000000
siesta: Exc     =     -4363.078174
siesta: eta*DQ  =         0.000000
siesta: Emadel  =         0.000000
siesta: Emeta   =         0.000000
siesta: Emolmec =         0.000000
siesta: Ekinion =         0.000000
siesta: Eharris =     -9685.025786
siesta: Etot    =     -9685.021806
siesta: FreeEng =     -9685.063366

siesta: Final energy (eV):
siesta:  Band Struct. =   -4353.924511
siesta:       Kinetic =    8683.583975
siesta:       Hartree =   28553.051542
siesta:    Ext. field =       0.000000
siesta:   Exch.-corr. =   -4363.078174
siesta:  Ion-electron =  -65499.003850
siesta:       Ion-ion =   22940.424701
siesta:       Ekinion =       0.000000
siesta:         Total =   -9685.021806

siesta: Atomic forces (eV/Ang):
siesta:      1  -15.564224   -3.002357    0.000000
siesta:      2    0.764690  408.272747    0.000000
siesta:      3   -0.414575   -0.538191    0.000000
siesta:      4    3.849166   -2.487595    0.000000
siesta:      5    3.450281    2.778510    0.000000
siesta:      6   -2.230474   -2.942775    0.000000
siesta:      7    1.530000   -0.566990    0.000000
siesta:      8   -0.465027    0.124930    0.000000
siesta:      9    1.307114   -0.046874    0.000000
siesta:     10   -3.223130    3.095411    0.000000
siesta:     11   -0.578043    3.963709    0.000000
siesta:     12   -3.944355    2.110132    0.000000
siesta:     13   -0.331155  550.913442    0.000000
siesta:     14   -0.032011 -127.320312    0.000000
siesta:     15    1.773553  126.602313    0.000000
siesta:     16  -17.372947 -552.534952    0.000000
siesta:     17   -1.523398  126.833145    0.000000
siesta:     18   15.773087 -548.801868    0.000000
siesta:     19   27.044686    5.488594    0.000000
siesta:     20   34.027832 -549.229555    0.000000
siesta:     21    2.035703    0.315395    0.000000
siesta:     22   -2.514954    1.801974    0.000000
siesta:     23    2.235896    1.607071    0.000000
siesta:     24   -0.873787    0.527774    0.000000
siesta:     25  -26.971524    5.536955    0.000000
siesta:     26  -33.804525 -549.069995    0.000000
siesta:     27   14.235295  547.285798    0.000000
siesta:     28   -2.407183 -126.936545    0.000000
siesta:     29   31.927388  548.625376    0.000000
siesta:     30   26.852823   -4.408850    0.000000
siesta:     31   -2.767106   -2.105942    0.000000
siesta:     32    2.675146   -0.374608    0.000000
siesta:     33   -1.366260   -0.395062    0.000000
siesta:     34    2.454370   -1.610571    0.000000
siesta:     35   -0.229919    7.487352    0.000000
siesta:     36   -0.127499   -7.428081    0.000000
siesta:     37  -15.011877  546.818381    0.000000
siesta:     38    2.433300 -126.363401    0.000000
siesta:     39    0.202345  545.372832    0.000000
siesta:     40   -0.661567 -124.103272    0.000000
siesta:     41   24.883841  558.264338    0.000000
siesta:     42   22.203050   -2.601794    0.000000
siesta:     43   -0.773820    1.769688    0.000000
siesta:     44    2.424137   -1.844409    0.000000
siesta:     45    0.084528    0.315760    0.000000
siesta:     46    0.257579   -0.211625    0.000000
siesta:     47  -32.130472  548.953239    0.000000
siesta:     48  -26.306695   -4.351055    0.000000
siesta:     49  -23.510693  555.300344    0.000000
siesta:     50    2.695659   -1.223763    0.000000
siesta:     51   -7.072854   -2.613081    0.000000
siesta:     52    2.080626   -0.301144    0.000000
siesta:     53   -6.863992   -3.985521    0.000000
siesta:     54   -2.345380    1.547588    0.000000
siesta:     55    0.720791    7.042340    0.000000
siesta:     56   -0.087754   -6.990399    0.000000
siesta:     57   -2.780495    1.425032    0.000000
siesta:     58    1.330511    0.435710    0.000000
siesta:     59    2.481489    1.943444    0.000000
siesta:     60   -0.478759   -2.160640    0.000000
siesta:     61    0.025258 -562.909624    0.000000
siesta:     62    1.576329    1.799275    0.000000
siesta:     63   21.209047    5.274410    0.000000
siesta:     64   24.267895 -556.707680    0.000000
siesta:     65  -21.296576    5.631526    0.000000
siesta:     66  -23.983580 -556.277232    0.000000
siesta:     67   -2.320146    0.767535    0.000000
siesta:     68    2.343152    1.572083    0.000000
siesta:     69    0.337573  125.622137    0.000000
siesta:     70    0.018660 -543.075005    0.000000
siesta:     71   -3.447511  126.992579    0.000000
siesta:     72    2.196043 -404.774077    0.000000
siesta: ----------------------------------------
siesta:    Tot   -0.105422   -0.075974    0.000000

siesta: Stress tensor (static) (eV/Ang**3):
siesta:    -0.494579   -0.002892    0.000000
siesta:    -0.002892   -1.768349    0.000000
siesta:     0.000000    0.000000   -0.000315

siesta: Cell volume =       1893.226884 Ang**3

siesta: Pressure (static):
siesta:                Solid            Molecule  Units
siesta:           0.00821653          0.12186943  Ry/Bohr**3
siesta:           0.75441428         11.18963666  eV/Ang**3
siesta:        1208.71800379      17927.96817799  kBar
(Free)E+ p_basis*V_orbitals  =       -9650.534307
(Free)Eharris+ p_basis*V_orbitals  =       -9650.540207

siesta: Electric dipole (a.u.)  =    0.000000    0.000000    0.000000
siesta: Electric dipole (Debye) =    0.000000    0.000000    0.000000

* Maximum dynamic memory allocated : Node    0 =   162 MB
* Maximum dynamic memory allocated : Node    1 =    66 MB
* Maximum dynamic memory allocated : Node    2 =    67 MB
* Maximum dynamic memory allocated : Node    3 =   150 MB
* Maximum dynamic memory allocated : Node    4 =   159 MB
* Maximum dynamic memory allocated : Node    5 =    58 MB
* Maximum dynamic memory allocated : Node    6 =    59 MB
* Maximum dynamic memory allocated : Node    7 =   150 MB
* Maximum dynamic memory allocated : Node    8 =   154 MB
* Maximum dynamic memory allocated : Node    9 =    62 MB
* Maximum dynamic memory allocated : Node   10 =    64 MB
* Maximum dynamic memory allocated : Node   11 =   146 MB

* Maximum memory occured during matrixMtoO                    

timer: CPU execution times:
timer:  Routine       Calls   Time/call    Tot.time        %
timer:  siesta            1  130285.077  130285.077   100.00
timer:  Setup             1       3.326       3.326     0.00
timer:  bands             3     226.222     678.665     0.52
timer:  writewave         1       0.022       0.022     0.00
timer:  KSV_init          1       0.005       0.005     0.00
timer:  IterMD            1  129596.127  129596.127    99.47
timer:  hsparse           1       0.282       0.282     0.00
timer:  overlap           1       6.752       6.752     0.01
timer:  IterSCF          44    2942.053  129450.325    99.36
timer:  kinefsm           2       3.440       6.879     0.01
timer:  nlefsm            2      19.594      39.188     0.03
timer:  DHSCF            45      76.238    3430.688     2.63
timer:  DHSCF1            1       1.190       1.190     0.00
timer:  DHSCF2            1      31.810      31.810     0.02
timer:  REORD           362       0.002       0.825     0.00
timer:  POISON           46       0.449      20.640     0.02
timer:  DHSCF3           45      74.895    3370.287     2.59
timer:  rhoofd           45      16.518     743.326     0.57
timer:  cellXC           45       2.435     109.565     0.08
timer:  vmat             45      36.836    1657.610     1.27
timer:  MolMec            2       0.000       0.000     0.00
timer:  diagon           44    2864.667  126045.347    96.75
timer:  c-eigval      10285       5.586   57451.683    44.10
timer:  c-buildHS     10285       0.035     364.655     0.28
timer:  cdiag         20449       5.689  116341.398    89.30
timer:  cdiag1        20449       0.261    5345.590     4.10
timer:  cdiag2        20449       1.832   37463.364    28.75
timer:  cdiag3        20449       3.379   69092.362    53.03
timer:  cdiag4        20449       0.087    1780.328     1.37
timer:  c-eigvec      10164       5.859   59552.899    45.71
timer:  c-buildD      10164       0.951    9664.241     7.42
timer:  DHSCF4            1      27.127      27.127     0.02
timer:  dfscf             1      25.047      25.047     0.02
timer:  overfsm           1       0.326       0.326     0.00
timer:  optical           1       6.356       6.356     0.00
  

elaps: ELAPSED times:
elaps:  Routine       Calls   Time/call    Tot.time        %
elaps:  siesta            1   10882.548   10882.548   100.00
elaps:  Setup             1       0.281       0.281     0.00
elaps:  bands             3      18.912      56.735     0.52
elaps:  writewave         1       0.002       0.002     0.00
elaps:  KSV_init          1       0.000       0.000     0.00
elaps:  IterMD            1   10824.997   10824.997    99.47
elaps:  hsparse           1       0.028       0.028     0.00
elaps:  overlap           1       0.712       0.712     0.01
elaps:  IterSCF          44     245.746   10812.817    99.36
elaps:  kinefsm           2       0.364       0.729     0.01
elaps:  nlefsm            2       1.668       3.335     0.03
elaps:  DHSCF            45       6.414     288.618     2.65
elaps:  DHSCF1            1       0.101       0.101     0.00
elaps:  DHSCF2            1       2.656       2.656     0.02
elaps:  REORD           362       0.000       0.108     0.00
elaps:  POISON           46       0.038       1.742     0.02
elaps:  DHSCF3           45       6.257     281.557     2.59
elaps:  rhoofd           45       2.791     125.579     1.15
elaps:  cellXC           45       0.203       9.129     0.08
elaps:  vmat             45       3.078     138.495     1.27
elaps:  MolMec            2       0.000       0.000     0.00
elaps:  diagon           44     239.286   10528.570    96.75
elaps:  c-eigval      10285       0.467    4798.803    44.10
elaps:  c-buildHS     10285       0.004      37.060     0.34
elaps:  cdiag         20449       0.472    9653.529    88.71
elaps:  cdiag1        20449       0.021     436.471     4.01
elaps:  cdiag2        20449       0.153    3132.046    28.78
elaps:  cdiag3        20449       0.283    5779.290    53.11
elaps:  cdiag4        20449       0.007     143.667     1.32
elaps:  c-eigvec      10164       0.484    4921.893    45.23
elaps:  c-buildD      10164       0.085     859.404     7.90
elaps:  DHSCF4            1       4.258       4.258     0.04
elaps:  dfscf             1       4.006       4.006     0.04
elaps:  overfsm           1       0.031       0.031     0.00
elaps:  optical           1       0.000       0.000     0.00
  
>> End of run:   5-MAY-2016  11:51:26
