Siesta Version:                                        siesta-3.2-pl-3
Architecture  : x86_64-unknown-linux-gnu--unknown
Compiler flags: mpiifort -g -O2 -fPIC -xSSE4.1 -fp-model source -shared-intel 
PARALLEL version

* Running on    8 nodes in parallel
>> Start of run:  29-APR-2016  20:29:41

                           ***********************       
                           *  WELCOME TO SIESTA  *       
                           ***********************       

reinit: Reading from standard input
************************** Dump of input data file ****************************
#(1) General system descriptors
SystemName            GRP_doping    # Descriptive name of the system
SystemLabel           GRP_doping    # Short name for naming files
%include STRUCT.fdf
%include KPT.fdf
%include BASIS.fdf
#%include TS.fdf # for transiesta calculation
#(4) DFT, Grid, SCF
XC.functional         GGA           # LDA or GGA (default = LDA)
XC.authors            PBE           # CA (Ceperley-Aldr) = PZ
                                    #    (Perdew-Zunger) - LDA - Default
                                    # PW92 (Perdew-Wang-92) - LDA
                                    # PBE (Perdew-Burke-Ernzerhof) - GGA
MeshCutoff            200.000000    Ry      # Default: 50.0 Ry ~ 0.444 Bohr
                                    #         100.0 Ry ~ 0.314 Bohr
MaxSCFIterations      500           # Default: 50
DM.MixingWeight       0.05          # Default: 0.25
DM.NumberPulay        10            # Default: 0
DM.PulayOnFile        F             # SystemLabel.P1, SystemLabel.P2
DM.Tolerance          1.d-4         # Default: 1.d-4
DM.UseSaveDM          .true.        # because of the bug
SCFMustConverge       .true.
NeglNonOverlapInt     F             # Default: F
#(5) Eigenvalue problem: order-N or diagonalization
SolutionMethod        Diagon        # or Transiesta
ElectronicTemperature 300.0 K       # Default: 300.0 K
#(6) Molecular dynamics and relaxations
#MD.TypeOfRun          CG            # Type of dynamics:
#MD.VariableCell       F
#MD.NumCGsteps         0           # 0 for single-point / 100 for gopt
#MD.MaxCGDispl         0.2 Bohr      # Default: 0.2 Bohr
#MD.MaxForceTol        0.02 eV/Ang   # Default: 0.04 eV/Ang
#MD.MaxStressTol       1.0 GPa       # Default: 1.0 GPa
# Geometry Constraints
#%block GeometryConstraints
#	position from 1 to 44
#%endblock GeometryConstraints
BandLinesScale   pi/a
%block BandLines
 1   0.00000000  0.00000000  0.00000000
50   0.00000000  0.07809418  0.00000000
50   0.04509075  0.07809242  0.00000000
20   0.00000000  0.00000000  0.00000000
%endblock BandLines
************************** End of input data file *****************************

reinit: -----------------------------------------------------------------------
reinit: System Name: GRP_doping
reinit: -----------------------------------------------------------------------
reinit: System Label: GRP_doping                                                  
reinit: -----------------------------------------------------------------------

initatom: Reading input for the pseudopotentials and atomic orbitals ----------
 Species number:            1  Label: B Atomic number:           5
 Species number:            2  Label: C Atomic number:           6
Ground state valence configuration:   2s02  2p01
Reading pseudopotential information in formatted form from B.psf

Valence configuration for pseudopotential generation:
2s( 2.00) rc: 1.74
2p( 1.00) rc: 1.74
3d( 0.00) rc: 1.74
4f( 0.00) rc: 1.74
Ground state valence configuration:   2s02  2p02
Reading pseudopotential information in formatted form from C.psf

Valence configuration for pseudopotential generation:
2s( 2.00) rc: 1.54
2p( 2.00) rc: 1.54
3d( 0.00) rc: 1.54
4f( 0.00) rc: 1.54
For B, standard SIESTA heuristics set lmxkb to 3
 (one more than the basis l, including polarization orbitals).
Use PS.lmax or PS.KBprojectors blocks to override.
For C, standard SIESTA heuristics set lmxkb to 3
 (one more than the basis l, including polarization orbitals).
Use PS.lmax or PS.KBprojectors blocks to override.

<basis_specs>
===============================================================================
B                    Z=   5    Mass=  10.810        Charge= 0.17977+309
Lmxo=1 Lmxkb= 3    BasisType=split      Semic=F
L=0  Nsemic=0  Cnfigmx=2
          n=1  nzeta=2  polorb=0
            splnorm:   0.15000    
               vcte:    0.0000    
               rinn:    0.0000    
                rcs:    0.0000      0.0000    
            lambdas:    1.0000      1.0000    
L=1  Nsemic=0  Cnfigmx=2
          n=1  nzeta=2  polorb=1
            splnorm:   0.15000    
               vcte:    0.0000    
               rinn:    0.0000    
                rcs:    0.0000      0.0000    
            lambdas:    1.0000      1.0000    
-------------------------------------------------------------------------------
L=0  Nkbl=1  erefs: 0.17977+309
L=1  Nkbl=1  erefs: 0.17977+309
L=2  Nkbl=1  erefs: 0.17977+309
L=3  Nkbl=1  erefs: 0.17977+309
===============================================================================
</basis_specs>

atom: Called for B                     (Z =   5)

read_vps: Pseudopotential generation method:
read_vps: ATM3      Troullier-Martins                       
Total valence charge:    3.00000

read_vps: Pseudopotential includes a core correction:
read_vps: Pseudo-core for xc-correction

xc_check: Exchange-correlation functional:
xc_check: GGA Perdew, Burke & Ernzerhof 1996
V l=0 = -2*Zval/r beyond r=  1.7165
V l=1 = -2*Zval/r beyond r=  1.7165
V l=2 = -2*Zval/r beyond r=  1.7165
V l=3 = -2*Zval/r beyond r=  1.6951
All V_l potentials equal beyond r=  1.7165
This should be close to max(r_c) in ps generation
All pots = -2*Zval/r beyond r=  1.7165

VLOCAL1: 99.0% of the norm of Vloc inside     14.733 Ry
VLOCAL1: 99.9% of the norm of Vloc inside     33.577 Ry
atom: Maximum radius for 4*pi*r*r*local-pseudopot. charge    2.04484
atom: Maximum radius for r*vlocal+2*Zval:    1.75994
GHOST: No ghost state for L =  0
GHOST: No ghost state for L =  1
GHOST: No ghost state for L =  2
GHOST: No ghost state for L =  3

KBgen: Kleinman-Bylander projectors: 
   l= 0   rc=  1.897051   el= -0.693730   Ekb=  4.595746   kbcos=  0.286105
   l= 1   rc=  1.920920   el= -0.265236   Ekb= -2.350715   kbcos= -0.315747
   l= 2   rc=  2.044840   el=  0.002055   Ekb= -0.690767   kbcos= -0.013822
   l= 3   rc=  2.149707   el=  0.003188   Ekb= -0.315358   kbcos= -0.002055

KBgen: Total number of  Kleinman-Bylander projectors:   16
atom: -------------------------------------------------------------------------

atom: SANKEY-TYPE ORBITALS:
atom: Selected multiple-zeta basis: split     

SPLIT: Orbitals with angular momentum L= 0

SPLIT: Basis orbitals for state 2s

SPLIT: PAO cut-off radius determined from an
SPLIT: energy shift=  0.007350 Ry

   izeta = 1
                 lambda =    1.000000
                     rc =    5.422032
                 energy =   -0.686029
                kinetic =    0.576707
    potential(screened) =   -1.262736
       potential(ionic) =   -3.271094

   izeta = 2
                 rmatch =    4.222573
              splitnorm =    0.150000
                 energy =   -0.602132
                kinetic =    0.858975
    potential(screened) =   -1.461107
       potential(ionic) =   -3.582536

SPLIT: Orbitals with angular momentum L= 1

SPLIT: Basis orbitals for state 2p

SPLIT: PAO cut-off radius determined from an
SPLIT: energy shift=  0.007350 Ry

   izeta = 1
                 lambda =    1.000000
                     rc =    6.790259
                 energy =   -0.258578
                kinetic =    1.481412
    potential(screened) =   -1.739989
       potential(ionic) =   -3.657461

   izeta = 2
                 rmatch =    4.608740
              splitnorm =    0.150000
                 energy =   -0.173757
                kinetic =    2.186690
    potential(screened) =   -2.360447
       potential(ionic) =   -4.464260

POLgen: Perturbative polarization orbital with L=  2

POLgen: Polarization orbital for state 2p

   izeta = 1
                     rc =    6.790259
                 energy =    0.684082
                kinetic =    1.471481
    potential(screened) =   -0.787399
       potential(ionic) =   -2.406985
atom: Total number of Sankey-type orbitals: 13

atm_pop: Valence configuration (for local Pseudopot. screening):
 2s( 2.00)                                                            
 2p( 1.00)                                                            
Vna: chval, zval:    3.00000   3.00000

Vna:  Cut-off radius for the neutral-atom potential:   6.790259
comcore: Pseudo-core radius Rcore=  2.122997

atom: _________________________________________________________________________

<basis_specs>
===============================================================================
C                    Z=   6    Mass=  12.010        Charge= 0.17977+309
Lmxo=1 Lmxkb= 3    BasisType=split      Semic=F
L=0  Nsemic=0  Cnfigmx=2
          n=1  nzeta=2  polorb=0
            splnorm:   0.15000    
               vcte:    0.0000    
               rinn:    0.0000    
                rcs:    0.0000      0.0000    
            lambdas:    1.0000      1.0000    
L=1  Nsemic=0  Cnfigmx=2
          n=1  nzeta=2  polorb=1
            splnorm:   0.15000    
               vcte:    0.0000    
               rinn:    0.0000    
                rcs:    0.0000      0.0000    
            lambdas:    1.0000      1.0000    
-------------------------------------------------------------------------------
L=0  Nkbl=1  erefs: 0.17977+309
L=1  Nkbl=1  erefs: 0.17977+309
L=2  Nkbl=1  erefs: 0.17977+309
L=3  Nkbl=1  erefs: 0.17977+309
===============================================================================
</basis_specs>

atom: Called for C                     (Z =   6)

read_vps: Pseudopotential generation method:
read_vps: ATM3      Troullier-Martins                       
Total valence charge:    4.00000

read_vps: Pseudopotential includes a core correction:
read_vps: Pseudo-core for xc-correction

xc_check: Exchange-correlation functional:
xc_check: GGA Perdew, Burke & Ernzerhof 1996
V l=0 = -2*Zval/r beyond r=  1.5227
V l=1 = -2*Zval/r beyond r=  1.5227
V l=2 = -2*Zval/r beyond r=  1.5227
V l=3 = -2*Zval/r beyond r=  1.5038
All V_l potentials equal beyond r=  1.5227
This should be close to max(r_c) in ps generation
All pots = -2*Zval/r beyond r=  1.5227

VLOCAL1: 99.0% of the norm of Vloc inside     18.722 Ry
VLOCAL1: 99.9% of the norm of Vloc inside     42.668 Ry
atom: Maximum radius for 4*pi*r*r*local-pseudopot. charge    1.83678
atom: Maximum radius for r*vlocal+2*Zval:    1.58088
GHOST: No ghost state for L =  0
GHOST: No ghost state for L =  1
GHOST: No ghost state for L =  2
GHOST: No ghost state for L =  3

KBgen: Kleinman-Bylander projectors: 
   l= 0   rc=  1.704034   el= -1.009801   Ekb=  5.335044   kbcos=  0.316824
   l= 1   rc=  1.704034   el= -0.388707   Ekb= -3.785862   kbcos= -0.366464
   l= 2   rc=  1.791422   el=  0.001971   Ekb= -0.970471   kbcos= -0.009212
   l= 3   rc=  1.859892   el=  0.003065   Ekb= -0.399525   kbcos= -0.001223

KBgen: Total number of  Kleinman-Bylander projectors:   16
atom: -------------------------------------------------------------------------

atom: SANKEY-TYPE ORBITALS:
atom: Selected multiple-zeta basis: split     

SPLIT: Orbitals with angular momentum L= 0

SPLIT: Basis orbitals for state 2s

SPLIT: PAO cut-off radius determined from an
SPLIT: energy shift=  0.007350 Ry

   izeta = 1
                 lambda =    1.000000
                     rc =    4.632753
                 energy =   -1.002270
                kinetic =    0.855760
    potential(screened) =   -1.858031
       potential(ionic) =   -5.417575

   izeta = 2
                 rmatch =    3.431921
              splitnorm =    0.150000
                 energy =   -0.867111
                kinetic =    1.300804
    potential(screened) =   -2.167915
       potential(ionic) =   -5.962684

SPLIT: Orbitals with angular momentum L= 1

SPLIT: Basis orbitals for state 2p

SPLIT: PAO cut-off radius determined from an
SPLIT: energy shift=  0.007350 Ry

   izeta = 1
                 lambda =    1.000000
                     rc =    5.658549
                 energy =   -0.381140
                kinetic =    2.399701
    potential(screened) =   -2.780841
       potential(ionic) =   -6.206085

   izeta = 2
                 rmatch =    3.653288
              splitnorm =    0.150000
                 energy =   -0.249149
                kinetic =    3.542762
    potential(screened) =   -3.791911
       potential(ionic) =   -7.581078

POLgen: Perturbative polarization orbital with L=  2

POLgen: Polarization orbital for state 2p

   izeta = 1
                     rc =    5.658549
                 energy =    1.109913
                kinetic =    2.304789
    potential(screened) =   -1.194876
       potential(ionic) =   -4.013592
atom: Total number of Sankey-type orbitals: 13

atm_pop: Valence configuration (for local Pseudopot. screening):
 2s( 2.00)                                                            
 2p( 2.00)                                                            
Vna: chval, zval:    4.00000   4.00000

Vna:  Cut-off radius for the neutral-atom potential:   5.658549
comcore: Pseudo-core radius Rcore=  1.791422

atom: _________________________________________________________________________

prinput: Basis input ----------------------------------------------------------

PAO.BasisType split     

%block ChemicalSpeciesLabel
    1    5 B                       # Species index, atomic number, species label
    2    6 C                       # Species index, atomic number, species label
%endblock ChemicalSpeciesLabel

%block PAO.Basis                 # Define Basis set
B                     2                    # Species label, number of l-shells
 n=2   0   2                         # n, l, Nzeta 
   5.422      4.223   
   1.000      1.000   
 n=2   1   2 P   1                   # n, l, Nzeta, Polarization, NzetaPol
   6.790      4.609   
   1.000      1.000   
C                     2                    # Species label, number of l-shells
 n=2   0   2                         # n, l, Nzeta 
   4.633      3.432   
   1.000      1.000   
 n=2   1   2 P   1                   # n, l, Nzeta, Polarization, NzetaPol
   5.659      3.653   
   1.000      1.000   
%endblock PAO.Basis

prinput: ----------------------------------------------------------------------

coor:   Atomic-coordinates input format  =     Fractional

siesta: Atomic coordinates (Bohr) and species
siesta:      4.63094  34.85847   0.00000  1        1
siesta:      6.95932  30.82560   0.00000  1        2
siesta:      6.95932  33.51406   0.00000  1        3
siesta:      6.95932  22.75985   0.00000  1        4
siesta:      6.95932  25.44831   0.00000  1        5
siesta:     -0.02582  21.41544   0.00000  1        6
siesta:      2.30256  22.75985   0.00000  1        7
siesta:      2.30256  25.44831   0.00000  1        8
siesta:     -2.35420  22.75985   0.00000  1        9
siesta:     -2.35420  25.44831   0.00000  1       10
siesta:      4.63094  26.79272   0.00000  1       11
siesta:      4.63094  29.48119   0.00000  1       12
siesta:     -0.02582  26.79272   0.00000  1       13
siesta:     -0.02582  29.48119   0.00000  1       14
siesta:      2.30256  30.82560   0.00000  1       15
siesta:      2.30256  33.51406   0.00000  1       16
siesta:     -2.35420  30.82560   0.00000  1       17
siesta:     -2.35420  33.51406   0.00000  1       18
siesta:     -0.02582  34.85847   0.00000  1       19
siesta:     -0.02582   2.59549   0.00000  2       20
siesta:     -0.02582   5.28395   0.00000  2       21
siesta:     -2.35420  38.89134   0.00000  2       22
siesta:     -2.35420  41.57980   0.00000  2       23
siesta:      2.30256  38.89134   0.00000  2       24
siesta:      2.30256  41.57980   0.00000  2       25
siesta:      4.63094  37.54693   0.00000  2       26
siesta:      9.28770  26.79272   0.00000  2       27
siesta:      9.28770  29.48119   0.00000  2       28
siesta:     -4.68258  34.85847   0.00000  2       29
siesta:     -4.68258  37.54693   0.00000  2       30
siesta:      2.30256   6.62836   0.00000  2       31
siesta:      2.30256   9.31683   0.00000  2       32
siesta:      4.63094  10.66124   0.00000  2       33
siesta:      4.63094  13.34970   0.00000  2       34
siesta:      6.95932  14.69411   0.00000  2       35
siesta:      6.95932  17.38257   0.00000  2       36
siesta:      9.28770  18.72698   0.00000  2       37
siesta:      9.28770  21.41544   0.00000  2       38
siesta:     11.61608  22.75985   0.00000  2       39
siesta:     11.61608  25.44831   0.00000  2       40
siesta:     -2.35420   6.62836   0.00000  2       41
siesta:     -2.35420   9.31683   0.00000  2       42
siesta:     -0.02582  10.66124   0.00000  2       43
siesta:     -0.02582  13.34970   0.00000  2       44
siesta:      2.30256  14.69411   0.00000  2       45
siesta:      2.30256  17.38257   0.00000  2       46
siesta:      4.63094  18.72698   0.00000  2       47
siesta:      4.63094  21.41544   0.00000  2       48
siesta:     -4.68258  10.66124   0.00000  2       49
siesta:     -4.68258  13.34970   0.00000  2       50
siesta:     -2.35420  14.69411   0.00000  2       51
siesta:     -2.35420  17.38257   0.00000  2       52
siesta:     -0.02582  18.72698   0.00000  2       53
siesta:     -7.01096  14.69411   0.00000  2       54
siesta:     -7.01096  17.38257   0.00000  2       55
siesta:     -4.68258  18.72698   0.00000  2       56
siesta:     -4.68258  21.41544   0.00000  2       57
siesta:     -9.33934  18.72698   0.00000  2       58
siesta:     -9.33934  21.41544   0.00000  2       59
siesta:     -7.01096  22.75985   0.00000  2       60
siesta:     -7.01096  25.44831   0.00000  2       61
siesta:    -11.66772  22.75985   0.00000  2       62
siesta:    -11.66772  25.44831   0.00000  2       63
siesta:     -9.33934  26.79272   0.00000  2       64
siesta:     -9.33934  29.48119   0.00000  2       65
siesta:     -4.68258  26.79272   0.00000  2       66
siesta:     -4.68258  29.48119   0.00000  2       67
siesta:     -7.01096  30.82560   0.00000  2       68
siesta:     -7.01096  33.51406   0.00000  2       69
siesta:     -0.02582  37.54693   0.00000  2       70
siesta:     -0.02582  42.92421   0.00000  2       71
siesta:     -0.02582  45.61267   0.00000  2       72

siesta: System type = slab      

initatomlists: Number of atoms, orbitals, and projectors:     72   936  1152

siesta: ******************** Simulation parameters ****************************
siesta:
siesta: The following are some of the parameters of the simulation.
siesta: A complete list of the parameters used, including default values,
siesta: can be found in file out.fdf
siesta:
redata: Non-Collinear-spin run           =     F
redata: SpinPolarized (Up/Down) run      =     F
redata: Number of spin components        =     1
redata: Long output                      =     F
redata: Number of Atomic Species         =        2
redata: Charge density info will appear in .RHO file
redata: Write Mulliken Pop.              =     NO
redata: Mesh Cutoff                      =   200.0000  Ry
redata: Net charge of the system         =     0.0000 |e|
redata: Max. number of SCF Iter          =      500
redata: SCF convergence failure will abort job
redata: Performing Pulay mixing using    =    10 iterations
redata: Mix DM in first SCF step ?       =     F
redata: Write Pulay info on disk?        =     F
redata: Discard 1st Pulay DM after  kick =     F
redata: New DM Mixing Weight             =     0.0500
redata: New DM Occupancy tolerance       = 0.000000000001
redata: No kicks to SCF
redata: DM Mixing Weight for Kicks       =     0.5000
redata: DM Tolerance for SCF             =     0.000100
redata: Require Energy convergence for SCF =     F
redata: DM Energy tolerance for SCF      =     0.000100 eV
redata: Require Harris convergence for SCF =     F
redata: DM Harris energy tolerance for SCF =     0.000100 eV
redata: Using Saved Data (generic)   =     F
redata: Use continuation files for DM    =     T
redata: Neglect nonoverlap interactions  =     F
redata: Method of Calculation            =     Diagonalization
redata: Divide and Conquer               =     T
redata: Electronic Temperature           =     0.0019  Ry
redata: Fix the spin of the system       =     F
redata: Dynamics option                  =     Verlet MD run
redata: Initial MD time step             =        1
redata:   Final MD time step             =        1
redata: Length of MD time step           =     1.0000  fs
redata: Initial Temperature of MD run    =     0.0000  K
redata: Perform a MD quench              =     F
redata: ***********************************************************************
Total number of electrons:   269.000000
Total ionic charge:   269.000000

* ProcessorY, Blocksize:    2  24

k-point displ. along   1 input, could be:     0.50    0.00
k-point displ. along   2 input, could be:     0.50    0.00
 Kpoints in:          231 . Kpoints trimmed:          231

siesta: k-grid: Number of k-points =   231
siesta: k-grid: Cutoff (effective) =     5.000 Ang
siesta: k-grid: Supercell and displacements
siesta: k-grid:   21   0   0      0.500
siesta: k-grid:    0  21   0      0.500
siesta: k-grid:    0   0   1      0.000
Naive supercell factors:     2    2    2

superc: Internal auxiliary supercell:     2 x     2 x     2  =       8
superc: Number of atoms, orbitals, and projectors:    576   7488   9216

* Maximum dynamic memory allocated =     4 MB

siesta:                 ==============================
                            Begin MD step =      1
                        ==============================

superc: Internal auxiliary supercell:     2 x     2 x     2  =       8
superc: Number of atoms, orbitals, and projectors:    576   7488   9216

outcell: Unit cell vectors (Ang):
       12.804619    7.392750    0.000000
        0.000000   14.785500    0.000000
        0.000000    0.000000   10.000000

outcell: Cell vector modules (Ang)   :   14.785500   14.785500   10.000000
outcell: Cell angles (23,13,12) (deg):     90.0000     90.0000     60.0000
outcell: Cell volume (Ang**3)        :   1893.2269
New_DM. Step:     1
Initializing Density Matrix...

InitMesh: MESH =   120 x   120 x    90 =     1296000
InitMesh: Mesh cutoff (required, used) =   200.000   223.865 Ry

* Maximum dynamic memory allocated =   223 MB

stepf: Fermi-Dirac step function

siesta: Program's energy decomposition (eV):
siesta: Ebs     =     -5560.074515
siesta: Eions   =     15969.933558
siesta: Ena     =      4265.191392
siesta: Ekin    =      5376.155659
siesta: Enl     =       799.020537
siesta: DEna    =        -0.000008
siesta: DUscf   =         0.000000
siesta: DUext   =         0.000000
siesta: Exc     =     -4200.396735
siesta: eta*DQ  =         0.000000
siesta: Emadel  =         0.000000
siesta: Emeta   =         0.000000
siesta: Emolmec =         0.000000
siesta: Ekinion =         0.000000
siesta: Eharris =     -9473.638816
siesta: Etot    =     -9729.962714
siesta: FreeEng =     -9729.962714

siesta: iscf   Eharris(eV)      E_KS(eV)   FreeEng(eV)   dDmax  Ef(eV)
siesta:    1    -9473.6388    -9729.9627    -9729.9627  6.4672 -8.3283
timer: Routine,Calls,Time,% = IterSCF        1    3484.010  99.69
elaps: Routine,Calls,Wall,% = IterSCF        1     436.359  99.69
siesta:    2   -14516.7047    -8700.9371    -8701.0012 18.1919 -4.3150
siesta:    3    -9426.1098    -9577.9605    -9578.0031  3.3941 -6.4070
siesta:    4    -9404.9199    -9460.4928    -9460.5400  1.5179 -5.5247
siesta:    5    -9336.0376    -9376.6802    -9376.7327  1.1504 -5.3858
siesta:    6    -9323.2841    -9337.7944    -9337.8400  0.9501 -5.2089
siesta:    7    -9319.6616    -9330.2671    -9330.3123  0.7733 -5.2456
siesta:    8    -9316.3098    -9323.5994    -9323.6537  0.7480 -5.2556
siesta:    9    -9314.1731    -9308.5257    -9308.5872  0.5657 -5.1489
siesta:   10    -9314.1653    -9298.5261    -9298.5832  0.4116 -5.0715
siesta:   11    -9313.4987    -9291.8788    -9291.9405  0.2186 -5.0513
siesta:   12    -9313.4858    -9286.9192    -9286.9767  0.2696 -5.0193
siesta:   13    -9313.2337    -9286.4717    -9286.5371  0.1902 -5.0306
siesta:   14    -9312.6251    -9293.3153    -9293.3798  0.1035 -5.0860
siesta:   15    -9312.3714    -9298.2391    -9298.3063  0.0576 -5.1116
siesta:   16    -9312.3148    -9302.4082    -9302.4749  0.0415 -5.1191
siesta:   17    -9312.2736    -9303.3073    -9303.3769  0.0315 -5.1176
siesta:   18    -9312.2477    -9305.2811    -9305.3514  0.0265 -5.1185
siesta:   19    -9312.2394    -9307.1442    -9307.2155  0.0208 -5.1208
siesta:   20    -9312.2362    -9308.9295    -9309.0007  0.0166 -5.1257
siesta:   21    -9312.2343    -9310.5086    -9310.5793  0.0173 -5.1263
siesta:   22    -9312.2324    -9311.0348    -9311.1055  0.0115 -5.1243
siesta:   23    -9312.2303    -9311.8051    -9311.8751  0.0085 -5.1232
siesta:   24    -9312.2299    -9312.0651    -9312.1360  0.0065 -5.1221
siesta:   25    -9312.2296    -9312.2217    -9312.2928  0.0046 -5.1208
siesta:   26    -9312.2296    -9312.2626    -9312.3336  0.0033 -5.1199
siesta:   27    -9312.2296    -9312.3122    -9312.3832  0.0018 -5.1201
siesta:   28    -9312.2296    -9312.3299    -9312.4008  0.0010 -5.1200
siesta:   29    -9312.2295    -9312.2875    -9312.3585  0.0006 -5.1198
siesta:   30    -9312.2295    -9312.2516    -9312.3225  0.0004 -5.1197
siesta:   31    -9312.2295    -9312.2546    -9312.3255  0.0003 -5.1197
siesta:   32    -9312.2295    -9312.2612    -9312.3321  0.0002 -5.1197
siesta:   33    -9312.2295    -9312.2457    -9312.3166  0.0001 -5.1197
siesta:   34    -9312.2295    -9312.2336    -9312.3046  0.0001 -5.1198
siesta:   35    -9312.2295    -9312.2290    -9312.3000  0.0001 -5.1198
siesta:   36    -9312.2295    -9312.2304    -9312.3013  0.0001 -5.1198

siesta: E_KS(eV) =            -9312.2311

siesta: E_KS - E_eggbox =     -9312.2311

siesta: Atomic forces (eV/Ang):
----------------------------------------
   Tot   -0.160319   -0.181175    0.000000
----------------------------------------
   Max  561.676670
   Res  148.657945    sqrt( Sum f_i^2 / 3N )
----------------------------------------
   Max  561.676670    constrained

Stress-tensor-Voigt (kbar):     -779.10    -2716.64       -0.64       -3.36        0.00        0.00
(Free)E + p*V (eV/cell)    -7935.1398
Target enthalpy (eV/cell)    -9312.3020

siesta: Stress tensor (static) (eV/Ang**3):
        -0.486271   -0.002099    0.000000
        -0.002099   -1.695575    0.000000
         0.000000    0.000000   -0.000400

siesta: Pressure (static):       1165.46037626  kBar

siesta: Stress tensor (total) (eV/Ang**3):
        -0.486271   -0.002099    0.000000
        -0.002099   -1.695575    0.000000
         0.000000    0.000000   -0.000400

siesta: Pressure (total):       1165.46037626  kBar

siesta: Temp_ion =       0.000 K

* Maximum dynamic memory allocated =   240 MB
Computing bands...

siesta: Program's energy decomposition (eV):
siesta: Ebs     =     -4174.900660
siesta: Eions   =     15969.933558
siesta: Ena     =      4265.191392
siesta: Ekin    =      8260.833911
siesta: Enl     =      -813.178522
siesta: DEna    =      -789.739132
siesta: DUscf   =       105.645945
siesta: DUext   =         0.000000
siesta: Exc     =     -4371.051119
siesta: eta*DQ  =         0.000000
siesta: Emadel  =         0.000000
siesta: Emeta   =         0.000000
siesta: Emolmec =         0.000000
siesta: Ekinion =         0.000000
siesta: Eharris =     -9312.229540
siesta: Etot    =     -9312.231083
siesta: FreeEng =     -9312.302019

siesta: Final energy (eV):
siesta:  Band Struct. =   -4174.900660
siesta:       Kinetic =    8260.833911
siesta:       Hartree =   26897.601476
siesta:    Ext. field =       0.000000
siesta:   Exch.-corr. =   -4371.051119
siesta:  Ion-electron =  -61754.149954
siesta:       Ion-ion =   21654.534602
siesta:       Ekinion =       0.000000
siesta:         Total =   -9312.231083

siesta: Atomic forces (eV/Ang):
siesta:      1   16.405070    3.693688    0.000000
siesta:      2    8.202409    0.664582    0.000000
siesta:      3    3.256185    2.980000    0.000000
siesta:      4   -0.933449   -4.814335    0.000000
siesta:      5    3.114482    2.615727    0.000000
siesta:      6   -0.802105   -3.713470    0.000000
siesta:      7    4.650235   -3.528147    0.000000
siesta:      8   -0.858556    1.723798    0.000000
siesta:      9   -2.871765   -3.409034    0.000000
siesta:     10   -3.763141    2.616869    0.000000
siesta:     11   -1.587299   -0.903040    0.000000
siesta:     12   -0.537158    1.345670    0.000000
siesta:     13    1.022632    0.099762    0.000000
siesta:     14   -1.026174 -410.944479    0.000000
siesta:     15   15.116605    0.591146    0.000000
siesta:     16   14.629261 -399.893135    0.000000
siesta:     17  -18.857166   -1.047184    0.000000
siesta:     18  -16.321124 -400.157841    0.000000
siesta:     19    0.844487  104.332309    0.000000
siesta:     20   -0.393393  406.779311    0.000000
siesta:     21    0.251160 -124.070372    0.000000
siesta:     22    0.734962  125.544424    0.000000
siesta:     23  -15.832690 -549.195576    0.000000
siesta:     24   -0.305495  124.688843    0.000000
siesta:     25   16.052678 -549.289596    0.000000
siesta:     26   26.131736 -548.932989    0.000000
siesta:     27    7.404133    4.698433    0.000000
siesta:     28    0.456360   -3.115926    0.000000
siesta:     29  -25.078884   -0.351538    0.000000
siesta:     30  -28.540427 -550.920477    0.000000
siesta:     31   15.594863  404.673538    0.000000
siesta:     32    1.052123 -126.597529    0.000000
siesta:     33   37.791364  555.454897    0.000000
siesta:     34   26.588123   -6.391859    0.000000
siesta:     35   -2.367979   -1.470672    0.000000
siesta:     36    1.907152   -1.057781    0.000000
siesta:     37   -1.467205    0.357326    0.000000
siesta:     38    6.403545   -4.018250    0.000000
siesta:     39    0.122572    6.905575    0.000000
siesta:     40   -0.094176   -6.794330    0.000000
siesta:     41  -15.437534  407.399999    0.000000
siesta:     42    1.482799 -126.109912    0.000000
siesta:     43    1.406330  549.088156    0.000000
siesta:     44    0.193338 -128.386645    0.000000
siesta:     45   21.497302  557.903183    0.000000
siesta:     46   21.779218   -5.999628    0.000000
siesta:     47   -1.181935    2.342588    0.000000
siesta:     48   -0.240032   -3.606284    0.000000
siesta:     49  -35.705996  552.250014    0.000000
siesta:     50  -27.533230   -6.117551    0.000000
siesta:     51  -22.644396  557.146805    0.000000
siesta:     52  -21.859781   -5.941738    0.000000
siesta:     53    0.838962  561.676670    0.000000
siesta:     54    2.624306   -1.710264    0.000000
siesta:     55   -2.041268   -0.226118    0.000000
siesta:     56    0.619047    2.228031    0.000000
siesta:     57   -3.047064   -1.600695    0.000000
siesta:     58    0.864662   -0.302480    0.000000
siesta:     59   -1.771810   -2.008872    0.000000
siesta:     60   -0.030580   -0.143602    0.000000
siesta:     61    0.236558   -0.375282    0.000000
siesta:     62   -0.687775    6.426467    0.000000
siesta:     63    0.570708   -6.645956    0.000000
siesta:     64   -2.660800    1.920485    0.000000
siesta:     65    1.364849    0.685776    0.000000
siesta:     66   -3.177029    1.469344    0.000000
siesta:     67   -1.351109   -2.233122    0.000000
siesta:     68   -2.984281   -0.108016    0.000000
siesta:     69    2.324739    2.268563    0.000000
siesta:     70    0.275909 -539.226556    0.000000
siesta:     71    0.446938  129.906899    0.000000
siesta:     72   -0.425313 -551.299774    0.000000
siesta: ----------------------------------------
siesta:    Tot   -0.160319   -0.181175    0.000000

siesta: Stress tensor (static) (eV/Ang**3):
siesta:    -0.486271   -0.002099    0.000000
siesta:    -0.002099   -1.695575    0.000000
siesta:     0.000000    0.000000   -0.000400

siesta: Cell volume =       1893.226884 Ang**3

siesta: Pressure (static):
siesta:                Solid            Molecule  Units
siesta:           0.00792248          0.11413939  Ry/Bohr**3
siesta:           0.72741529         10.47989078  eV/Ang**3
siesta:        1165.46037626      16790.81762167  kBar
(Free)E+ p_basis*V_orbitals  =       -9275.561287
(Free)Eharris+ p_basis*V_orbitals  =       -9275.560422

siesta: Electric dipole (a.u.)  =    0.000000    0.000000    0.000000
siesta: Electric dipole (Debye) =    0.000000    0.000000    0.000000

* Maximum dynamic memory allocated : Node    0 =   240 MB
* Maximum dynamic memory allocated : Node    1 =    83 MB
* Maximum dynamic memory allocated : Node    2 =    84 MB
* Maximum dynamic memory allocated : Node    3 =   226 MB
* Maximum dynamic memory allocated : Node    4 =   225 MB
* Maximum dynamic memory allocated : Node    5 =    82 MB
* Maximum dynamic memory allocated : Node    6 =    85 MB
* Maximum dynamic memory allocated : Node    7 =   208 MB

* Maximum memory occured during matrixMtoO                    

timer: CPU execution times:
timer:  Routine       Calls   Time/call    Tot.time        %
timer:  siesta            1  124721.196  124721.196   100.00
timer:  Setup             1       2.697       2.697     0.00
timer:  bands             3     244.439     733.318     0.59
timer:  writewave         1       0.020       0.020     0.00
timer:  KSV_init          1       0.003       0.003     0.00
timer:  IterMD            1  123979.960  123979.960    99.41
timer:  hsparse           1       0.515       0.515     0.00
timer:  overlap           1       7.210       7.210     0.01
timer:  IterSCF          36    3438.128  123772.603    99.24
timer:  kinefsm           2       3.746       7.491     0.01
timer:  nlefsm            2      19.803      39.606     0.03
timer:  DHSCF            37     107.320    3970.855     3.18
timer:  DHSCF1            1       0.993       0.993     0.00
timer:  DHSCF2            1      43.051      43.051     0.03
timer:  REORD           298       0.005       1.461     0.00
timer:  POISON           38       0.882      33.498     0.03
timer:  DHSCF3           37     105.016    3885.577     3.12
timer:  rhoofd           37      23.601     873.238     0.70
timer:  cellXC           37       3.218     119.076     0.10
timer:  vmat             37      49.148    1818.467     1.46
timer:  MolMec            2       0.000       0.000     0.00
timer:  diagon           36    3330.182  119886.552    96.12
timer:  c-eigval       8437       6.045   51001.123    40.89
timer:  c-buildHS      8437       0.053     444.563     0.36
timer:  cdiag         16753       6.197  103823.675    83.24
timer:  cdiag1        16753       0.387    6481.877     5.20
timer:  cdiag2        16753       1.771   29666.761    23.79
timer:  cdiag3        16753       3.738   62629.758    50.22
timer:  cdiag4        16753       0.159    2655.352     2.13
timer:  c-eigvec       8316       6.449   53627.959    43.00
timer:  c-buildD       8316       1.918   15947.886    12.79
timer:  DHSCF4            1      40.546      40.546     0.03
timer:  dfscf             1      37.773      37.773     0.03
timer:  overfsm           1       0.456       0.456     0.00
timer:  optical           1       4.563       4.563     0.00
  

elaps: ELAPSED times:
elaps:  Routine       Calls   Time/call    Tot.time        %
elaps:  siesta            1   15620.115   15620.115   100.00
elaps:  Setup             1       0.338       0.338     0.00
elaps:  bands             3      30.630      91.890     0.59
elaps:  writewave         1       0.002       0.002     0.00
elaps:  KSV_init          1       0.000       0.000     0.00
elaps:  IterMD            1   15527.284   15527.284    99.41
elaps:  hsparse           1       0.070       0.070     0.00
elaps:  overlap           1       0.906       0.906     0.01
elaps:  IterSCF          36     430.592   15501.316    99.24
elaps:  kinefsm           2       0.472       0.944     0.01
elaps:  nlefsm            2       2.501       5.002     0.03
elaps:  DHSCF            37      13.579     502.412     3.22
elaps:  DHSCF1            1       0.127       0.127     0.00
elaps:  DHSCF2            1       5.389       5.389     0.03
elaps:  REORD           298       0.001       0.198     0.00
elaps:  POISON           38       0.111       4.215     0.03
elaps:  DHSCF3           37      13.153     486.659     3.12
elaps:  rhoofd           37       6.460     239.034     1.53
elaps:  cellXC           37       0.403      14.902     0.10
elaps:  vmat             37       6.156     227.757     1.46
elaps:  MolMec            2       0.000       0.000     0.00
elaps:  diagon           36     417.085   15015.056    96.13
elaps:  c-eigval       8437       0.757    6387.263    40.89
elaps:  c-buildHS      8437       0.007      62.993     0.40
elaps:  cdiag         16753       0.769   12883.853    82.48
elaps:  cdiag1        16753       0.049     815.972     5.22
elaps:  cdiag2        16753       0.222    3716.097    23.79
elaps:  cdiag3        16753       0.469    7854.343    50.28
elaps:  cdiag4        16753       0.020     326.885     2.09
elaps:  c-eigvec       8316       0.795    6609.403    42.31
elaps:  c-buildD       8316       0.253    2102.903    13.46
elaps:  DHSCF4            1      10.154      10.154     0.07
elaps:  dfscf             1       9.603       9.603     0.06
elaps:  overfsm           1       0.060       0.060     0.00
elaps:  optical           1       0.000       0.000     0.00
  
>> End of run:  30-APR-2016   0:50:01
