Siesta Version:                                        siesta-3.2-pl-3
Architecture  : x86_64-unknown-linux-gnu--unknown
Compiler flags: mpiifort -g -O2 -fPIC -xSSE4.1 -fp-model source -shared-intel 
PARALLEL version

* Running on    8 nodes in parallel
>> Start of run:  24-APR-2016  20:02:18

                           ***********************       
                           *  WELCOME TO SIESTA  *       
                           ***********************       

reinit: Reading from standard input
************************** Dump of input data file ****************************
#(1) General system descriptors
SystemName            GRP_doping    # Descriptive name of the system
SystemLabel           GRP_doping    # Short name for naming files
%include STRUCT.fdf
%include KPT.fdf
%include BASIS.fdf
#%include TS.fdf # for transiesta calculation
#(4) DFT, Grid, SCF
XC.functional         GGA           # LDA or GGA (default = LDA)
XC.authors            PBE           # CA (Ceperley-Aldr) = PZ
                                    #    (Perdew-Zunger) - LDA - Default
                                    # PW92 (Perdew-Wang-92) - LDA
                                    # PBE (Perdew-Burke-Ernzerhof) - GGA
MeshCutoff            200.000000    Ry      # Default: 50.0 Ry ~ 0.444 Bohr
                                    #         100.0 Ry ~ 0.314 Bohr
MaxSCFIterations      500           # Default: 50
DM.MixingWeight       0.05          # Default: 0.25
DM.NumberPulay        10            # Default: 0
DM.PulayOnFile        F             # SystemLabel.P1, SystemLabel.P2
DM.Tolerance          1.d-4         # Default: 1.d-4
DM.UseSaveDM          .true.        # because of the bug
SCFMustConverge       .true.
NeglNonOverlapInt     F             # Default: F
#(5) Eigenvalue problem: order-N or diagonalization
SolutionMethod        Diagon        # or Transiesta
ElectronicTemperature 300.0 K       # Default: 300.0 K
#(6) Molecular dynamics and relaxations
#MD.TypeOfRun          CG            # Type of dynamics:
#MD.VariableCell       F
#MD.NumCGsteps         0           # 0 for single-point / 100 for gopt
#MD.MaxCGDispl         0.2 Bohr      # Default: 0.2 Bohr
#MD.MaxForceTol        0.02 eV/Ang   # Default: 0.04 eV/Ang
#MD.MaxStressTol       1.0 GPa       # Default: 1.0 GPa
# Geometry Constraints
#%block GeometryConstraints
#	position from 1 to 44
#%endblock GeometryConstraints
BandLinesScale   pi/a
%block BandLines
 1   0.00000000  0.00000000  0.00000000
50   0.00000000  0.07809418  0.00000000
50   0.04509075  0.07809242  0.00000000
20   0.00000000  0.00000000  0.00000000
%endblock BandLines
************************** End of input data file *****************************

reinit: -----------------------------------------------------------------------
reinit: System Name: GRP_doping
reinit: -----------------------------------------------------------------------
reinit: System Label: GRP_doping                                                  
reinit: -----------------------------------------------------------------------

initatom: Reading input for the pseudopotentials and atomic orbitals ----------
 Species number:            1  Label: B Atomic number:           5
 Species number:            2  Label: C Atomic number:           6
Ground state valence configuration:   2s02  2p01
Reading pseudopotential information in formatted form from B.psf

Valence configuration for pseudopotential generation:
2s( 2.00) rc: 1.74
2p( 1.00) rc: 1.74
3d( 0.00) rc: 1.74
4f( 0.00) rc: 1.74
Ground state valence configuration:   2s02  2p02
Reading pseudopotential information in formatted form from C.psf

Valence configuration for pseudopotential generation:
2s( 2.00) rc: 1.54
2p( 2.00) rc: 1.54
3d( 0.00) rc: 1.54
4f( 0.00) rc: 1.54
For B, standard SIESTA heuristics set lmxkb to 3
 (one more than the basis l, including polarization orbitals).
Use PS.lmax or PS.KBprojectors blocks to override.
For C, standard SIESTA heuristics set lmxkb to 3
 (one more than the basis l, including polarization orbitals).
Use PS.lmax or PS.KBprojectors blocks to override.

<basis_specs>
===============================================================================
B                    Z=   5    Mass=  10.810        Charge= 0.17977+309
Lmxo=1 Lmxkb= 3    BasisType=split      Semic=F
L=0  Nsemic=0  Cnfigmx=2
          n=1  nzeta=2  polorb=0
            splnorm:   0.15000    
               vcte:    0.0000    
               rinn:    0.0000    
                rcs:    0.0000      0.0000    
            lambdas:    1.0000      1.0000    
L=1  Nsemic=0  Cnfigmx=2
          n=1  nzeta=2  polorb=1
            splnorm:   0.15000    
               vcte:    0.0000    
               rinn:    0.0000    
                rcs:    0.0000      0.0000    
            lambdas:    1.0000      1.0000    
-------------------------------------------------------------------------------
L=0  Nkbl=1  erefs: 0.17977+309
L=1  Nkbl=1  erefs: 0.17977+309
L=2  Nkbl=1  erefs: 0.17977+309
L=3  Nkbl=1  erefs: 0.17977+309
===============================================================================
</basis_specs>

atom: Called for B                     (Z =   5)

read_vps: Pseudopotential generation method:
read_vps: ATM3      Troullier-Martins                       
Total valence charge:    3.00000

read_vps: Pseudopotential includes a core correction:
read_vps: Pseudo-core for xc-correction

xc_check: Exchange-correlation functional:
xc_check: GGA Perdew, Burke & Ernzerhof 1996
V l=0 = -2*Zval/r beyond r=  1.7165
V l=1 = -2*Zval/r beyond r=  1.7165
V l=2 = -2*Zval/r beyond r=  1.7165
V l=3 = -2*Zval/r beyond r=  1.6951
All V_l potentials equal beyond r=  1.7165
This should be close to max(r_c) in ps generation
All pots = -2*Zval/r beyond r=  1.7165

VLOCAL1: 99.0% of the norm of Vloc inside     14.733 Ry
VLOCAL1: 99.9% of the norm of Vloc inside     33.577 Ry
atom: Maximum radius for 4*pi*r*r*local-pseudopot. charge    2.04484
atom: Maximum radius for r*vlocal+2*Zval:    1.75994
GHOST: No ghost state for L =  0
GHOST: No ghost state for L =  1
GHOST: No ghost state for L =  2
GHOST: No ghost state for L =  3

KBgen: Kleinman-Bylander projectors: 
   l= 0   rc=  1.897051   el= -0.693730   Ekb=  4.595746   kbcos=  0.286105
   l= 1   rc=  1.920920   el= -0.265236   Ekb= -2.350715   kbcos= -0.315747
   l= 2   rc=  2.044840   el=  0.002055   Ekb= -0.690767   kbcos= -0.013822
   l= 3   rc=  2.149707   el=  0.003188   Ekb= -0.315358   kbcos= -0.002055

KBgen: Total number of  Kleinman-Bylander projectors:   16
atom: -------------------------------------------------------------------------

atom: SANKEY-TYPE ORBITALS:
atom: Selected multiple-zeta basis: split     

SPLIT: Orbitals with angular momentum L= 0

SPLIT: Basis orbitals for state 2s

SPLIT: PAO cut-off radius determined from an
SPLIT: energy shift=  0.007350 Ry

   izeta = 1
                 lambda =    1.000000
                     rc =    5.422032
                 energy =   -0.686029
                kinetic =    0.576707
    potential(screened) =   -1.262736
       potential(ionic) =   -3.271094

   izeta = 2
                 rmatch =    4.222573
              splitnorm =    0.150000
                 energy =   -0.602132
                kinetic =    0.858975
    potential(screened) =   -1.461107
       potential(ionic) =   -3.582536

SPLIT: Orbitals with angular momentum L= 1

SPLIT: Basis orbitals for state 2p

SPLIT: PAO cut-off radius determined from an
SPLIT: energy shift=  0.007350 Ry

   izeta = 1
                 lambda =    1.000000
                     rc =    6.790259
                 energy =   -0.258578
                kinetic =    1.481412
    potential(screened) =   -1.739989
       potential(ionic) =   -3.657461

   izeta = 2
                 rmatch =    4.608740
              splitnorm =    0.150000
                 energy =   -0.173757
                kinetic =    2.186690
    potential(screened) =   -2.360447
       potential(ionic) =   -4.464260

POLgen: Perturbative polarization orbital with L=  2

POLgen: Polarization orbital for state 2p

   izeta = 1
                     rc =    6.790259
                 energy =    0.684082
                kinetic =    1.471481
    potential(screened) =   -0.787399
       potential(ionic) =   -2.406985
atom: Total number of Sankey-type orbitals: 13

atm_pop: Valence configuration (for local Pseudopot. screening):
 2s( 2.00)                                                            
 2p( 1.00)                                                            
Vna: chval, zval:    3.00000   3.00000

Vna:  Cut-off radius for the neutral-atom potential:   6.790259
comcore: Pseudo-core radius Rcore=  2.122997

atom: _________________________________________________________________________

<basis_specs>
===============================================================================
C                    Z=   6    Mass=  12.010        Charge= 0.17977+309
Lmxo=1 Lmxkb= 3    BasisType=split      Semic=F
L=0  Nsemic=0  Cnfigmx=2
          n=1  nzeta=2  polorb=0
            splnorm:   0.15000    
               vcte:    0.0000    
               rinn:    0.0000    
                rcs:    0.0000      0.0000    
            lambdas:    1.0000      1.0000    
L=1  Nsemic=0  Cnfigmx=2
          n=1  nzeta=2  polorb=1
            splnorm:   0.15000    
               vcte:    0.0000    
               rinn:    0.0000    
                rcs:    0.0000      0.0000    
            lambdas:    1.0000      1.0000    
-------------------------------------------------------------------------------
L=0  Nkbl=1  erefs: 0.17977+309
L=1  Nkbl=1  erefs: 0.17977+309
L=2  Nkbl=1  erefs: 0.17977+309
L=3  Nkbl=1  erefs: 0.17977+309
===============================================================================
</basis_specs>

atom: Called for C                     (Z =   6)

read_vps: Pseudopotential generation method:
read_vps: ATM3      Troullier-Martins                       
Total valence charge:    4.00000

read_vps: Pseudopotential includes a core correction:
read_vps: Pseudo-core for xc-correction

xc_check: Exchange-correlation functional:
xc_check: GGA Perdew, Burke & Ernzerhof 1996
V l=0 = -2*Zval/r beyond r=  1.5227
V l=1 = -2*Zval/r beyond r=  1.5227
V l=2 = -2*Zval/r beyond r=  1.5227
V l=3 = -2*Zval/r beyond r=  1.5038
All V_l potentials equal beyond r=  1.5227
This should be close to max(r_c) in ps generation
All pots = -2*Zval/r beyond r=  1.5227

VLOCAL1: 99.0% of the norm of Vloc inside     18.722 Ry
VLOCAL1: 99.9% of the norm of Vloc inside     42.668 Ry
atom: Maximum radius for 4*pi*r*r*local-pseudopot. charge    1.83678
atom: Maximum radius for r*vlocal+2*Zval:    1.58088
GHOST: No ghost state for L =  0
GHOST: No ghost state for L =  1
GHOST: No ghost state for L =  2
GHOST: No ghost state for L =  3

KBgen: Kleinman-Bylander projectors: 
   l= 0   rc=  1.704034   el= -1.009801   Ekb=  5.335044   kbcos=  0.316824
   l= 1   rc=  1.704034   el= -0.388707   Ekb= -3.785862   kbcos= -0.366464
   l= 2   rc=  1.791422   el=  0.001971   Ekb= -0.970471   kbcos= -0.009212
   l= 3   rc=  1.859892   el=  0.003065   Ekb= -0.399525   kbcos= -0.001223

KBgen: Total number of  Kleinman-Bylander projectors:   16
atom: -------------------------------------------------------------------------

atom: SANKEY-TYPE ORBITALS:
atom: Selected multiple-zeta basis: split     

SPLIT: Orbitals with angular momentum L= 0

SPLIT: Basis orbitals for state 2s

SPLIT: PAO cut-off radius determined from an
SPLIT: energy shift=  0.007350 Ry

   izeta = 1
                 lambda =    1.000000
                     rc =    4.632753
                 energy =   -1.002270
                kinetic =    0.855760
    potential(screened) =   -1.858031
       potential(ionic) =   -5.417575

   izeta = 2
                 rmatch =    3.431921
              splitnorm =    0.150000
                 energy =   -0.867111
                kinetic =    1.300804
    potential(screened) =   -2.167915
       potential(ionic) =   -5.962684

SPLIT: Orbitals with angular momentum L= 1

SPLIT: Basis orbitals for state 2p

SPLIT: PAO cut-off radius determined from an
SPLIT: energy shift=  0.007350 Ry

   izeta = 1
                 lambda =    1.000000
                     rc =    5.658549
                 energy =   -0.381140
                kinetic =    2.399701
    potential(screened) =   -2.780841
       potential(ionic) =   -6.206085

   izeta = 2
                 rmatch =    3.653288
              splitnorm =    0.150000
                 energy =   -0.249149
                kinetic =    3.542762
    potential(screened) =   -3.791911
       potential(ionic) =   -7.581078

POLgen: Perturbative polarization orbital with L=  2

POLgen: Polarization orbital for state 2p

   izeta = 1
                     rc =    5.658549
                 energy =    1.109913
                kinetic =    2.304789
    potential(screened) =   -1.194876
       potential(ionic) =   -4.013592
atom: Total number of Sankey-type orbitals: 13

atm_pop: Valence configuration (for local Pseudopot. screening):
 2s( 2.00)                                                            
 2p( 2.00)                                                            
Vna: chval, zval:    4.00000   4.00000

Vna:  Cut-off radius for the neutral-atom potential:   5.658549
comcore: Pseudo-core radius Rcore=  1.791422

atom: _________________________________________________________________________

prinput: Basis input ----------------------------------------------------------

PAO.BasisType split     

%block ChemicalSpeciesLabel
    1    5 B                       # Species index, atomic number, species label
    2    6 C                       # Species index, atomic number, species label
%endblock ChemicalSpeciesLabel

%block PAO.Basis                 # Define Basis set
B                     2                    # Species label, number of l-shells
 n=2   0   2                         # n, l, Nzeta 
   5.422      4.223   
   1.000      1.000   
 n=2   1   2 P   1                   # n, l, Nzeta, Polarization, NzetaPol
   6.790      4.609   
   1.000      1.000   
C                     2                    # Species label, number of l-shells
 n=2   0   2                         # n, l, Nzeta 
   4.633      3.432   
   1.000      1.000   
 n=2   1   2 P   1                   # n, l, Nzeta, Polarization, NzetaPol
   5.659      3.653   
   1.000      1.000   
%endblock PAO.Basis

prinput: ----------------------------------------------------------------------

coor:   Atomic-coordinates input format  =     Fractional

siesta: Atomic coordinates (Bohr) and species
siesta:     -2.35420  38.89134   0.00000  1        1
siesta:     -4.68258  34.85847   0.00000  1        2
siesta:     -4.68258  37.54693   0.00000  1        3
siesta:     -4.68258  21.41544   0.00000  1        4
siesta:     -2.35420  22.75985   0.00000  1        5
siesta:     -2.35420  25.44831   0.00000  1        6
siesta:     -9.33934  21.41544   0.00000  1        7
siesta:     -7.01096  22.75985   0.00000  1        8
siesta:     -7.01096  25.44831   0.00000  1        9
siesta:    -11.66772  22.75985   0.00000  1       10
siesta:    -11.66772  25.44831   0.00000  1       11
siesta:     -9.33934  26.79272   0.00000  1       12
siesta:     -9.33934  29.48119   0.00000  1       13
siesta:     -0.02582  26.79272   0.00000  1       14
siesta:     -0.02582  29.48119   0.00000  1       15
siesta:     -4.68258  26.79272   0.00000  1       16
siesta:     -4.68258  29.48119   0.00000  1       17
siesta:     -2.35420  30.82560   0.00000  1       18
siesta:     -2.35420  33.51406   0.00000  1       19
siesta:     -7.01096  30.82560   0.00000  1       20
siesta:     -7.01096  33.51406   0.00000  1       21
siesta:     -0.02582  34.85847   0.00000  1       22
siesta:     -0.02582  37.54693   0.00000  1       23
siesta:     -0.02582   2.59549   0.00000  2       24
siesta:     -0.02582   5.28395   0.00000  2       25
siesta:     -2.35420  41.57980   0.00000  2       26
siesta:      2.30256  38.89134   0.00000  2       27
siesta:      2.30256  41.57980   0.00000  2       28
siesta:      4.63094  34.85847   0.00000  2       29
siesta:      4.63094  37.54693   0.00000  2       30
siesta:      6.95932  30.82560   0.00000  2       31
siesta:      6.95932  33.51406   0.00000  2       32
siesta:      9.28770  26.79272   0.00000  2       33
siesta:      9.28770  29.48119   0.00000  2       34
siesta:      2.30256   6.62836   0.00000  2       35
siesta:      2.30256   9.31683   0.00000  2       36
siesta:      4.63094  10.66124   0.00000  2       37
siesta:      4.63094  13.34970   0.00000  2       38
siesta:      6.95932  14.69411   0.00000  2       39
siesta:      6.95932  17.38257   0.00000  2       40
siesta:      9.28770  18.72698   0.00000  2       41
siesta:      9.28770  21.41544   0.00000  2       42
siesta:     11.61608  22.75985   0.00000  2       43
siesta:     11.61608  25.44831   0.00000  2       44
siesta:     -2.35420   6.62836   0.00000  2       45
siesta:     -2.35420   9.31683   0.00000  2       46
siesta:     -0.02582  10.66124   0.00000  2       47
siesta:     -0.02582  13.34970   0.00000  2       48
siesta:      2.30256  14.69411   0.00000  2       49
siesta:      2.30256  17.38257   0.00000  2       50
siesta:      4.63094  18.72698   0.00000  2       51
siesta:      4.63094  21.41544   0.00000  2       52
siesta:      6.95932  22.75985   0.00000  2       53
siesta:      6.95932  25.44831   0.00000  2       54
siesta:     -4.68258  10.66124   0.00000  2       55
siesta:     -4.68258  13.34970   0.00000  2       56
siesta:     -2.35420  14.69411   0.00000  2       57
siesta:     -2.35420  17.38257   0.00000  2       58
siesta:     -0.02582  18.72698   0.00000  2       59
siesta:     -0.02582  21.41544   0.00000  2       60
siesta:      2.30256  22.75985   0.00000  2       61
siesta:      2.30256  25.44831   0.00000  2       62
siesta:     -7.01096  14.69411   0.00000  2       63
siesta:     -7.01096  17.38257   0.00000  2       64
siesta:     -4.68258  18.72698   0.00000  2       65
siesta:     -9.33934  18.72698   0.00000  2       66
siesta:      4.63094  26.79272   0.00000  2       67
siesta:      4.63094  29.48119   0.00000  2       68
siesta:      2.30256  30.82560   0.00000  2       69
siesta:      2.30256  33.51406   0.00000  2       70
siesta:     -0.02582  42.92421   0.00000  2       71
siesta:     -0.02582  45.61267   0.00000  2       72

siesta: System type = slab      

initatomlists: Number of atoms, orbitals, and projectors:     72   936  1152

siesta: ******************** Simulation parameters ****************************
siesta:
siesta: The following are some of the parameters of the simulation.
siesta: A complete list of the parameters used, including default values,
siesta: can be found in file out.fdf
siesta:
redata: Non-Collinear-spin run           =     F
redata: SpinPolarized (Up/Down) run      =     F
redata: Number of spin components        =     1
redata: Long output                      =     F
redata: Number of Atomic Species         =        2
redata: Charge density info will appear in .RHO file
redata: Write Mulliken Pop.              =     NO
redata: Mesh Cutoff                      =   200.0000  Ry
redata: Net charge of the system         =     0.0000 |e|
redata: Max. number of SCF Iter          =      500
redata: SCF convergence failure will abort job
redata: Performing Pulay mixing using    =    10 iterations
redata: Mix DM in first SCF step ?       =     F
redata: Write Pulay info on disk?        =     F
redata: Discard 1st Pulay DM after  kick =     F
redata: New DM Mixing Weight             =     0.0500
redata: New DM Occupancy tolerance       = 0.000000000001
redata: No kicks to SCF
redata: DM Mixing Weight for Kicks       =     0.5000
redata: DM Tolerance for SCF             =     0.000100
redata: Require Energy convergence for SCF =     F
redata: DM Energy tolerance for SCF      =     0.000100 eV
redata: Require Harris convergence for SCF =     F
redata: DM Harris energy tolerance for SCF =     0.000100 eV
redata: Using Saved Data (generic)   =     F
redata: Use continuation files for DM    =     T
redata: Neglect nonoverlap interactions  =     F
redata: Method of Calculation            =     Diagonalization
redata: Divide and Conquer               =     T
redata: Electronic Temperature           =     0.0019  Ry
redata: Fix the spin of the system       =     F
redata: Dynamics option                  =     Verlet MD run
redata: Initial MD time step             =        1
redata:   Final MD time step             =        1
redata: Length of MD time step           =     1.0000  fs
redata: Initial Temperature of MD run    =     0.0000  K
redata: Perform a MD quench              =     F
redata: ***********************************************************************
Total number of electrons:   265.000000
Total ionic charge:   265.000000

* ProcessorY, Blocksize:    2  24

k-point displ. along   1 input, could be:     0.50    0.00
k-point displ. along   2 input, could be:     0.50    0.00
 Kpoints in:          231 . Kpoints trimmed:          231

siesta: k-grid: Number of k-points =   231
siesta: k-grid: Cutoff (effective) =     5.000 Ang
siesta: k-grid: Supercell and displacements
siesta: k-grid:   21   0   0      0.500
siesta: k-grid:    0  21   0      0.500
siesta: k-grid:    0   0   1      0.000
Naive supercell factors:     2    2    2

superc: Internal auxiliary supercell:     2 x     2 x     2  =       8
superc: Number of atoms, orbitals, and projectors:    576   7488   9216

* Maximum dynamic memory allocated =     4 MB

siesta:                 ==============================
                            Begin MD step =      1
                        ==============================

superc: Internal auxiliary supercell:     2 x     2 x     2  =       8
superc: Number of atoms, orbitals, and projectors:    576   7488   9216

outcell: Unit cell vectors (Ang):
       12.804619    7.392750    0.000000
        0.000000   14.785500    0.000000
        0.000000    0.000000   10.000000

outcell: Cell vector modules (Ang)   :   14.785500   14.785500   10.000000
outcell: Cell angles (23,13,12) (deg):     90.0000     90.0000     60.0000
outcell: Cell volume (Ang**3)        :   1893.2269
New_DM. Step:     1
Initializing Density Matrix...

InitMesh: MESH =   120 x   120 x    90 =     1296000
InitMesh: Mesh cutoff (required, used) =   200.000   223.865 Ry

* Maximum dynamic memory allocated =   238 MB

stepf: Fermi-Dirac step function

siesta: Program's energy decomposition (eV):
siesta: Ebs     =     -5474.306324
siesta: Eions   =     15457.706713
siesta: Ena     =      4172.096174
siesta: Ekin    =      5165.204314
siesta: Enl     =       835.766309
siesta: DEna    =        -0.000007
siesta: DUscf   =         0.000000
siesta: DUext   =         0.000000
siesta: Exc     =     -4204.897389
siesta: eta*DQ  =         0.000000
siesta: Emadel  =         0.000000
siesta: Emeta   =         0.000000
siesta: Emolmec =         0.000000
siesta: Ekinion =         0.000000
siesta: Eharris =     -9256.072894
siesta: Etot    =     -9489.537313
siesta: FreeEng =     -9489.537313

siesta: iscf   Eharris(eV)      E_KS(eV)   FreeEng(eV)   dDmax  Ef(eV)
siesta:    1    -9256.0729    -9489.5373    -9489.5373  7.3652 -8.3973
timer: Routine,Calls,Time,% = IterSCF        1    3495.324  99.69
elaps: Routine,Calls,Wall,% = IterSCF        1     437.764  99.69
siesta:    2   -14270.1338    -8465.9503    -8466.0067 19.9792 -4.9359
siesta:    3    -9215.6926    -9317.8361    -9317.9028  2.7865 -5.7516
siesta:    4    -9187.4851    -9223.8589    -9223.8799  1.4481 -5.2355
siesta:    5    -9121.4692    -9126.7651    -9126.7977  1.2751 -5.2519
siesta:    6    -9105.1399    -9105.5715    -9105.6221  1.1526 -5.0875
siesta:    7    -9098.6718    -9095.8004    -9095.8411  0.8350 -5.2047
siesta:    8    -9096.8571    -9091.1820    -9091.2335  0.7501 -5.2132
siesta:    9    -9093.8430    -9077.7117    -9077.7633  0.7606 -5.2138
siesta:   10    -9093.8811    -9073.0371    -9073.0932  0.3690 -5.1671
siesta:   11    -9092.8922    -9070.4868    -9070.5391  0.2865 -5.1284
siesta:   12    -9093.5974    -9065.2599    -9065.2910  0.2276 -5.0666
siesta:   13    -9092.2643    -9068.5197    -9068.5477  0.1758 -5.0839
siesta:   14    -9091.8492    -9073.3687    -9073.3975  0.1459 -5.1196
siesta:   15    -9091.6961    -9077.8001    -9077.8382  0.1007 -5.1345
siesta:   16    -9091.5062    -9082.8186    -9082.8597  0.2130 -5.1372
siesta:   17    -9091.4543    -9083.3562    -9083.4142  0.1248 -5.1765
siesta:   18    -9091.4150    -9087.0734    -9087.1123  0.1159 -5.1861
siesta:   19    -9091.3951    -9087.2099    -9087.2535  0.0555 -5.1761
siesta:   20    -9091.3788    -9087.3777    -9087.4267  0.0502 -5.1566
siesta:   21    -9091.3829    -9088.6304    -9088.6856  0.0644 -5.1639
siesta:   22    -9091.3753    -9089.7224    -9089.7691  0.0360 -5.1629
siesta:   23    -9091.3709    -9090.3890    -9090.4393  0.0167 -5.1628
siesta:   24    -9091.3660    -9091.4319    -9091.4845  0.0109 -5.1623
siesta:   25    -9091.3658    -9091.4228    -9091.4763  0.0074 -5.1629
siesta:   26    -9091.3661    -9091.3454    -9091.3984  0.0057 -5.1634
siesta:   27    -9091.3653    -9091.3537    -9091.4062  0.0038 -5.1622
siesta:   28    -9091.3658    -9091.3402    -9091.3933  0.0041 -5.1626
siesta:   29    -9091.3654    -9091.3194    -9091.3720  0.0023 -5.1613
siesta:   30    -9091.3654    -9091.3148    -9091.3677  0.0024 -5.1613
siesta:   31    -9091.3655    -9091.3075    -9091.3604  0.0008 -5.1616
siesta:   32    -9091.3656    -9091.3204    -9091.3732  0.0009 -5.1618
siesta:   33    -9091.3655    -9091.3421    -9091.3949  0.0004 -5.1619
siesta:   34    -9091.3655    -9091.3533    -9091.4061  0.0003 -5.1620
siesta:   35    -9091.3655    -9091.3614    -9091.4143  0.0003 -5.1619
siesta:   36    -9091.3655    -9091.3657    -9091.4185  0.0002 -5.1618
siesta:   37    -9091.3655    -9091.3674    -9091.4202  0.0001 -5.1618

siesta: E_KS(eV) =            -9091.3663

siesta: E_KS - E_eggbox =     -9091.3663

siesta: Atomic forces (eV/Ang):
----------------------------------------
   Tot   -0.127857    0.030742    0.000000
----------------------------------------
   Max  563.594549
   Res  143.825576    sqrt( Sum f_i^2 / 3N )
----------------------------------------
   Max  563.594549    constrained

Stress-tensor-Voigt (kbar):     -757.42    -2654.76       -0.69       -0.91        0.00        0.00
(Free)E + p*V (eV/cell)    -7747.1493
Target enthalpy (eV/cell)    -9091.4192

siesta: Stress tensor (static) (eV/Ang**3):
        -0.472742   -0.000566    0.000000
        -0.000566   -1.656953    0.000000
         0.000000    0.000000   -0.000431

siesta: Pressure (static):       1137.62441970  kBar

siesta: Stress tensor (total) (eV/Ang**3):
        -0.472742   -0.000566    0.000000
        -0.000566   -1.656953    0.000000
         0.000000    0.000000   -0.000431

siesta: Pressure (total):       1137.62441970  kBar

siesta: Temp_ion =       0.000 K

* Maximum dynamic memory allocated =   254 MB
Computing bands...

siesta: Program's energy decomposition (eV):
siesta: Ebs     =     -4101.740178
siesta: Eions   =     15457.706713
siesta: Ena     =      4172.096174
siesta: Ekin    =      8016.851461
siesta: Enl     =      -780.253566
siesta: DEna    =      -773.867308
siesta: DUscf   =       104.551137
siesta: DUext   =         0.000000
siesta: Exc     =     -4373.037515
siesta: eta*DQ  =         0.000000
siesta: Emadel  =         0.000000
siesta: Emeta   =         0.000000
siesta: Emolmec =         0.000000
siesta: Ekinion =         0.000000
siesta: Eharris =     -9091.365470
siesta: Etot    =     -9091.366330
siesta: FreeEng =     -9091.419198

siesta: Final energy (eV):
siesta:  Band Struct. =   -4101.740178
siesta:       Kinetic =    8016.851461
siesta:       Hartree =   26442.036135
siesta:    Ext. field =       0.000000
siesta:   Exch.-corr. =   -4373.037515
siesta:  Ion-electron =  -60624.741054
siesta:       Ion-ion =   21447.524642
siesta:       Ekinion =       0.000000
siesta:         Total =   -9091.366330

siesta: Atomic forces (eV/Ang):
siesta:      1    3.879865  105.446432    0.000000
siesta:      2  -15.211624    0.445895    0.000000
siesta:      3  -16.585342 -390.324644    0.000000
siesta:      4    0.200589   -4.845156    0.000000
siesta:      5    4.123749   -2.341570    0.000000
siesta:      6   -1.325265    0.689108    0.000000
siesta:      7   -4.112000   -6.939865    0.000000
siesta:      8    0.493494   -0.315919    0.000000
siesta:      9   -1.004098    0.925331    0.000000
siesta:     10   -5.731052   -2.781924    0.000000
siesta:     11   -5.834111    4.303820    0.000000
siesta:     12   -3.537165    0.738246    0.000000
siesta:     13   -5.191624    1.934508    0.000000
siesta:     14    4.367301   -1.507634    0.000000
siesta:     15    0.416805 -410.508687    0.000000
siesta:     16    1.954151   -0.624121    0.000000
siesta:     17    0.541258    2.245887    0.000000
siesta:     18  -14.484352    0.278618    0.000000
siesta:     19  -17.059272 -400.386469    0.000000
siesta:     20   -2.525756    3.151715    0.000000
siesta:     21   -3.464774    2.673235    0.000000
siesta:     22   -2.829053  108.247773    0.000000
siesta:     23   -9.819059 -385.295270    0.000000
siesta:     24    2.151560  408.986447    0.000000
siesta:     25   -7.793781 -124.512622    0.000000
siesta:     26  -16.339571 -545.123286    0.000000
siesta:     27   -7.350092  117.726577    0.000000
siesta:     28   11.767273 -548.845575    0.000000
siesta:     29   25.878224    5.577964    0.000000
siesta:     30   34.204274 -547.022195    0.000000
siesta:     31    2.111662   -0.191614    0.000000
siesta:     32   -2.256540    2.305805    0.000000
siesta:     33    2.366108    2.012877    0.000000
siesta:     34   -1.081863    0.635014    0.000000
siesta:     35   26.432841  552.231229    0.000000
siesta:     36   -2.104877 -130.878304    0.000000
siesta:     37   36.124600  548.345729    0.000000
siesta:     38   26.633667   -5.519406    0.000000
siesta:     39   -2.552255   -2.212499    0.000000
siesta:     40    1.697421    0.049051    0.000000
siesta:     41   -0.591855   -0.391077    0.000000
siesta:     42    1.784714   -2.003358    0.000000
siesta:     43    0.349455    6.895625    0.000000
siesta:     44   -0.587708   -7.126140    0.000000
siesta:     45  -16.139298  405.032313    0.000000
siesta:     46   -5.091534 -122.972160    0.000000
siesta:     47   -0.271702  404.191537    0.000000
siesta:     48   -1.903311 -127.546305    0.000000
siesta:     49   24.782842  558.246860    0.000000
siesta:     50   22.596648   -5.731526    0.000000
siesta:     51   -1.014263    2.297994    0.000000
siesta:     52    0.475385   -0.504338    0.000000
siesta:     53   -0.210998    0.749042    0.000000
siesta:     54   -0.063655   -0.717865    0.000000
siesta:     55  -34.105541  397.020503    0.000000
siesta:     56  -22.325742    0.198640    0.000000
siesta:     57  -25.912719  562.793523    0.000000
siesta:     58  -21.979985   -6.553539    0.000000
siesta:     59    1.426779  563.594549    0.000000
siesta:     60    2.580280   -0.962209    0.000000
siesta:     61    0.016653   -0.868696    0.000000
siesta:     62    1.874384   -1.199492    0.000000
siesta:     63    2.590333   -2.534497    0.000000
siesta:     64   -2.200828   -2.045110    0.000000
siesta:     65    1.058407   -1.559774    0.000000
siesta:     66    2.405577   -1.585470    0.000000
siesta:     67    0.426945   -0.137621    0.000000
siesta:     68   -0.919697   -1.841321    0.000000
siesta:     69   21.681587    2.575282    0.000000
siesta:     70   13.297814 -553.499427    0.000000
siesta:     71   -0.230301  126.937781    0.000000
siesta:     72   -1.077836 -549.497478    0.000000
siesta: ----------------------------------------
siesta:    Tot   -0.127857    0.030742    0.000000

siesta: Stress tensor (static) (eV/Ang**3):
siesta:    -0.472742   -0.000566    0.000000
siesta:    -0.000566   -1.656953    0.000000
siesta:     0.000000    0.000000   -0.000431

siesta: Cell volume =       1893.226884 Ang**3

siesta: Pressure (static):
siesta:                Solid            Molecule  Units
siesta:           0.00773326          0.10986826  Ry/Bohr**3
siesta:           0.71004164         10.08773015  eV/Ang**3
siesta:        1137.62441970      16162.50023380  kBar
(Free)E+ p_basis*V_orbitals  =       -9053.414653
(Free)Eharris+ p_basis*V_orbitals  =       -9053.412753

siesta: Electric dipole (a.u.)  =    0.000000    0.000000    0.000000
siesta: Electric dipole (Debye) =    0.000000    0.000000    0.000000

* Maximum dynamic memory allocated : Node    0 =   254 MB
* Maximum dynamic memory allocated : Node    1 =    88 MB
* Maximum dynamic memory allocated : Node    2 =    92 MB
* Maximum dynamic memory allocated : Node    3 =   240 MB
* Maximum dynamic memory allocated : Node    4 =   222 MB
* Maximum dynamic memory allocated : Node    5 =    81 MB
* Maximum dynamic memory allocated : Node    6 =    83 MB
* Maximum dynamic memory allocated : Node    7 =   205 MB

* Maximum memory occured during matrixMtoO                    

timer: CPU execution times:
timer:  Routine       Calls   Time/call    Tot.time        %
timer:  siesta            1  127669.383  127669.383   100.00
timer:  Setup             1       2.708       2.708     0.00
timer:  bands             3     243.530     730.589     0.57
timer:  writewave         1       0.018       0.018     0.00
timer:  KSV_init          1       0.000       0.000     0.00
timer:  IterMD            1  126930.874  126930.874    99.42
timer:  hsparse           1       0.519       0.519     0.00
timer:  overlap           1       7.209       7.209     0.01
timer:  IterSCF          37    3424.451  126704.694    99.24
timer:  kinefsm           2       3.753       7.506     0.01
timer:  nlefsm            2      20.660      41.320     0.03
timer:  DHSCF            38     118.770    4513.253     3.54
timer:  DHSCF1            1       0.992       0.992     0.00
timer:  DHSCF2            1      44.183      44.183     0.03
timer:  REORD           306       0.005       1.487     0.00
timer:  POISON           39       0.882      34.415     0.03
timer:  DHSCF3           38     116.449    4425.055     3.47
timer:  rhoofd           38      24.754     940.637     0.74
timer:  cellXC           38       3.329     126.511     0.10
timer:  vmat             38      55.618    2113.469     1.66
timer:  MolMec            2       0.000       0.001     0.00
timer:  diagon           37    3305.069  122287.546    95.78
timer:  c-eigval       8668       6.028   52253.820    40.93
timer:  c-buildHS      8668       0.053     459.930     0.36
timer:  cdiag         17215       6.162  106082.721    83.09
timer:  cdiag1        17215       0.386    6651.037     5.21
timer:  cdiag2        17215       1.771   30490.933    23.88
timer:  cdiag3        17215       3.723   64087.807    50.20
timer:  cdiag4        17215       0.155    2676.580     2.10
timer:  c-eigvec       8547       6.397   54675.687    42.83
timer:  c-buildD       8547       1.877   16045.314    12.57
timer:  DHSCF4            1      42.307      42.307     0.03
timer:  dfscf             1      39.494      39.494     0.03
timer:  overfsm           1       0.462       0.462     0.00
timer:  optical           1       4.553       4.553     0.00
  

elaps: ELAPSED times:
elaps:  Routine       Calls   Time/call    Tot.time        %
elaps:  siesta            1   15988.918   15988.918   100.00
elaps:  Setup             1       0.339       0.339     0.00
elaps:  bands             3      30.516      91.548     0.57
elaps:  writewave         1       0.002       0.002     0.00
elaps:  KSV_init          1       0.000       0.000     0.00
elaps:  IterMD            1   15896.430   15896.430    99.42
elaps:  hsparse           1       0.068       0.068     0.00
elaps:  overlap           1       0.909       0.909     0.01
elaps:  IterSCF          37     428.868   15868.106    99.24
elaps:  kinefsm           2       0.474       0.948     0.01
elaps:  nlefsm            2       2.541       5.083     0.03
elaps:  DHSCF            38      15.025     570.953     3.57
elaps:  DHSCF1            1       0.127       0.127     0.00
elaps:  DHSCF2            1       5.532       5.532     0.03
elaps:  REORD           306       0.001       0.202     0.00
elaps:  POISON           39       0.111       4.320     0.03
elaps:  DHSCF3           38      14.584     554.200     3.47
elaps:  rhoofd           38       7.068     268.565     1.68
elaps:  cellXC           38       0.417      15.833     0.10
elaps:  vmat             38       6.966     264.692     1.66
elaps:  MolMec            2       0.000       0.000     0.00
elaps:  diagon           37     413.923   15315.138    95.79
elaps:  c-eigval       8668       0.755    6544.054    40.93
elaps:  c-buildHS      8668       0.007      64.300     0.40
elaps:  cdiag         17215       0.768   13220.583    82.69
elaps:  cdiag1        17215       0.048     833.162     5.21
elaps:  cdiag2        17215       0.222    3819.194    23.89
elaps:  cdiag3        17215       0.467    8037.149    50.27
elaps:  cdiag4        17215       0.019     327.628     2.05
elaps:  c-eigvec       8547       0.795    6791.367    42.48
elaps:  c-buildD       8547       0.242    2065.268    12.92
elaps:  DHSCF4            1      11.007      11.007     0.07
elaps:  dfscf             1      10.433      10.433     0.07
elaps:  overfsm           1       0.061       0.061     0.00
elaps:  optical           1       0.000       0.000     0.00
  
>> End of run:  25-APR-2016   0:28:47
