Siesta Version:                                        siesta-3.2-pl-3
Architecture  : x86_64-unknown-linux-gnu--unknown
Compiler flags: mpiifort -g -O2 -fPIC -xSSE4.1 -fp-model source -shared-intel 
PARALLEL version

* Running on    8 nodes in parallel
>> Start of run:   8-MAY-2016  12:46:19

                           ***********************       
                           *  WELCOME TO SIESTA  *       
                           ***********************       

reinit: Reading from standard input
************************** Dump of input data file ****************************
#(1) General system descriptors
SystemName            GRP_doping    # Descriptive name of the system
SystemLabel           GRP_doping    # Short name for naming files
%include STRUCT.fdf
%include KPT.fdf
%include BASIS.fdf
#%include TS.fdf # for transiesta calculation
#(4) DFT, Grid, SCF
XC.functional         GGA           # LDA or GGA (default = LDA)
XC.authors            PBE           # CA (Ceperley-Aldr) = PZ
                                    #    (Perdew-Zunger) - LDA - Default
                                    # PW92 (Perdew-Wang-92) - LDA
                                    # PBE (Perdew-Burke-Ernzerhof) - GGA
MeshCutoff            200.000000    Ry      # Default: 50.0 Ry ~ 0.444 Bohr
                                    #         100.0 Ry ~ 0.314 Bohr
MaxSCFIterations      500           # Default: 50
DM.MixingWeight       0.05          # Default: 0.25
DM.NumberPulay        10            # Default: 0
DM.PulayOnFile        F             # SystemLabel.P1, SystemLabel.P2
DM.Tolerance          1.d-4         # Default: 1.d-4
DM.UseSaveDM          .true.        # because of the bug
SCFMustConverge       .true.
NeglNonOverlapInt     F             # Default: F
#(5) Eigenvalue problem: order-N or diagonalization
SolutionMethod        Diagon        # or Transiesta
ElectronicTemperature 300.0 K       # Default: 300.0 K
#(6) Molecular dynamics and relaxations
#MD.TypeOfRun          CG            # Type of dynamics:
#MD.VariableCell       F
#MD.NumCGsteps         0           # 0 for single-point / 100 for gopt
#MD.MaxCGDispl         0.2 Bohr      # Default: 0.2 Bohr
#MD.MaxForceTol        0.02 eV/Ang   # Default: 0.04 eV/Ang
#MD.MaxStressTol       1.0 GPa       # Default: 1.0 GPa
# Geometry Constraints
#%block GeometryConstraints
#	position from 1 to 44
#%endblock GeometryConstraints
BandLinesScale   pi/a
%block BandLines
 1   0.00000000  0.00000000  0.00000000
50   0.00000000  0.07809418  0.00000000
50   0.04509075  0.07809242  0.00000000
20   0.00000000  0.00000000  0.00000000
%endblock BandLines
************************** End of input data file *****************************

reinit: -----------------------------------------------------------------------
reinit: System Name: GRP_doping
reinit: -----------------------------------------------------------------------
reinit: System Label: GRP_doping                                                  
reinit: -----------------------------------------------------------------------

initatom: Reading input for the pseudopotentials and atomic orbitals ----------
 Species number:            1  Label: B Atomic number:           5
 Species number:            2  Label: C Atomic number:           6
Ground state valence configuration:   2s02  2p01
Reading pseudopotential information in formatted form from B.psf

Valence configuration for pseudopotential generation:
2s( 2.00) rc: 1.74
2p( 1.00) rc: 1.74
3d( 0.00) rc: 1.74
4f( 0.00) rc: 1.74
Ground state valence configuration:   2s02  2p02
Reading pseudopotential information in formatted form from C.psf

Valence configuration for pseudopotential generation:
2s( 2.00) rc: 1.54
2p( 2.00) rc: 1.54
3d( 0.00) rc: 1.54
4f( 0.00) rc: 1.54
For B, standard SIESTA heuristics set lmxkb to 3
 (one more than the basis l, including polarization orbitals).
Use PS.lmax or PS.KBprojectors blocks to override.
For C, standard SIESTA heuristics set lmxkb to 3
 (one more than the basis l, including polarization orbitals).
Use PS.lmax or PS.KBprojectors blocks to override.

<basis_specs>
===============================================================================
B                    Z=   5    Mass=  10.810        Charge= 0.17977+309
Lmxo=1 Lmxkb= 3    BasisType=split      Semic=F
L=0  Nsemic=0  Cnfigmx=2
          n=1  nzeta=2  polorb=0
            splnorm:   0.15000    
               vcte:    0.0000    
               rinn:    0.0000    
                rcs:    0.0000      0.0000    
            lambdas:    1.0000      1.0000    
L=1  Nsemic=0  Cnfigmx=2
          n=1  nzeta=2  polorb=1
            splnorm:   0.15000    
               vcte:    0.0000    
               rinn:    0.0000    
                rcs:    0.0000      0.0000    
            lambdas:    1.0000      1.0000    
-------------------------------------------------------------------------------
L=0  Nkbl=1  erefs: 0.17977+309
L=1  Nkbl=1  erefs: 0.17977+309
L=2  Nkbl=1  erefs: 0.17977+309
L=3  Nkbl=1  erefs: 0.17977+309
===============================================================================
</basis_specs>

atom: Called for B                     (Z =   5)

read_vps: Pseudopotential generation method:
read_vps: ATM3      Troullier-Martins                       
Total valence charge:    3.00000

read_vps: Pseudopotential includes a core correction:
read_vps: Pseudo-core for xc-correction

xc_check: Exchange-correlation functional:
xc_check: GGA Perdew, Burke & Ernzerhof 1996
V l=0 = -2*Zval/r beyond r=  1.7165
V l=1 = -2*Zval/r beyond r=  1.7165
V l=2 = -2*Zval/r beyond r=  1.7165
V l=3 = -2*Zval/r beyond r=  1.6951
All V_l potentials equal beyond r=  1.7165
This should be close to max(r_c) in ps generation
All pots = -2*Zval/r beyond r=  1.7165

VLOCAL1: 99.0% of the norm of Vloc inside     14.733 Ry
VLOCAL1: 99.9% of the norm of Vloc inside     33.577 Ry
atom: Maximum radius for 4*pi*r*r*local-pseudopot. charge    2.04484
atom: Maximum radius for r*vlocal+2*Zval:    1.75994
GHOST: No ghost state for L =  0
GHOST: No ghost state for L =  1
GHOST: No ghost state for L =  2
GHOST: No ghost state for L =  3

KBgen: Kleinman-Bylander projectors: 
   l= 0   rc=  1.897051   el= -0.693730   Ekb=  4.595746   kbcos=  0.286105
   l= 1   rc=  1.920920   el= -0.265236   Ekb= -2.350715   kbcos= -0.315747
   l= 2   rc=  2.044840   el=  0.002055   Ekb= -0.690767   kbcos= -0.013822
   l= 3   rc=  2.149707   el=  0.003188   Ekb= -0.315358   kbcos= -0.002055

KBgen: Total number of  Kleinman-Bylander projectors:   16
atom: -------------------------------------------------------------------------

atom: SANKEY-TYPE ORBITALS:
atom: Selected multiple-zeta basis: split     

SPLIT: Orbitals with angular momentum L= 0

SPLIT: Basis orbitals for state 2s

SPLIT: PAO cut-off radius determined from an
SPLIT: energy shift=  0.007350 Ry

   izeta = 1
                 lambda =    1.000000
                     rc =    5.422032
                 energy =   -0.686029
                kinetic =    0.576707
    potential(screened) =   -1.262736
       potential(ionic) =   -3.271094

   izeta = 2
                 rmatch =    4.222573
              splitnorm =    0.150000
                 energy =   -0.602132
                kinetic =    0.858975
    potential(screened) =   -1.461107
       potential(ionic) =   -3.582536

SPLIT: Orbitals with angular momentum L= 1

SPLIT: Basis orbitals for state 2p

SPLIT: PAO cut-off radius determined from an
SPLIT: energy shift=  0.007350 Ry

   izeta = 1
                 lambda =    1.000000
                     rc =    6.790259
                 energy =   -0.258578
                kinetic =    1.481412
    potential(screened) =   -1.739989
       potential(ionic) =   -3.657461

   izeta = 2
                 rmatch =    4.608740
              splitnorm =    0.150000
                 energy =   -0.173757
                kinetic =    2.186690
    potential(screened) =   -2.360447
       potential(ionic) =   -4.464260

POLgen: Perturbative polarization orbital with L=  2

POLgen: Polarization orbital for state 2p

   izeta = 1
                     rc =    6.790259
                 energy =    0.684082
                kinetic =    1.471481
    potential(screened) =   -0.787399
       potential(ionic) =   -2.406985
atom: Total number of Sankey-type orbitals: 13

atm_pop: Valence configuration (for local Pseudopot. screening):
 2s( 2.00)                                                            
 2p( 1.00)                                                            
Vna: chval, zval:    3.00000   3.00000

Vna:  Cut-off radius for the neutral-atom potential:   6.790259
comcore: Pseudo-core radius Rcore=  2.122997

atom: _________________________________________________________________________

<basis_specs>
===============================================================================
C                    Z=   6    Mass=  12.010        Charge= 0.17977+309
Lmxo=1 Lmxkb= 3    BasisType=split      Semic=F
L=0  Nsemic=0  Cnfigmx=2
          n=1  nzeta=2  polorb=0
            splnorm:   0.15000    
               vcte:    0.0000    
               rinn:    0.0000    
                rcs:    0.0000      0.0000    
            lambdas:    1.0000      1.0000    
L=1  Nsemic=0  Cnfigmx=2
          n=1  nzeta=2  polorb=1
            splnorm:   0.15000    
               vcte:    0.0000    
               rinn:    0.0000    
                rcs:    0.0000      0.0000    
            lambdas:    1.0000      1.0000    
-------------------------------------------------------------------------------
L=0  Nkbl=1  erefs: 0.17977+309
L=1  Nkbl=1  erefs: 0.17977+309
L=2  Nkbl=1  erefs: 0.17977+309
L=3  Nkbl=1  erefs: 0.17977+309
===============================================================================
</basis_specs>

atom: Called for C                     (Z =   6)

read_vps: Pseudopotential generation method:
read_vps: ATM3      Troullier-Martins                       
Total valence charge:    4.00000

read_vps: Pseudopotential includes a core correction:
read_vps: Pseudo-core for xc-correction

xc_check: Exchange-correlation functional:
xc_check: GGA Perdew, Burke & Ernzerhof 1996
V l=0 = -2*Zval/r beyond r=  1.5227
V l=1 = -2*Zval/r beyond r=  1.5227
V l=2 = -2*Zval/r beyond r=  1.5227
V l=3 = -2*Zval/r beyond r=  1.5038
All V_l potentials equal beyond r=  1.5227
This should be close to max(r_c) in ps generation
All pots = -2*Zval/r beyond r=  1.5227

VLOCAL1: 99.0% of the norm of Vloc inside     18.722 Ry
VLOCAL1: 99.9% of the norm of Vloc inside     42.668 Ry
atom: Maximum radius for 4*pi*r*r*local-pseudopot. charge    1.83678
atom: Maximum radius for r*vlocal+2*Zval:    1.58088
GHOST: No ghost state for L =  0
GHOST: No ghost state for L =  1
GHOST: No ghost state for L =  2
GHOST: No ghost state for L =  3

KBgen: Kleinman-Bylander projectors: 
   l= 0   rc=  1.704034   el= -1.009801   Ekb=  5.335044   kbcos=  0.316824
   l= 1   rc=  1.704034   el= -0.388707   Ekb= -3.785862   kbcos= -0.366464
   l= 2   rc=  1.791422   el=  0.001971   Ekb= -0.970471   kbcos= -0.009212
   l= 3   rc=  1.859892   el=  0.003065   Ekb= -0.399525   kbcos= -0.001223

KBgen: Total number of  Kleinman-Bylander projectors:   16
atom: -------------------------------------------------------------------------

atom: SANKEY-TYPE ORBITALS:
atom: Selected multiple-zeta basis: split     

SPLIT: Orbitals with angular momentum L= 0

SPLIT: Basis orbitals for state 2s

SPLIT: PAO cut-off radius determined from an
SPLIT: energy shift=  0.007350 Ry

   izeta = 1
                 lambda =    1.000000
                     rc =    4.632753
                 energy =   -1.002270
                kinetic =    0.855760
    potential(screened) =   -1.858031
       potential(ionic) =   -5.417575

   izeta = 2
                 rmatch =    3.431921
              splitnorm =    0.150000
                 energy =   -0.867111
                kinetic =    1.300804
    potential(screened) =   -2.167915
       potential(ionic) =   -5.962684

SPLIT: Orbitals with angular momentum L= 1

SPLIT: Basis orbitals for state 2p

SPLIT: PAO cut-off radius determined from an
SPLIT: energy shift=  0.007350 Ry

   izeta = 1
                 lambda =    1.000000
                     rc =    5.658549
                 energy =   -0.381140
                kinetic =    2.399701
    potential(screened) =   -2.780841
       potential(ionic) =   -6.206085

   izeta = 2
                 rmatch =    3.653288
              splitnorm =    0.150000
                 energy =   -0.249149
                kinetic =    3.542762
    potential(screened) =   -3.791911
       potential(ionic) =   -7.581078

POLgen: Perturbative polarization orbital with L=  2

POLgen: Polarization orbital for state 2p

   izeta = 1
                     rc =    5.658549
                 energy =    1.109913
                kinetic =    2.304789
    potential(screened) =   -1.194876
       potential(ionic) =   -4.013592
atom: Total number of Sankey-type orbitals: 13

atm_pop: Valence configuration (for local Pseudopot. screening):
 2s( 2.00)                                                            
 2p( 2.00)                                                            
Vna: chval, zval:    4.00000   4.00000

Vna:  Cut-off radius for the neutral-atom potential:   5.658549
comcore: Pseudo-core radius Rcore=  1.791422

atom: _________________________________________________________________________

prinput: Basis input ----------------------------------------------------------

PAO.BasisType split     

%block ChemicalSpeciesLabel
    1    5 B                       # Species index, atomic number, species label
    2    6 C                       # Species index, atomic number, species label
%endblock ChemicalSpeciesLabel

%block PAO.Basis                 # Define Basis set
B                     2                    # Species label, number of l-shells
 n=2   0   2                         # n, l, Nzeta 
   5.422      4.223   
   1.000      1.000   
 n=2   1   2 P   1                   # n, l, Nzeta, Polarization, NzetaPol
   6.790      4.609   
   1.000      1.000   
C                     2                    # Species label, number of l-shells
 n=2   0   2                         # n, l, Nzeta 
   4.633      3.432   
   1.000      1.000   
 n=2   1   2 P   1                   # n, l, Nzeta, Polarization, NzetaPol
   5.659      3.653   
   1.000      1.000   
%endblock PAO.Basis

prinput: ----------------------------------------------------------------------

coor:   Atomic-coordinates input format  =     Fractional

siesta: Atomic coordinates (Bohr) and species
siesta:      6.95932  30.82560   0.00000  1        1
siesta:      6.95932  33.51406   0.00000  1        2
siesta:      9.28770  29.48119   0.00000  1        3
siesta:     -4.68258  10.66124   0.00000  1        4
siesta:     -4.68258  13.34970   0.00000  1        5
siesta:     -2.35420  14.69411   0.00000  1        6
siesta:     -2.35420  17.38257   0.00000  1        7
siesta:     -0.02582  18.72698   0.00000  1        8
siesta:     -0.02582  21.41544   0.00000  1        9
siesta:      2.30256  22.75985   0.00000  1       10
siesta:      2.30256  25.44831   0.00000  1       11
siesta:      4.63094  26.79272   0.00000  1       12
siesta:      4.63094  29.48119   0.00000  1       13
siesta:     -0.02582   2.59549   0.00000  2       14
siesta:     -0.02582   5.28395   0.00000  2       15
siesta:     -2.35420  38.89134   0.00000  2       16
siesta:     -2.35420  41.57980   0.00000  2       17
siesta:      2.30256  38.89134   0.00000  2       18
siesta:      2.30256  41.57980   0.00000  2       19
siesta:      4.63094  34.85847   0.00000  2       20
siesta:      4.63094  37.54693   0.00000  2       21
siesta:      9.28770  26.79272   0.00000  2       22
siesta:     -4.68258  34.85847   0.00000  2       23
siesta:     -4.68258  37.54693   0.00000  2       24
siesta:      2.30256   6.62836   0.00000  2       25
siesta:      2.30256   9.31683   0.00000  2       26
siesta:      4.63094  10.66124   0.00000  2       27
siesta:      4.63094  13.34970   0.00000  2       28
siesta:      6.95932  14.69411   0.00000  2       29
siesta:      6.95932  17.38257   0.00000  2       30
siesta:      9.28770  18.72698   0.00000  2       31
siesta:      9.28770  21.41544   0.00000  2       32
siesta:     11.61608  22.75985   0.00000  2       33
siesta:     11.61608  25.44831   0.00000  2       34
siesta:     -2.35420   6.62836   0.00000  2       35
siesta:     -2.35420   9.31683   0.00000  2       36
siesta:     -0.02582  10.66124   0.00000  2       37
siesta:     -0.02582  13.34970   0.00000  2       38
siesta:      2.30256  14.69411   0.00000  2       39
siesta:      2.30256  17.38257   0.00000  2       40
siesta:      4.63094  18.72698   0.00000  2       41
siesta:      4.63094  21.41544   0.00000  2       42
siesta:      6.95932  22.75985   0.00000  2       43
siesta:      6.95932  25.44831   0.00000  2       44
siesta:     -7.01096  14.69411   0.00000  2       45
siesta:     -7.01096  17.38257   0.00000  2       46
siesta:     -4.68258  18.72698   0.00000  2       47
siesta:     -4.68258  21.41544   0.00000  2       48
siesta:     -2.35420  22.75985   0.00000  2       49
siesta:     -2.35420  25.44831   0.00000  2       50
siesta:     -9.33934  18.72698   0.00000  2       51
siesta:     -9.33934  21.41544   0.00000  2       52
siesta:     -7.01096  22.75985   0.00000  2       53
siesta:     -7.01096  25.44831   0.00000  2       54
siesta:    -11.66772  22.75985   0.00000  2       55
siesta:    -11.66772  25.44831   0.00000  2       56
siesta:     -9.33934  26.79272   0.00000  2       57
siesta:     -9.33934  29.48119   0.00000  2       58
siesta:     -0.02582  26.79272   0.00000  2       59
siesta:     -0.02582  29.48119   0.00000  2       60
siesta:     -4.68258  26.79272   0.00000  2       61
siesta:     -4.68258  29.48119   0.00000  2       62
siesta:      2.30256  30.82560   0.00000  2       63
siesta:      2.30256  33.51406   0.00000  2       64
siesta:     -2.35420  30.82560   0.00000  2       65
siesta:     -2.35420  33.51406   0.00000  2       66
siesta:     -7.01096  30.82560   0.00000  2       67
siesta:     -7.01096  33.51406   0.00000  2       68
siesta:     -0.02582  34.85847   0.00000  2       69
siesta:     -0.02582  37.54693   0.00000  2       70
siesta:     -0.02582  42.92421   0.00000  2       71
siesta:     -0.02582  45.61267   0.00000  2       72

siesta: System type = slab      

initatomlists: Number of atoms, orbitals, and projectors:     72   936  1152

siesta: ******************** Simulation parameters ****************************
siesta:
siesta: The following are some of the parameters of the simulation.
siesta: A complete list of the parameters used, including default values,
siesta: can be found in file out.fdf
siesta:
redata: Non-Collinear-spin run           =     F
redata: SpinPolarized (Up/Down) run      =     F
redata: Number of spin components        =     1
redata: Long output                      =     F
redata: Number of Atomic Species         =        2
redata: Charge density info will appear in .RHO file
redata: Write Mulliken Pop.              =     NO
redata: Mesh Cutoff                      =   200.0000  Ry
redata: Net charge of the system         =     0.0000 |e|
redata: Max. number of SCF Iter          =      500
redata: SCF convergence failure will abort job
redata: Performing Pulay mixing using    =    10 iterations
redata: Mix DM in first SCF step ?       =     F
redata: Write Pulay info on disk?        =     F
redata: Discard 1st Pulay DM after  kick =     F
redata: New DM Mixing Weight             =     0.0500
redata: New DM Occupancy tolerance       = 0.000000000001
redata: No kicks to SCF
redata: DM Mixing Weight for Kicks       =     0.5000
redata: DM Tolerance for SCF             =     0.000100
redata: Require Energy convergence for SCF =     F
redata: DM Energy tolerance for SCF      =     0.000100 eV
redata: Require Harris convergence for SCF =     F
redata: DM Harris energy tolerance for SCF =     0.000100 eV
redata: Using Saved Data (generic)   =     F
redata: Use continuation files for DM    =     T
redata: Neglect nonoverlap interactions  =     F
redata: Method of Calculation            =     Diagonalization
redata: Divide and Conquer               =     T
redata: Electronic Temperature           =     0.0019  Ry
redata: Fix the spin of the system       =     F
redata: Dynamics option                  =     Verlet MD run
redata: Initial MD time step             =        1
redata:   Final MD time step             =        1
redata: Length of MD time step           =     1.0000  fs
redata: Initial Temperature of MD run    =     0.0000  K
redata: Perform a MD quench              =     F
redata: ***********************************************************************
Total number of electrons:   275.000000
Total ionic charge:   275.000000

* ProcessorY, Blocksize:    2  24

k-point displ. along   1 input, could be:     0.00    0.50
k-point displ. along   2 input, could be:     0.00    0.50
 Kpoints in:          364 . Kpoints trimmed:          352

siesta: k-grid: Number of k-points =   352
siesta: k-grid: Cutoff (effective) =     5.000 Ang
siesta: k-grid: Supercell and displacements
siesta: k-grid:   26   0   0      0.000
siesta: k-grid:    0  26   0      0.000
siesta: k-grid:    0   0   1      0.000
Naive supercell factors:     2    2    2

superc: Internal auxiliary supercell:     2 x     2 x     2  =       8
superc: Number of atoms, orbitals, and projectors:    576   7488   9216

* Maximum dynamic memory allocated =     6 MB

siesta:                 ==============================
                            Begin MD step =      1
                        ==============================

superc: Internal auxiliary supercell:     2 x     2 x     2  =       8
superc: Number of atoms, orbitals, and projectors:    576   7488   9216

outcell: Unit cell vectors (Ang):
       12.804619    7.392750    0.000000
        0.000000   14.785500    0.000000
        0.000000    0.000000   10.000000

outcell: Cell vector modules (Ang)   :   14.785500   14.785500   10.000000
outcell: Cell angles (23,13,12) (deg):     90.0000     90.0000     60.0000
outcell: Cell volume (Ang**3)        :   1893.2269
New_DM. Step:     1
Initializing Density Matrix...

InitMesh: MESH =   120 x   120 x    90 =     1296000
InitMesh: Mesh cutoff (required, used) =   200.000   223.865 Ry

* Maximum dynamic memory allocated =   212 MB

stepf: Fermi-Dirac step function

siesta: Program's energy decomposition (eV):
siesta: Ebs     =     -5643.479092
siesta: Eions   =     16738.273825
siesta: Ena     =      4394.992732
siesta: Ekin    =      5692.582677
siesta: Enl     =       736.991324
siesta: DEna    =        -0.000011
siesta: DUscf   =         0.000000
siesta: DUext   =         0.000000
siesta: Exc     =     -4188.348109
siesta: eta*DQ  =         0.000000
siesta: Emadel  =         0.000000
siesta: Emeta   =         0.000000
siesta: Emolmec =         0.000000
siesta: Ekinion =         0.000000
siesta: Eharris =     -9819.255500
siesta: Etot    =    -10102.055213
siesta: FreeEng =    -10102.055213

siesta: iscf   Eharris(eV)      E_KS(eV)   FreeEng(eV)   dDmax  Ef(eV)
siesta:    1    -9819.2555   -10102.0552   -10102.0552  6.4431 -8.1603
timer: Routine,Calls,Time,% = IterSCF        1    6567.369  99.81
elaps: Routine,Calls,Wall,% = IterSCF        1     821.969  99.81
siesta:    2   -14134.5261    -9150.2998    -9150.3288 16.2102 -3.0848
siesta:    3    -9769.8913    -9925.1689    -9925.2022  2.7775 -6.1788
siesta:    4    -9739.5747    -9818.7147    -9818.7537  1.3504 -5.3143
siesta:    5    -9685.7926    -9727.7267    -9727.7519  0.7611 -4.9654
siesta:    6    -9680.1557    -9712.7115    -9712.7406  0.7791 -5.0118
siesta:    7    -9677.9380    -9685.9987    -9686.0467  0.6383 -4.9495
siesta:    8    -9672.3018    -9678.2496    -9678.3087  0.5949 -5.0353
siesta:    9    -9671.0619    -9673.6091    -9673.6596  0.5244 -5.0074
siesta:   10    -9670.4390    -9668.1409    -9668.2281  0.4326 -4.9754
siesta:   11    -9670.0448    -9656.2234    -9656.3075  0.2052 -4.9030
siesta:   12    -9670.0065    -9651.7460    -9651.8291  0.1644 -4.8789
siesta:   13    -9669.6206    -9650.6366    -9650.6890  0.1664 -4.8863
siesta:   14    -9669.2597    -9652.7637    -9652.8420  0.1447 -4.8978
siesta:   15    -9669.0224    -9656.2777    -9656.3530  0.1144 -4.9342
siesta:   16    -9668.9138    -9659.0645    -9659.1532  0.0925 -4.9421
siesta:   17    -9668.8531    -9661.2871    -9661.3736  0.0759 -4.9580
siesta:   18    -9668.7832    -9663.8009    -9663.8905  0.0746 -4.9669
siesta:   19    -9668.7604    -9664.7877    -9664.8740  0.0336 -4.9731
siesta:   20    -9668.7447    -9666.0090    -9666.0939  0.0443 -4.9727
siesta:   21    -9668.7468    -9667.0246    -9667.1088  0.0504 -4.9668
siesta:   22    -9668.7391    -9667.9539    -9668.0328  0.0252 -4.9695
siesta:   23    -9668.7355    -9668.5465    -9668.6277  0.0141 -4.9688
siesta:   24    -9668.7314    -9668.6862    -9668.7688  0.0128 -4.9636
siesta:   25    -9668.7302    -9668.8295    -9668.9130  0.0079 -4.9618
siesta:   26    -9668.7302    -9668.7567    -9668.8412  0.0069 -4.9605
siesta:   27    -9668.7298    -9668.8341    -9668.9177  0.0037 -4.9603
siesta:   28    -9668.7300    -9668.8791    -9668.9630  0.0019 -4.9602
siesta:   29    -9668.7301    -9668.8884    -9668.9720  0.0018 -4.9601
siesta:   30    -9668.7300    -9668.8791    -9668.9627  0.0008 -4.9602
siesta:   31    -9668.7300    -9668.8579    -9668.9414  0.0016 -4.9602
siesta:   32    -9668.7300    -9668.7787    -9668.8623  0.0004 -4.9603
siesta:   33    -9668.7300    -9668.7684    -9668.8520  0.0004 -4.9604
siesta:   34    -9668.7300    -9668.7547    -9668.8383  0.0004 -4.9605
siesta:   35    -9668.7300    -9668.7466    -9668.8302  0.0003 -4.9605
siesta:   36    -9668.7300    -9668.7408    -9668.8244  0.0002 -4.9605
siesta:   37    -9668.7300    -9668.7391    -9668.8227  0.0002 -4.9605
siesta:   38    -9668.7300    -9668.7388    -9668.8223  0.0001 -4.9605
siesta:   39    -9668.7300    -9668.7346    -9668.8182  0.0001 -4.9605

siesta: E_KS(eV) =            -9668.7354

siesta: E_KS - E_eggbox =     -9668.7354

siesta: Atomic forces (eV/Ang):
----------------------------------------
   Tot   -0.186081   -0.074183    0.000000
----------------------------------------
   Max  564.719869
   Res  148.614498    sqrt( Sum f_i^2 / 3N )
----------------------------------------
   Max  564.719869    constrained

Stress-tensor-Voigt (kbar):     -761.39    -2690.56       -0.48       -2.02        0.00        0.00
(Free)E + p*V (eV/cell)    -8308.9669
Target enthalpy (eV/cell)    -9668.8190

siesta: Stress tensor (static) (eV/Ang**3):
        -0.475219   -0.001263    0.000000
        -0.001263   -1.679296    0.000000
         0.000000    0.000000   -0.000302

siesta: Pressure (static):       1150.81122843  kBar

siesta: Stress tensor (total) (eV/Ang**3):
        -0.475219   -0.001263    0.000000
        -0.001263   -1.679296    0.000000
         0.000000    0.000000   -0.000302

siesta: Pressure (total):       1150.81122843  kBar

siesta: Temp_ion =       0.000 K

* Maximum dynamic memory allocated =   229 MB
Computing bands...

siesta: Program's energy decomposition (eV):
siesta: Ebs     =     -4315.798416
siesta: Eions   =     16738.273825
siesta: Ena     =      4394.992732
siesta: Ekin    =      8586.778138
siesta: Enl     =      -884.590920
siesta: DEna    =      -774.232938
siesta: DUscf   =       103.784338
siesta: DUext   =         0.000000
siesta: Exc     =     -4357.192933
siesta: eta*DQ  =         0.000000
siesta: Emadel  =         0.000000
siesta: Emeta   =         0.000000
siesta: Emolmec =         0.000000
siesta: Ekinion =         0.000000
siesta: Eharris =     -9668.730017
siesta: Etot    =     -9668.735408
siesta: FreeEng =     -9668.818991

siesta: Final energy (eV):
siesta:  Band Struct. =   -4315.798416
siesta:       Kinetic =    8586.778138
siesta:       Hartree =   28168.033750
siesta:    Ext. field =       0.000000
siesta:   Exch.-corr. =   -4357.192933
siesta:  Ion-electron =  -64626.766969
siesta:       Ion-ion =   22560.412606
siesta:       Ekinion =       0.000000
siesta:         Total =   -9668.735408

siesta: Atomic forces (eV/Ang):
siesta:      1    4.177329    1.964107    0.000000
siesta:      2   -0.259637    4.409178    0.000000
siesta:      3    3.490454   -0.596819    0.000000
siesta:      4  -20.617317  395.839203    0.000000
siesta:      5  -19.933616    3.346497    0.000000
siesta:      6  -22.297559  400.299297    0.000000
siesta:      7  -18.511749    1.266978    0.000000
siesta:      8   -1.446585  409.205109    0.000000
siesta:      9   -3.841000    1.471086    0.000000
siesta:     10    5.077674   -2.974217    0.000000
siesta:     11   -5.727298    4.188873    0.000000
siesta:     12    4.732392   -3.479329    0.000000
siesta:     13   -4.905877    3.901249    0.000000
siesta:     14   -1.624402  549.961368    0.000000
siesta:     15   -0.201504 -128.838214    0.000000
siesta:     16   -4.442447  123.467071    0.000000
siesta:     17  -15.011156 -404.598945    0.000000
siesta:     18   -0.219013  126.750245    0.000000
siesta:     19   18.072076 -550.855572    0.000000
siesta:     20   22.362262    8.264489    0.000000
siesta:     21   33.278788 -549.612928    0.000000
siesta:     22    3.488555   -2.615309    0.000000
siesta:     23  -26.817094   -1.431235    0.000000
siesta:     24  -36.758925 -404.885653    0.000000
siesta:     25   13.998068  547.513006    0.000000
siesta:     26   -1.195119 -125.111129    0.000000
siesta:     27   32.234793  549.072752    0.000000
siesta:     28   25.954104   -3.736717    0.000000
siesta:     29   -2.657373   -2.060178    0.000000
siesta:     30    2.483489   -0.575669    0.000000
siesta:     31   -1.286405   -0.462248    0.000000
siesta:     32    2.927773   -1.711944    0.000000
siesta:     33   -0.134990    6.079508    0.000000
siesta:     34   -0.129921   -5.897818    0.000000
siesta:     35  -18.565467  548.776090    0.000000
siesta:     36   -7.499395 -116.258238    0.000000
siesta:     37   -2.436329  545.213205    0.000000
siesta:     38   -7.500072 -118.025430    0.000000
siesta:     39   26.330122  558.775941    0.000000
siesta:     40   22.138251   -2.978674    0.000000
siesta:     41   -0.950164    1.744116    0.000000
siesta:     42    1.833349   -1.682701    0.000000
siesta:     43    0.619118    1.066029    0.000000
siesta:     44    2.787491   -2.565500    0.000000
siesta:     45    0.280209   -0.629261    0.000000
siesta:     46   -3.525677   -0.468322    0.000000
siesta:     47   -0.490558    1.786479    0.000000
siesta:     48   -0.420327    0.703981    0.000000
siesta:     49   -2.348226    1.092343    0.000000
siesta:     50   -0.711131    0.498098    0.000000
siesta:     51    0.611412    0.151226    0.000000
siesta:     52   -1.655993   -2.555832    0.000000
siesta:     53    0.146825    0.986131    0.000000
siesta:     54   -0.021845   -0.828014    0.000000
siesta:     55   -0.671148    6.651754    0.000000
siesta:     56    0.266324   -6.892281    0.000000
siesta:     57   -2.200294    2.334108    0.000000
siesta:     58    1.181398    0.001077    0.000000
siesta:     59   -1.943017    0.731612    0.000000
siesta:     60    0.123823 -564.719869    0.000000
siesta:     61    0.082826    0.297906    0.000000
siesta:     62    0.632295   -1.829103    0.000000
siesta:     63   19.479609    5.789812    0.000000
siesta:     64   24.425994 -557.340639    0.000000
siesta:     65  -21.175490    6.234821    0.000000
siesta:     66  -22.597670 -557.869414    0.000000
siesta:     67   -1.900301   -0.115600    0.000000
siesta:     68    3.302746    2.601798    0.000000
siesta:     69    0.710543  127.501024    0.000000
siesta:     70    8.474128 -546.178759    0.000000
siesta:     71   -4.866081  125.784571    0.000000
siesta:     72    3.607871 -405.414758    0.000000
siesta: ----------------------------------------
siesta:    Tot   -0.186081   -0.074183    0.000000

siesta: Stress tensor (static) (eV/Ang**3):
siesta:    -0.475219   -0.001263    0.000000
siesta:    -0.001263   -1.679296    0.000000
siesta:     0.000000    0.000000   -0.000302

siesta: Cell volume =       1893.226884 Ang**3

siesta: Pressure (static):
siesta:                Solid            Molecule  Units
siesta:           0.00782290          0.11401051  Ry/Bohr**3
siesta:           0.71827211         10.46805745  eV/Ang**3
siesta:        1150.81122843      16771.85833725  kBar
(Free)E+ p_basis*V_orbitals  =       -9633.973979
(Free)Eharris+ p_basis*V_orbitals  =       -9633.969362

siesta: Electric dipole (a.u.)  =    0.000000    0.000000    0.000000
siesta: Electric dipole (Debye) =    0.000000    0.000000    0.000000

* Maximum dynamic memory allocated : Node    0 =   229 MB
* Maximum dynamic memory allocated : Node    1 =    81 MB
* Maximum dynamic memory allocated : Node    2 =    84 MB
* Maximum dynamic memory allocated : Node    3 =   217 MB
* Maximum dynamic memory allocated : Node    4 =   225 MB
* Maximum dynamic memory allocated : Node    5 =    83 MB
* Maximum dynamic memory allocated : Node    6 =    86 MB
* Maximum dynamic memory allocated : Node    7 =   207 MB

* Maximum memory occured during matrixMtoO                    

timer: CPU execution times:
timer:  Routine       Calls   Time/call    Tot.time        %
timer:  siesta            1  252961.421  252961.421   100.00
timer:  Setup             1       3.981       3.981     0.00
timer:  bands             3     269.114     807.341     0.32
timer:  writewave         1       0.045       0.045     0.00
timer:  KSV_init          1       0.007       0.007     0.00
timer:  IterMD            1  252141.762  252141.762    99.68
timer:  hsparse           1       0.396       0.396     0.00
timer:  overlap           1       7.383       7.383     0.00
timer:  IterSCF          39    6459.767  251930.907    99.59
timer:  kinefsm           2       3.855       7.710     0.00
timer:  nlefsm            2      20.845      41.690     0.02
timer:  DHSCF            40     109.373    4374.906     1.73
timer:  DHSCF1            1       0.990       0.990     0.00
timer:  DHSCF2            1      42.836      42.836     0.02
timer:  REORD           322       0.010       3.196     0.00
timer:  POISON           41       2.242      91.912     0.04
timer:  DHSCF3           40     107.227    4289.092     1.70
timer:  rhoofd           40      23.180     927.212     0.37
timer:  cellXC           40       3.558     142.335     0.06
timer:  vmat             40      52.334    2093.369     0.83
timer:  MolMec            2       0.001       0.002     0.00
timer:  diagon           39    6348.762  247601.714    97.88
timer:  c-eigval      13849       6.675   92444.398    36.54
timer:  c-buildHS     13849       0.120    1663.241     0.66
timer:  cdiag         27577       6.892  190051.272    75.13
timer:  cdiag1        27577       0.427   11777.016     4.66
timer:  cdiag2        27577       1.904   52514.659    20.76
timer:  cdiag3        27577       3.946  108818.530    43.02
timer:  cdiag4        27577       0.229    6312.300     2.50
timer:  c-eigvec      13728       7.300  100210.007    39.61
timer:  c-buildD      13728       4.053   55637.975    21.99
timer:  DHSCF4            1      39.846      39.846     0.02
timer:  dfscf             1      37.236      37.236     0.01
timer:  overfsm           1       0.463       0.463     0.00
timer:  optical           1       7.330       7.330     0.00
  

elaps: ELAPSED times:
elaps:  Routine       Calls   Time/call    Tot.time        %
elaps:  siesta            1   31656.295   31656.295   100.00
elaps:  Setup             1       0.515       0.515     0.00
elaps:  bands             3      33.691     101.073     0.32
elaps:  writewave         1       0.006       0.006     0.00
elaps:  KSV_init          1       0.001       0.001     0.00
elaps:  IterMD            1   31553.715   31553.715    99.68
elaps:  hsparse           1       0.049       0.049     0.00
elaps:  overlap           1       0.977       0.977     0.00
elaps:  IterSCF          39     808.397   31527.467    99.59
elaps:  kinefsm           2       0.507       1.015     0.00
elaps:  nlefsm            2       2.611       5.223     0.02
elaps:  DHSCF            40      13.802     552.083     1.74
elaps:  DHSCF1            1       0.127       0.127     0.00
elaps:  DHSCF2            1       5.357       5.357     0.02
elaps:  REORD           322       0.001       0.423     0.00
elaps:  POISON           41       0.280      11.495     0.04
elaps:  DHSCF3           40      13.414     536.578     1.70
elaps:  rhoofd           40       6.074     242.961     0.77
elaps:  cellXC           40       0.444      17.764     0.06
elaps:  vmat             40       6.547     261.886     0.83
elaps:  MolMec            2       0.000       0.000     0.00
elaps:  diagon           39     794.517   30986.154    97.88
elaps:  c-eigval      13849       0.835   11566.513    36.54
elaps:  c-buildHS     13849       0.017     228.830     0.72
elaps:  cdiag         27577       0.851   23456.241    74.10
elaps:  cdiag1        27577       0.053    1463.524     4.62
elaps:  cdiag2        27577       0.238    6570.820    20.76
elaps:  cdiag3        27577       0.494   13634.266    43.07
elaps:  cdiag4        27577       0.029     795.524     2.51
elaps:  c-eigvec      13728       0.895   12286.657    38.81
elaps:  c-buildD      13728       0.526    7218.594    22.80
elaps:  DHSCF4            1       9.729       9.729     0.03
elaps:  dfscf             1       9.224       9.224     0.03
elaps:  overfsm           1       0.058       0.058     0.00
elaps:  optical           1       0.001       0.001     0.00
  
>> End of run:   8-MAY-2016  21:33:55
