Siesta Version:                                        siesta-3.2-pl-3
Architecture  : x86_64-unknown-linux-gnu--unknown
Compiler flags: mpiifort -g -O2 -fPIC -xSSE4.1 -fp-model source -shared-intel 
PARALLEL version

* Running on    8 nodes in parallel
>> Start of run:  25-APR-2016   0:06:50

                           ***********************       
                           *  WELCOME TO SIESTA  *       
                           ***********************       

reinit: Reading from standard input
************************** Dump of input data file ****************************
#(1) General system descriptors
SystemName            GRP_doping    # Descriptive name of the system
SystemLabel           GRP_doping    # Short name for naming files
%include STRUCT.fdf
%include KPT.fdf
%include BASIS.fdf
#%include TS.fdf # for transiesta calculation
#(4) DFT, Grid, SCF
XC.functional         GGA           # LDA or GGA (default = LDA)
XC.authors            PBE           # CA (Ceperley-Aldr) = PZ
                                    #    (Perdew-Zunger) - LDA - Default
                                    # PW92 (Perdew-Wang-92) - LDA
                                    # PBE (Perdew-Burke-Ernzerhof) - GGA
MeshCutoff            200.000000    Ry      # Default: 50.0 Ry ~ 0.444 Bohr
                                    #         100.0 Ry ~ 0.314 Bohr
MaxSCFIterations      500           # Default: 50
DM.MixingWeight       0.05          # Default: 0.25
DM.NumberPulay        10            # Default: 0
DM.PulayOnFile        F             # SystemLabel.P1, SystemLabel.P2
DM.Tolerance          1.d-4         # Default: 1.d-4
DM.UseSaveDM          .true.        # because of the bug
SCFMustConverge       .true.
NeglNonOverlapInt     F             # Default: F
#(5) Eigenvalue problem: order-N or diagonalization
SolutionMethod        Diagon        # or Transiesta
ElectronicTemperature 300.0 K       # Default: 300.0 K
#(6) Molecular dynamics and relaxations
#MD.TypeOfRun          CG            # Type of dynamics:
#MD.VariableCell       F
#MD.NumCGsteps         0           # 0 for single-point / 100 for gopt
#MD.MaxCGDispl         0.2 Bohr      # Default: 0.2 Bohr
#MD.MaxForceTol        0.02 eV/Ang   # Default: 0.04 eV/Ang
#MD.MaxStressTol       1.0 GPa       # Default: 1.0 GPa
# Geometry Constraints
#%block GeometryConstraints
#	position from 1 to 44
#%endblock GeometryConstraints
BandLinesScale   pi/a
%block BandLines
 1   0.00000000  0.00000000  0.00000000
50   0.00000000  0.07809418  0.00000000
50   0.04509075  0.07809242  0.00000000
20   0.00000000  0.00000000  0.00000000
%endblock BandLines
************************** End of input data file *****************************

reinit: -----------------------------------------------------------------------
reinit: System Name: GRP_doping
reinit: -----------------------------------------------------------------------
reinit: System Label: GRP_doping                                                  
reinit: -----------------------------------------------------------------------

initatom: Reading input for the pseudopotentials and atomic orbitals ----------
 Species number:            1  Label: B Atomic number:           5
 Species number:            2  Label: C Atomic number:           6
Ground state valence configuration:   2s02  2p01
Reading pseudopotential information in formatted form from B.psf

Valence configuration for pseudopotential generation:
2s( 2.00) rc: 1.74
2p( 1.00) rc: 1.74
3d( 0.00) rc: 1.74
4f( 0.00) rc: 1.74
Ground state valence configuration:   2s02  2p02
Reading pseudopotential information in formatted form from C.psf

Valence configuration for pseudopotential generation:
2s( 2.00) rc: 1.54
2p( 2.00) rc: 1.54
3d( 0.00) rc: 1.54
4f( 0.00) rc: 1.54
For B, standard SIESTA heuristics set lmxkb to 3
 (one more than the basis l, including polarization orbitals).
Use PS.lmax or PS.KBprojectors blocks to override.
For C, standard SIESTA heuristics set lmxkb to 3
 (one more than the basis l, including polarization orbitals).
Use PS.lmax or PS.KBprojectors blocks to override.

<basis_specs>
===============================================================================
B                    Z=   5    Mass=  10.810        Charge= 0.17977+309
Lmxo=1 Lmxkb= 3    BasisType=split      Semic=F
L=0  Nsemic=0  Cnfigmx=2
          n=1  nzeta=2  polorb=0
            splnorm:   0.15000    
               vcte:    0.0000    
               rinn:    0.0000    
                rcs:    0.0000      0.0000    
            lambdas:    1.0000      1.0000    
L=1  Nsemic=0  Cnfigmx=2
          n=1  nzeta=2  polorb=1
            splnorm:   0.15000    
               vcte:    0.0000    
               rinn:    0.0000    
                rcs:    0.0000      0.0000    
            lambdas:    1.0000      1.0000    
-------------------------------------------------------------------------------
L=0  Nkbl=1  erefs: 0.17977+309
L=1  Nkbl=1  erefs: 0.17977+309
L=2  Nkbl=1  erefs: 0.17977+309
L=3  Nkbl=1  erefs: 0.17977+309
===============================================================================
</basis_specs>

atom: Called for B                     (Z =   5)

read_vps: Pseudopotential generation method:
read_vps: ATM3      Troullier-Martins                       
Total valence charge:    3.00000

read_vps: Pseudopotential includes a core correction:
read_vps: Pseudo-core for xc-correction

xc_check: Exchange-correlation functional:
xc_check: GGA Perdew, Burke & Ernzerhof 1996
V l=0 = -2*Zval/r beyond r=  1.7165
V l=1 = -2*Zval/r beyond r=  1.7165
V l=2 = -2*Zval/r beyond r=  1.7165
V l=3 = -2*Zval/r beyond r=  1.6951
All V_l potentials equal beyond r=  1.7165
This should be close to max(r_c) in ps generation
All pots = -2*Zval/r beyond r=  1.7165

VLOCAL1: 99.0% of the norm of Vloc inside     14.733 Ry
VLOCAL1: 99.9% of the norm of Vloc inside     33.577 Ry
atom: Maximum radius for 4*pi*r*r*local-pseudopot. charge    2.04484
atom: Maximum radius for r*vlocal+2*Zval:    1.75994
GHOST: No ghost state for L =  0
GHOST: No ghost state for L =  1
GHOST: No ghost state for L =  2
GHOST: No ghost state for L =  3

KBgen: Kleinman-Bylander projectors: 
   l= 0   rc=  1.897051   el= -0.693730   Ekb=  4.595746   kbcos=  0.286105
   l= 1   rc=  1.920920   el= -0.265236   Ekb= -2.350715   kbcos= -0.315747
   l= 2   rc=  2.044840   el=  0.002055   Ekb= -0.690767   kbcos= -0.013822
   l= 3   rc=  2.149707   el=  0.003188   Ekb= -0.315358   kbcos= -0.002055

KBgen: Total number of  Kleinman-Bylander projectors:   16
atom: -------------------------------------------------------------------------

atom: SANKEY-TYPE ORBITALS:
atom: Selected multiple-zeta basis: split     

SPLIT: Orbitals with angular momentum L= 0

SPLIT: Basis orbitals for state 2s

SPLIT: PAO cut-off radius determined from an
SPLIT: energy shift=  0.007350 Ry

   izeta = 1
                 lambda =    1.000000
                     rc =    5.422032
                 energy =   -0.686029
                kinetic =    0.576707
    potential(screened) =   -1.262736
       potential(ionic) =   -3.271094

   izeta = 2
                 rmatch =    4.222573
              splitnorm =    0.150000
                 energy =   -0.602132
                kinetic =    0.858975
    potential(screened) =   -1.461107
       potential(ionic) =   -3.582536

SPLIT: Orbitals with angular momentum L= 1

SPLIT: Basis orbitals for state 2p

SPLIT: PAO cut-off radius determined from an
SPLIT: energy shift=  0.007350 Ry

   izeta = 1
                 lambda =    1.000000
                     rc =    6.790259
                 energy =   -0.258578
                kinetic =    1.481412
    potential(screened) =   -1.739989
       potential(ionic) =   -3.657461

   izeta = 2
                 rmatch =    4.608740
              splitnorm =    0.150000
                 energy =   -0.173757
                kinetic =    2.186690
    potential(screened) =   -2.360447
       potential(ionic) =   -4.464260

POLgen: Perturbative polarization orbital with L=  2

POLgen: Polarization orbital for state 2p

   izeta = 1
                     rc =    6.790259
                 energy =    0.684082
                kinetic =    1.471481
    potential(screened) =   -0.787399
       potential(ionic) =   -2.406985
atom: Total number of Sankey-type orbitals: 13

atm_pop: Valence configuration (for local Pseudopot. screening):
 2s( 2.00)                                                            
 2p( 1.00)                                                            
Vna: chval, zval:    3.00000   3.00000

Vna:  Cut-off radius for the neutral-atom potential:   6.790259
comcore: Pseudo-core radius Rcore=  2.122997

atom: _________________________________________________________________________

<basis_specs>
===============================================================================
C                    Z=   6    Mass=  12.010        Charge= 0.17977+309
Lmxo=1 Lmxkb= 3    BasisType=split      Semic=F
L=0  Nsemic=0  Cnfigmx=2
          n=1  nzeta=2  polorb=0
            splnorm:   0.15000    
               vcte:    0.0000    
               rinn:    0.0000    
                rcs:    0.0000      0.0000    
            lambdas:    1.0000      1.0000    
L=1  Nsemic=0  Cnfigmx=2
          n=1  nzeta=2  polorb=1
            splnorm:   0.15000    
               vcte:    0.0000    
               rinn:    0.0000    
                rcs:    0.0000      0.0000    
            lambdas:    1.0000      1.0000    
-------------------------------------------------------------------------------
L=0  Nkbl=1  erefs: 0.17977+309
L=1  Nkbl=1  erefs: 0.17977+309
L=2  Nkbl=1  erefs: 0.17977+309
L=3  Nkbl=1  erefs: 0.17977+309
===============================================================================
</basis_specs>

atom: Called for C                     (Z =   6)

read_vps: Pseudopotential generation method:
read_vps: ATM3      Troullier-Martins                       
Total valence charge:    4.00000

read_vps: Pseudopotential includes a core correction:
read_vps: Pseudo-core for xc-correction

xc_check: Exchange-correlation functional:
xc_check: GGA Perdew, Burke & Ernzerhof 1996
V l=0 = -2*Zval/r beyond r=  1.5227
V l=1 = -2*Zval/r beyond r=  1.5227
V l=2 = -2*Zval/r beyond r=  1.5227
V l=3 = -2*Zval/r beyond r=  1.5038
All V_l potentials equal beyond r=  1.5227
This should be close to max(r_c) in ps generation
All pots = -2*Zval/r beyond r=  1.5227

VLOCAL1: 99.0% of the norm of Vloc inside     18.722 Ry
VLOCAL1: 99.9% of the norm of Vloc inside     42.668 Ry
atom: Maximum radius for 4*pi*r*r*local-pseudopot. charge    1.83678
atom: Maximum radius for r*vlocal+2*Zval:    1.58088
GHOST: No ghost state for L =  0
GHOST: No ghost state for L =  1
GHOST: No ghost state for L =  2
GHOST: No ghost state for L =  3

KBgen: Kleinman-Bylander projectors: 
   l= 0   rc=  1.704034   el= -1.009801   Ekb=  5.335044   kbcos=  0.316824
   l= 1   rc=  1.704034   el= -0.388707   Ekb= -3.785862   kbcos= -0.366464
   l= 2   rc=  1.791422   el=  0.001971   Ekb= -0.970471   kbcos= -0.009212
   l= 3   rc=  1.859892   el=  0.003065   Ekb= -0.399525   kbcos= -0.001223

KBgen: Total number of  Kleinman-Bylander projectors:   16
atom: -------------------------------------------------------------------------

atom: SANKEY-TYPE ORBITALS:
atom: Selected multiple-zeta basis: split     

SPLIT: Orbitals with angular momentum L= 0

SPLIT: Basis orbitals for state 2s

SPLIT: PAO cut-off radius determined from an
SPLIT: energy shift=  0.007350 Ry

   izeta = 1
                 lambda =    1.000000
                     rc =    4.632753
                 energy =   -1.002270
                kinetic =    0.855760
    potential(screened) =   -1.858031
       potential(ionic) =   -5.417575

   izeta = 2
                 rmatch =    3.431921
              splitnorm =    0.150000
                 energy =   -0.867111
                kinetic =    1.300804
    potential(screened) =   -2.167915
       potential(ionic) =   -5.962684

SPLIT: Orbitals with angular momentum L= 1

SPLIT: Basis orbitals for state 2p

SPLIT: PAO cut-off radius determined from an
SPLIT: energy shift=  0.007350 Ry

   izeta = 1
                 lambda =    1.000000
                     rc =    5.658549
                 energy =   -0.381140
                kinetic =    2.399701
    potential(screened) =   -2.780841
       potential(ionic) =   -6.206085

   izeta = 2
                 rmatch =    3.653288
              splitnorm =    0.150000
                 energy =   -0.249149
                kinetic =    3.542762
    potential(screened) =   -3.791911
       potential(ionic) =   -7.581078

POLgen: Perturbative polarization orbital with L=  2

POLgen: Polarization orbital for state 2p

   izeta = 1
                     rc =    5.658549
                 energy =    1.109913
                kinetic =    2.304789
    potential(screened) =   -1.194876
       potential(ionic) =   -4.013592
atom: Total number of Sankey-type orbitals: 13

atm_pop: Valence configuration (for local Pseudopot. screening):
 2s( 2.00)                                                            
 2p( 2.00)                                                            
Vna: chval, zval:    4.00000   4.00000

Vna:  Cut-off radius for the neutral-atom potential:   5.658549
comcore: Pseudo-core radius Rcore=  1.791422

atom: _________________________________________________________________________

prinput: Basis input ----------------------------------------------------------

PAO.BasisType split     

%block ChemicalSpeciesLabel
    1    5 B                       # Species index, atomic number, species label
    2    6 C                       # Species index, atomic number, species label
%endblock ChemicalSpeciesLabel

%block PAO.Basis                 # Define Basis set
B                     2                    # Species label, number of l-shells
 n=2   0   2                         # n, l, Nzeta 
   5.422      4.223   
   1.000      1.000   
 n=2   1   2 P   1                   # n, l, Nzeta, Polarization, NzetaPol
   6.790      4.609   
   1.000      1.000   
C                     2                    # Species label, number of l-shells
 n=2   0   2                         # n, l, Nzeta 
   4.633      3.432   
   1.000      1.000   
 n=2   1   2 P   1                   # n, l, Nzeta, Polarization, NzetaPol
   5.659      3.653   
   1.000      1.000   
%endblock PAO.Basis

prinput: ----------------------------------------------------------------------

coor:   Atomic-coordinates input format  =     Fractional

siesta: Atomic coordinates (Bohr) and species
siesta:      4.63094  34.85847   0.00000  1        1
siesta:      4.63094  37.54693   0.00000  1        2
siesta:     -0.02582  13.34970   0.00000  1        3
siesta:      2.30256  14.69411   0.00000  1        4
siesta:      2.30256  17.38257   0.00000  1        5
siesta:      4.63094  18.72698   0.00000  1        6
siesta:      4.63094  21.41544   0.00000  1        7
siesta:      6.95932  22.75985   0.00000  1        8
siesta:      6.95932  25.44831   0.00000  1        9
siesta:     -4.68258  21.41544   0.00000  1       10
siesta:     -2.35420  22.75985   0.00000  1       11
siesta:     -2.35420  25.44831   0.00000  1       12
siesta:     -9.33934  21.41544   0.00000  1       13
siesta:     -7.01096  22.75985   0.00000  1       14
siesta:     -7.01096  25.44831   0.00000  1       15
siesta:    -11.66772  22.75985   0.00000  1       16
siesta:    -11.66772  25.44831   0.00000  1       17
siesta:     -9.33934  26.79272   0.00000  1       18
siesta:     -0.02582  26.79272   0.00000  1       19
siesta:     -0.02582  29.48119   0.00000  1       20
siesta:      2.30256  30.82560   0.00000  1       21
siesta:      2.30256  33.51406   0.00000  1       22
siesta:     -0.02582   2.59549   0.00000  2       23
siesta:     -0.02582   5.28395   0.00000  2       24
siesta:     -2.35420  38.89134   0.00000  2       25
siesta:     -2.35420  41.57980   0.00000  2       26
siesta:      2.30256  38.89134   0.00000  2       27
siesta:      2.30256  41.57980   0.00000  2       28
siesta:      6.95932  30.82560   0.00000  2       29
siesta:      6.95932  33.51406   0.00000  2       30
siesta:      9.28770  26.79272   0.00000  2       31
siesta:      9.28770  29.48119   0.00000  2       32
siesta:     -4.68258  34.85847   0.00000  2       33
siesta:     -4.68258  37.54693   0.00000  2       34
siesta:      2.30256   6.62836   0.00000  2       35
siesta:      2.30256   9.31683   0.00000  2       36
siesta:      4.63094  10.66124   0.00000  2       37
siesta:      4.63094  13.34970   0.00000  2       38
siesta:      6.95932  14.69411   0.00000  2       39
siesta:      6.95932  17.38257   0.00000  2       40
siesta:      9.28770  18.72698   0.00000  2       41
siesta:      9.28770  21.41544   0.00000  2       42
siesta:     11.61608  22.75985   0.00000  2       43
siesta:     11.61608  25.44831   0.00000  2       44
siesta:     -2.35420   6.62836   0.00000  2       45
siesta:     -2.35420   9.31683   0.00000  2       46
siesta:     -0.02582  10.66124   0.00000  2       47
siesta:     -4.68258  10.66124   0.00000  2       48
siesta:     -4.68258  13.34970   0.00000  2       49
siesta:     -2.35420  14.69411   0.00000  2       50
siesta:     -2.35420  17.38257   0.00000  2       51
siesta:     -0.02582  18.72698   0.00000  2       52
siesta:     -0.02582  21.41544   0.00000  2       53
siesta:      2.30256  22.75985   0.00000  2       54
siesta:      2.30256  25.44831   0.00000  2       55
siesta:     -7.01096  14.69411   0.00000  2       56
siesta:     -7.01096  17.38257   0.00000  2       57
siesta:     -4.68258  18.72698   0.00000  2       58
siesta:     -9.33934  18.72698   0.00000  2       59
siesta:     -9.33934  29.48119   0.00000  2       60
siesta:      4.63094  26.79272   0.00000  2       61
siesta:      4.63094  29.48119   0.00000  2       62
siesta:     -4.68258  26.79272   0.00000  2       63
siesta:     -4.68258  29.48119   0.00000  2       64
siesta:     -2.35420  30.82560   0.00000  2       65
siesta:     -2.35420  33.51406   0.00000  2       66
siesta:     -7.01096  30.82560   0.00000  2       67
siesta:     -7.01096  33.51406   0.00000  2       68
siesta:     -0.02582  34.85847   0.00000  2       69
siesta:     -0.02582  37.54693   0.00000  2       70
siesta:     -0.02582  42.92421   0.00000  2       71
siesta:     -0.02582  45.61267   0.00000  2       72

siesta: System type = slab      

initatomlists: Number of atoms, orbitals, and projectors:     72   936  1152

siesta: ******************** Simulation parameters ****************************
siesta:
siesta: The following are some of the parameters of the simulation.
siesta: A complete list of the parameters used, including default values,
siesta: can be found in file out.fdf
siesta:
redata: Non-Collinear-spin run           =     F
redata: SpinPolarized (Up/Down) run      =     F
redata: Number of spin components        =     1
redata: Long output                      =     F
redata: Number of Atomic Species         =        2
redata: Charge density info will appear in .RHO file
redata: Write Mulliken Pop.              =     NO
redata: Mesh Cutoff                      =   200.0000  Ry
redata: Net charge of the system         =     0.0000 |e|
redata: Max. number of SCF Iter          =      500
redata: SCF convergence failure will abort job
redata: Performing Pulay mixing using    =    10 iterations
redata: Mix DM in first SCF step ?       =     F
redata: Write Pulay info on disk?        =     F
redata: Discard 1st Pulay DM after  kick =     F
redata: New DM Mixing Weight             =     0.0500
redata: New DM Occupancy tolerance       = 0.000000000001
redata: No kicks to SCF
redata: DM Mixing Weight for Kicks       =     0.5000
redata: DM Tolerance for SCF             =     0.000100
redata: Require Energy convergence for SCF =     F
redata: DM Energy tolerance for SCF      =     0.000100 eV
redata: Require Harris convergence for SCF =     F
redata: DM Harris energy tolerance for SCF =     0.000100 eV
redata: Using Saved Data (generic)   =     F
redata: Use continuation files for DM    =     T
redata: Neglect nonoverlap interactions  =     F
redata: Method of Calculation            =     Diagonalization
redata: Divide and Conquer               =     T
redata: Electronic Temperature           =     0.0019  Ry
redata: Fix the spin of the system       =     F
redata: Dynamics option                  =     Verlet MD run
redata: Initial MD time step             =        1
redata:   Final MD time step             =        1
redata: Length of MD time step           =     1.0000  fs
redata: Initial Temperature of MD run    =     0.0000  K
redata: Perform a MD quench              =     F
redata: ***********************************************************************
Total number of electrons:   266.000000
Total ionic charge:   266.000000

* ProcessorY, Blocksize:    2  24

k-point displ. along   1 input, could be:     0.50    0.00
k-point displ. along   2 input, could be:     0.50    0.00
 Kpoints in:          231 . Kpoints trimmed:          231

siesta: k-grid: Number of k-points =   231
siesta: k-grid: Cutoff (effective) =     5.000 Ang
siesta: k-grid: Supercell and displacements
siesta: k-grid:   21   0   0      0.500
siesta: k-grid:    0  21   0      0.500
siesta: k-grid:    0   0   1      0.000
Naive supercell factors:     2    2    2

superc: Internal auxiliary supercell:     2 x     2 x     2  =       8
superc: Number of atoms, orbitals, and projectors:    576   7488   9216

* Maximum dynamic memory allocated =     4 MB

siesta:                 ==============================
                            Begin MD step =      1
                        ==============================

superc: Internal auxiliary supercell:     2 x     2 x     2  =       8
superc: Number of atoms, orbitals, and projectors:    576   7488   9216

outcell: Unit cell vectors (Ang):
       12.804619    7.392750    0.000000
        0.000000   14.785500    0.000000
        0.000000    0.000000   10.000000

outcell: Cell vector modules (Ang)   :   14.785500   14.785500   10.000000
outcell: Cell angles (23,13,12) (deg):     90.0000     90.0000     60.0000
outcell: Cell volume (Ang**3)        :   1893.2269
New_DM. Step:     1
Initializing Density Matrix...

InitMesh: MESH =   120 x   120 x    90 =     1296000
InitMesh: Mesh cutoff (required, used) =   200.000   223.865 Ry

* Maximum dynamic memory allocated =   227 MB

stepf: Fermi-Dirac step function

siesta: Program's energy decomposition (eV):
siesta: Ebs     =     -5497.064736
siesta: Eions   =     15585.763425
siesta: Ena     =      4189.338974
siesta: Ekin    =      5217.942150
siesta: Enl     =       822.685507
siesta: DEna    =        -0.000007
siesta: DUscf   =         0.000000
siesta: DUext   =         0.000000
siesta: Exc     =     -4204.597296
siesta: eta*DQ  =         0.000000
siesta: Emadel  =         0.000000
siesta: Emeta   =         0.000000
siesta: Emolmec =         0.000000
siesta: Ekinion =         0.000000
siesta: Eharris =     -9308.285189
siesta: Etot    =     -9560.394097
siesta: FreeEng =     -9560.394097

siesta: iscf   Eharris(eV)      E_KS(eV)   FreeEng(eV)   dDmax  Ef(eV)
siesta:    1    -9308.2852    -9560.3941    -9560.3941  6.5821 -8.5243
timer: Routine,Calls,Time,% = IterSCF        1    3487.471  99.66
elaps: Routine,Calls,Wall,% = IterSCF        1     436.853  99.66
siesta:    2   -13800.5820    -8551.7768    -8551.8028 22.2880 -2.6755
siesta:    3    -9238.9877    -9441.3407    -9441.3861  3.4874 -7.5561
siesta:    4    -9218.3361    -9311.4799    -9311.5151  1.5299 -6.0233
siesta:    5    -9183.3216    -9242.9035    -9242.9421  0.9958 -5.5462
siesta:    6    -9166.5124    -9189.9539    -9189.9790  0.8662 -5.3337
siesta:    7    -9155.9995    -9167.7654    -9167.8158  0.7758 -5.2285
siesta:    8    -9154.5007    -9162.3916    -9162.4398  0.7651 -5.2483
siesta:    9    -9152.3236    -9147.8208    -9147.8630  0.5343 -5.2637
siesta:   10    -9152.1716    -9138.0392    -9138.1059  0.4250 -5.2189
siesta:   11    -9151.0236    -9130.2579    -9130.3382  0.2363 -5.2242
siesta:   12    -9151.2053    -9125.9538    -9126.0064  0.2717 -5.2041
siesta:   13    -9150.5159    -9126.9537    -9127.0128  0.2534 -5.2186
siesta:   14    -9150.1958    -9131.9688    -9132.0125  0.2275 -5.2481
siesta:   15    -9150.1415    -9136.5425    -9136.5844  0.1474 -5.2477
siesta:   16    -9149.9773    -9141.1263    -9141.1703  0.0847 -5.2615
siesta:   17    -9149.9521    -9143.9725    -9144.0242  0.0538 -5.2685
siesta:   18    -9149.9296    -9146.6563    -9146.7109  0.0248 -5.2778
siesta:   19    -9149.9188    -9147.2510    -9147.3001  0.0241 -5.2734
siesta:   20    -9149.9132    -9147.8840    -9147.9355  0.0119 -5.2674
siesta:   21    -9149.9101    -9149.0107    -9149.0631  0.0085 -5.2616
siesta:   22    -9149.9092    -9149.6835    -9149.7351  0.0063 -5.2592
siesta:   23    -9149.9077    -9149.9750    -9150.0269  0.0042 -5.2584
siesta:   24    -9149.9070    -9150.0800    -9150.1323  0.0024 -5.2576
siesta:   25    -9149.9072    -9150.0777    -9150.1303  0.0019 -5.2574
siesta:   26    -9149.9070    -9150.0975    -9150.1499  0.0014 -5.2575
siesta:   27    -9149.9069    -9150.0417    -9150.0942  0.0012 -5.2576
siesta:   28    -9149.9069    -9149.9829    -9150.0354  0.0010 -5.2575
siesta:   29    -9149.9069    -9149.9416    -9149.9941  0.0008 -5.2574
siesta:   30    -9149.9069    -9149.9299    -9149.9824  0.0003 -5.2575
siesta:   31    -9149.9069    -9149.9218    -9149.9743  0.0003 -5.2576
siesta:   32    -9149.9069    -9149.9153    -9149.9678  0.0002 -5.2576
siesta:   33    -9149.9069    -9149.9161    -9149.9686  0.0001 -5.2577
siesta:   34    -9149.9069    -9149.9124    -9149.9649  0.0001 -5.2577
siesta:   35    -9149.9069    -9149.9117    -9149.9642  0.0001 -5.2576

siesta: E_KS(eV) =            -9149.9110

siesta: E_KS - E_eggbox =     -9149.9110

siesta: Atomic forces (eV/Ang):
----------------------------------------
   Tot   -0.149087   -0.157377    0.000000
----------------------------------------
   Max  559.777441
   Res  144.230452    sqrt( Sum f_i^2 / 3N )
----------------------------------------
   Max  559.777441    constrained

Stress-tensor-Voigt (kbar):     -806.91    -2659.14       -0.70      -15.17        0.00        0.00
(Free)E + p*V (eV/cell)    -7784.4732
Target enthalpy (eV/cell)    -9149.9635

siesta: Stress tensor (static) (eV/Ang**3):
        -0.503627   -0.009468    0.000000
        -0.009468   -1.659686    0.000000
         0.000000    0.000000   -0.000438

siesta: Pressure (static):       1155.58272992  kBar

siesta: Stress tensor (total) (eV/Ang**3):
        -0.503627   -0.009468    0.000000
        -0.009468   -1.659686    0.000000
         0.000000    0.000000   -0.000438

siesta: Pressure (total):       1155.58272992  kBar

siesta: Temp_ion =       0.000 K

* Maximum dynamic memory allocated =   243 MB
Computing bands...

siesta: Program's energy decomposition (eV):
siesta: Ebs     =     -4112.289645
siesta: Eions   =     15585.763425
siesta: Ena     =      4189.338974
siesta: Ekin    =      8081.275702
siesta: Enl     =      -774.936939
siesta: DEna    =      -792.153257
siesta: DUscf   =       108.613490
siesta: DUext   =         0.000000
siesta: Exc     =     -4376.285501
siesta: eta*DQ  =         0.000000
siesta: Emadel  =         0.000000
siesta: Emeta   =         0.000000
siesta: Emolmec =         0.000000
siesta: Ekinion =         0.000000
siesta: Eharris =     -9149.906875
siesta: Etot    =     -9149.910957
siesta: FreeEng =     -9149.963479

siesta: Final energy (eV):
siesta:  Band Struct. =   -4112.289645
siesta:       Kinetic =    8081.275702
siesta:       Hartree =   26559.659805
siesta:    Ext. field =       0.000000
siesta:   Exch.-corr. =   -4376.285501
siesta:  Ion-electron =  -60905.650644
siesta:       Ion-ion =   21491.089681
siesta:       Ekinion =       0.000000
siesta:         Total =   -9149.910957

siesta: Atomic forces (eV/Ang):
siesta:      1   18.931578   -4.422371    0.000000
siesta:      2   23.057154 -401.533447    0.000000
siesta:      3   -0.072230 -105.627705    0.000000
siesta:      4   16.828464  400.586755    0.000000
siesta:      5   15.416173   -2.136490    0.000000
siesta:      6    1.508406   -3.101813    0.000000
siesta:      7   -4.243484    3.440059    0.000000
siesta:      8    3.495369   -3.030891    0.000000
siesta:      9   -1.606978    3.926786    0.000000
siesta:     10   -1.024714   -3.696261    0.000000
siesta:     11    5.494037   -3.100273    0.000000
siesta:     12   -5.371758    2.824874    0.000000
siesta:     13   -4.650353   -6.863050    0.000000
siesta:     14    0.131660   -0.320821    0.000000
siesta:     15    5.351843    2.850223    0.000000
siesta:     16   -6.199377   -2.928196    0.000000
siesta:     17   -6.003682    2.737266    0.000000
siesta:     18   -5.630092    6.242088    0.000000
siesta:     19    4.437022   -1.575197    0.000000
siesta:     20    1.299934 -409.049983    0.000000
siesta:     21   18.777045   -1.160403    0.000000
siesta:     22   23.479705 -403.761041    0.000000
siesta:     23   -3.121796  405.482540    0.000000
siesta:     24    6.702569 -125.150587    0.000000
siesta:     25    1.970576  129.467128    0.000000
siesta:     26  -27.159054 -555.180746    0.000000
siesta:     27    8.274674  114.482302    0.000000
siesta:     28   19.821130 -405.956578    0.000000
siesta:     29    2.564562    1.603747    0.000000
siesta:     30    0.544207    0.737926    0.000000
siesta:     31    6.604593    4.141745    0.000000
siesta:     32   -1.057963   -1.164832    0.000000
siesta:     33  -25.940131    3.577648    0.000000
siesta:     34  -32.951493 -549.317192    0.000000
siesta:     35   14.469460  406.836645    0.000000
siesta:     36    2.959655 -120.239216    0.000000
siesta:     37   34.592302  410.705209    0.000000
siesta:     38   22.402195    4.299548    0.000000
siesta:     39   -2.073354   -2.075557    0.000000
siesta:     40    6.960526   -2.733044    0.000000
siesta:     41   -2.484795    0.324051    0.000000
siesta:     42    6.700600   -3.669194    0.000000
siesta:     43   -0.132469    7.207555    0.000000
siesta:     44    0.231272   -6.988831    0.000000
siesta:     45  -20.815749  551.112068    0.000000
siesta:     46    1.146134 -126.950643    0.000000
siesta:     47   -2.152147  543.129793    0.000000
siesta:     48  -33.918198  549.658366    0.000000
siesta:     49  -25.796753   -4.661522    0.000000
siesta:     50  -14.871180  551.306337    0.000000
siesta:     51  -22.707984   -8.112574    0.000000
siesta:     52    7.319913  559.777441    0.000000
siesta:     53    1.838107   -0.605920    0.000000
siesta:     54   -2.341939   -0.519758    0.000000
siesta:     55    1.063578    0.620301    0.000000
siesta:     56    2.622219   -1.656919    0.000000
siesta:     57   -2.773469   -2.182504    0.000000
siesta:     58    2.076796   -1.002500    0.000000
siesta:     59    2.376496   -1.461421    0.000000
siesta:     60    3.154540    1.359666    0.000000
siesta:     61   -2.332246    0.990412    0.000000
siesta:     62   -0.245754   -1.787468    0.000000
siesta:     63    0.445973    3.820758    0.000000
siesta:     64    1.372081   -2.198708    0.000000
siesta:     65  -22.682334    3.315261    0.000000
siesta:     66  -25.670295 -556.601760    0.000000
siesta:     67   -2.900580    2.027698    0.000000
siesta:     68    2.842183    2.105806    0.000000
siesta:     69    7.274114  119.360758    0.000000
siesta:     70   -1.858285 -552.985454    0.000000
siesta:     71   11.718092  134.636481    0.000000
siesta:     72   -7.615388 -549.341750    0.000000
siesta: ----------------------------------------
siesta:    Tot   -0.149087   -0.157377    0.000000

siesta: Stress tensor (static) (eV/Ang**3):
siesta:    -0.503627   -0.009468    0.000000
siesta:    -0.009468   -1.659686    0.000000
siesta:     0.000000    0.000000   -0.000438

siesta: Cell volume =       1893.226884 Ang**3

siesta: Pressure (static):
siesta:                Solid            Molecule  Units
siesta:           0.00785534          0.11032713  Ry/Bohr**3
siesta:           0.72125021         10.12986196  eV/Ang**3
siesta:        1155.58272992      16230.00355866  kBar
(Free)E+ p_basis*V_orbitals  =       -9112.274887
(Free)Eharris+ p_basis*V_orbitals  =       -9112.270056

siesta: Electric dipole (a.u.)  =    0.000000    0.000000    0.000000
siesta: Electric dipole (Debye) =    0.000000    0.000000    0.000000

* Maximum dynamic memory allocated : Node    0 =   243 MB
* Maximum dynamic memory allocated : Node    1 =    85 MB
* Maximum dynamic memory allocated : Node    2 =    89 MB
* Maximum dynamic memory allocated : Node    3 =   232 MB
* Maximum dynamic memory allocated : Node    4 =   228 MB
* Maximum dynamic memory allocated : Node    5 =    83 MB
* Maximum dynamic memory allocated : Node    6 =    85 MB
* Maximum dynamic memory allocated : Node    7 =   209 MB

* Maximum memory occured during matrixMtoO                    

timer: CPU execution times:
timer:  Routine       Calls   Time/call    Tot.time        %
timer:  siesta            1  121618.133  121618.133   100.00
timer:  Setup             1       3.827       3.827     0.00
timer:  bands             3     243.968     731.904     0.60
timer:  writewave         1       0.047       0.047     0.00
timer:  KSV_init          1       0.007       0.007     0.00
timer:  IterMD            1  120877.202  120877.202    99.39
timer:  hsparse           1       0.512       0.512     0.00
timer:  overlap           1       7.204       7.204     0.01
timer:  IterSCF          35    3447.552  120664.332    99.22
timer:  kinefsm           2       3.751       7.502     0.01
timer:  nlefsm            2      20.233      40.465     0.03
timer:  DHSCF            36     109.412    3938.826     3.24
timer:  DHSCF1            1       0.992       0.992     0.00
timer:  DHSCF2            1      42.783      42.783     0.04
timer:  REORD           290       0.005       1.449     0.00
timer:  POISON           37       0.879      32.530     0.03
timer:  DHSCF3           36     107.021    3852.770     3.17
timer:  rhoofd           36      24.107     867.854     0.71
timer:  cellXC           36       3.263     117.458     0.10
timer:  vmat             36      50.903    1832.518     1.51
timer:  MolMec            2       0.000       0.001     0.00
timer:  diagon           35    3337.043  116796.506    96.04
timer:  c-eigval       8206       6.035   49526.336    40.72
timer:  c-buildHS      8206       0.053     437.930     0.36
timer:  cdiag         16291       6.184  100742.228    82.83
timer:  cdiag1        16291       0.385    6267.921     5.15
timer:  cdiag2        16291       1.770   28842.252    23.72
timer:  cdiag3        16291       3.731   60784.436    49.98
timer:  cdiag4        16291       0.156    2547.734     2.09
timer:  c-eigvec       8085       6.433   52012.593    42.77
timer:  c-buildD       8085       1.973   15948.651    13.11
timer:  DHSCF4            1      41.561      41.561     0.03
timer:  dfscf             1      38.747      38.747     0.03
timer:  overfsm           1       0.461       0.461     0.00
timer:  optical           1       4.571       4.571     0.00
  

elaps: ELAPSED times:
elaps:  Routine       Calls   Time/call    Tot.time        %
elaps:  siesta            1   15231.116   15231.116   100.00
elaps:  Setup             1       0.497       0.497     0.00
elaps:  bands             3      30.573      91.718     0.60
elaps:  writewave         1       0.006       0.006     0.00
elaps:  KSV_init          1       0.001       0.001     0.00
elaps:  IterMD            1   15138.300   15138.300    99.39
elaps:  hsparse           1       0.066       0.066     0.00
elaps:  overlap           1       0.901       0.901     0.01
elaps:  IterSCF          35     431.765   15111.778    99.22
elaps:  kinefsm           2       0.469       0.937     0.01
elaps:  nlefsm            2       2.634       5.269     0.03
elaps:  DHSCF            36      13.844     498.394     3.27
elaps:  DHSCF1            1       0.127       0.127     0.00
elaps:  DHSCF2            1       5.357       5.357     0.04
elaps:  REORD           290       0.001       0.192     0.00
elaps:  POISON           37       0.111       4.102     0.03
elaps:  DHSCF3           36      13.403     482.515     3.17
elaps:  rhoofd           36       6.486     233.495     1.53
elaps:  cellXC           36       0.408      14.695     0.10
elaps:  vmat             36       6.375     229.507     1.51
elaps:  MolMec            2       0.000       0.000     0.00
elaps:  diagon           35     417.916   14627.062    96.03
elaps:  c-eigval       8206       0.756    6202.346    40.72
elaps:  c-buildHS      8206       0.008      63.553     0.42
elaps:  cdiag         16291       0.771   12562.917    82.48
elaps:  cdiag1        16291       0.048     780.337     5.12
elaps:  cdiag2        16291       0.222    3612.801    23.72
elaps:  cdiag3        16291       0.468    7622.460    50.05
elaps:  cdiag4        16291       0.019     316.498     2.08
elaps:  c-eigvec       8085       0.802    6481.240    42.55
elaps:  c-buildD       8085       0.251    2029.509    13.32
elaps:  DHSCF4            1      10.306      10.306     0.07
elaps:  dfscf             1       9.737       9.737     0.06
elaps:  overfsm           1       0.057       0.057     0.00
elaps:  optical           1       0.001       0.001     0.00
  
>> End of run:  25-APR-2016   4:20:41
