Siesta Version:                                        siesta-3.2-pl-3
Architecture  : x86_64-unknown-linux-gnu--unknown
Compiler flags: mpiifort -g -O2 -fPIC -xSSE4.1 -fp-model source -shared-intel 
PARALLEL version

* Running on   12 nodes in parallel
>> Start of run:   5-MAY-2016   1:31:27

                           ***********************       
                           *  WELCOME TO SIESTA  *       
                           ***********************       

reinit: Reading from standard input
************************** Dump of input data file ****************************
#(1) General system descriptors
SystemName            GRP_doping    # Descriptive name of the system
SystemLabel           GRP_doping    # Short name for naming files
%include STRUCT.fdf
%include KPT.fdf
%include BASIS.fdf
#%include TS.fdf # for transiesta calculation
#(4) DFT, Grid, SCF
XC.functional         GGA           # LDA or GGA (default = LDA)
XC.authors            PBE           # CA (Ceperley-Aldr) = PZ
                                    #    (Perdew-Zunger) - LDA - Default
                                    # PW92 (Perdew-Wang-92) - LDA
                                    # PBE (Perdew-Burke-Ernzerhof) - GGA
MeshCutoff            200.000000    Ry      # Default: 50.0 Ry ~ 0.444 Bohr
                                    #         100.0 Ry ~ 0.314 Bohr
MaxSCFIterations      500           # Default: 50
DM.MixingWeight       0.05          # Default: 0.25
DM.NumberPulay        10            # Default: 0
DM.PulayOnFile        F             # SystemLabel.P1, SystemLabel.P2
DM.Tolerance          1.d-4         # Default: 1.d-4
DM.UseSaveDM          .true.        # because of the bug
SCFMustConverge       .true.
NeglNonOverlapInt     F             # Default: F
#(5) Eigenvalue problem: order-N or diagonalization
SolutionMethod        Diagon        # or Transiesta
ElectronicTemperature 300.0 K       # Default: 300.0 K
#(6) Molecular dynamics and relaxations
#MD.TypeOfRun          CG            # Type of dynamics:
#MD.VariableCell       F
#MD.NumCGsteps         0           # 0 for single-point / 100 for gopt
#MD.MaxCGDispl         0.2 Bohr      # Default: 0.2 Bohr
#MD.MaxForceTol        0.02 eV/Ang   # Default: 0.04 eV/Ang
#MD.MaxStressTol       1.0 GPa       # Default: 1.0 GPa
# Geometry Constraints
#%block GeometryConstraints
#	position from 1 to 44
#%endblock GeometryConstraints
BandLinesScale   pi/a
%block BandLines
 1   0.00000000  0.00000000  0.00000000
50   0.00000000  0.07809418  0.00000000
50   0.04509075  0.07809242  0.00000000
20   0.00000000  0.00000000  0.00000000
%endblock BandLines
************************** End of input data file *****************************

reinit: -----------------------------------------------------------------------
reinit: System Name: GRP_doping
reinit: -----------------------------------------------------------------------
reinit: System Label: GRP_doping                                                  
reinit: -----------------------------------------------------------------------

initatom: Reading input for the pseudopotentials and atomic orbitals ----------
 Species number:            1  Label: B Atomic number:           5
 Species number:            2  Label: C Atomic number:           6
Ground state valence configuration:   2s02  2p01
Reading pseudopotential information in formatted form from B.psf

Valence configuration for pseudopotential generation:
2s( 2.00) rc: 1.74
2p( 1.00) rc: 1.74
3d( 0.00) rc: 1.74
4f( 0.00) rc: 1.74
Ground state valence configuration:   2s02  2p02
Reading pseudopotential information in formatted form from C.psf

Valence configuration for pseudopotential generation:
2s( 2.00) rc: 1.54
2p( 2.00) rc: 1.54
3d( 0.00) rc: 1.54
4f( 0.00) rc: 1.54
For B, standard SIESTA heuristics set lmxkb to 3
 (one more than the basis l, including polarization orbitals).
Use PS.lmax or PS.KBprojectors blocks to override.
For C, standard SIESTA heuristics set lmxkb to 3
 (one more than the basis l, including polarization orbitals).
Use PS.lmax or PS.KBprojectors blocks to override.

<basis_specs>
===============================================================================
B                    Z=   5    Mass=  10.810        Charge= 0.17977+309
Lmxo=1 Lmxkb= 3    BasisType=split      Semic=F
L=0  Nsemic=0  Cnfigmx=2
          n=1  nzeta=2  polorb=0
            splnorm:   0.15000    
               vcte:    0.0000    
               rinn:    0.0000    
                rcs:    0.0000      0.0000    
            lambdas:    1.0000      1.0000    
L=1  Nsemic=0  Cnfigmx=2
          n=1  nzeta=2  polorb=1
            splnorm:   0.15000    
               vcte:    0.0000    
               rinn:    0.0000    
                rcs:    0.0000      0.0000    
            lambdas:    1.0000      1.0000    
-------------------------------------------------------------------------------
L=0  Nkbl=1  erefs: 0.17977+309
L=1  Nkbl=1  erefs: 0.17977+309
L=2  Nkbl=1  erefs: 0.17977+309
L=3  Nkbl=1  erefs: 0.17977+309
===============================================================================
</basis_specs>

atom: Called for B                     (Z =   5)

read_vps: Pseudopotential generation method:
read_vps: ATM3      Troullier-Martins                       
Total valence charge:    3.00000

read_vps: Pseudopotential includes a core correction:
read_vps: Pseudo-core for xc-correction

xc_check: Exchange-correlation functional:
xc_check: GGA Perdew, Burke & Ernzerhof 1996
V l=0 = -2*Zval/r beyond r=  1.7165
V l=1 = -2*Zval/r beyond r=  1.7165
V l=2 = -2*Zval/r beyond r=  1.7165
V l=3 = -2*Zval/r beyond r=  1.6951
All V_l potentials equal beyond r=  1.7165
This should be close to max(r_c) in ps generation
All pots = -2*Zval/r beyond r=  1.7165

VLOCAL1: 99.0% of the norm of Vloc inside     14.733 Ry
VLOCAL1: 99.9% of the norm of Vloc inside     33.577 Ry
atom: Maximum radius for 4*pi*r*r*local-pseudopot. charge    2.04484
atom: Maximum radius for r*vlocal+2*Zval:    1.75994
GHOST: No ghost state for L =  0
GHOST: No ghost state for L =  1
GHOST: No ghost state for L =  2
GHOST: No ghost state for L =  3

KBgen: Kleinman-Bylander projectors: 
   l= 0   rc=  1.897051   el= -0.693730   Ekb=  4.595746   kbcos=  0.286105
   l= 1   rc=  1.920920   el= -0.265236   Ekb= -2.350715   kbcos= -0.315747
   l= 2   rc=  2.044840   el=  0.002055   Ekb= -0.690767   kbcos= -0.013822
   l= 3   rc=  2.149707   el=  0.003188   Ekb= -0.315358   kbcos= -0.002055

KBgen: Total number of  Kleinman-Bylander projectors:   16
atom: -------------------------------------------------------------------------

atom: SANKEY-TYPE ORBITALS:
atom: Selected multiple-zeta basis: split     

SPLIT: Orbitals with angular momentum L= 0

SPLIT: Basis orbitals for state 2s

SPLIT: PAO cut-off radius determined from an
SPLIT: energy shift=  0.007350 Ry

   izeta = 1
                 lambda =    1.000000
                     rc =    5.422032
                 energy =   -0.686029
                kinetic =    0.576707
    potential(screened) =   -1.262736
       potential(ionic) =   -3.271094

   izeta = 2
                 rmatch =    4.222573
              splitnorm =    0.150000
                 energy =   -0.602132
                kinetic =    0.858975
    potential(screened) =   -1.461107
       potential(ionic) =   -3.582536

SPLIT: Orbitals with angular momentum L= 1

SPLIT: Basis orbitals for state 2p

SPLIT: PAO cut-off radius determined from an
SPLIT: energy shift=  0.007350 Ry

   izeta = 1
                 lambda =    1.000000
                     rc =    6.790259
                 energy =   -0.258578
                kinetic =    1.481412
    potential(screened) =   -1.739989
       potential(ionic) =   -3.657461

   izeta = 2
                 rmatch =    4.608740
              splitnorm =    0.150000
                 energy =   -0.173757
                kinetic =    2.186690
    potential(screened) =   -2.360447
       potential(ionic) =   -4.464260

POLgen: Perturbative polarization orbital with L=  2

POLgen: Polarization orbital for state 2p

   izeta = 1
                     rc =    6.790259
                 energy =    0.684082
                kinetic =    1.471481
    potential(screened) =   -0.787399
       potential(ionic) =   -2.406985
atom: Total number of Sankey-type orbitals: 13

atm_pop: Valence configuration (for local Pseudopot. screening):
 2s( 2.00)                                                            
 2p( 1.00)                                                            
Vna: chval, zval:    3.00000   3.00000

Vna:  Cut-off radius for the neutral-atom potential:   6.790259
comcore: Pseudo-core radius Rcore=  2.122997

atom: _________________________________________________________________________

<basis_specs>
===============================================================================
C                    Z=   6    Mass=  12.010        Charge= 0.17977+309
Lmxo=1 Lmxkb= 3    BasisType=split      Semic=F
L=0  Nsemic=0  Cnfigmx=2
          n=1  nzeta=2  polorb=0
            splnorm:   0.15000    
               vcte:    0.0000    
               rinn:    0.0000    
                rcs:    0.0000      0.0000    
            lambdas:    1.0000      1.0000    
L=1  Nsemic=0  Cnfigmx=2
          n=1  nzeta=2  polorb=1
            splnorm:   0.15000    
               vcte:    0.0000    
               rinn:    0.0000    
                rcs:    0.0000      0.0000    
            lambdas:    1.0000      1.0000    
-------------------------------------------------------------------------------
L=0  Nkbl=1  erefs: 0.17977+309
L=1  Nkbl=1  erefs: 0.17977+309
L=2  Nkbl=1  erefs: 0.17977+309
L=3  Nkbl=1  erefs: 0.17977+309
===============================================================================
</basis_specs>

atom: Called for C                     (Z =   6)

read_vps: Pseudopotential generation method:
read_vps: ATM3      Troullier-Martins                       
Total valence charge:    4.00000

read_vps: Pseudopotential includes a core correction:
read_vps: Pseudo-core for xc-correction

xc_check: Exchange-correlation functional:
xc_check: GGA Perdew, Burke & Ernzerhof 1996
V l=0 = -2*Zval/r beyond r=  1.5227
V l=1 = -2*Zval/r beyond r=  1.5227
V l=2 = -2*Zval/r beyond r=  1.5227
V l=3 = -2*Zval/r beyond r=  1.5038
All V_l potentials equal beyond r=  1.5227
This should be close to max(r_c) in ps generation
All pots = -2*Zval/r beyond r=  1.5227

VLOCAL1: 99.0% of the norm of Vloc inside     18.722 Ry
VLOCAL1: 99.9% of the norm of Vloc inside     42.668 Ry
atom: Maximum radius for 4*pi*r*r*local-pseudopot. charge    1.83678
atom: Maximum radius for r*vlocal+2*Zval:    1.58088
GHOST: No ghost state for L =  0
GHOST: No ghost state for L =  1
GHOST: No ghost state for L =  2
GHOST: No ghost state for L =  3

KBgen: Kleinman-Bylander projectors: 
   l= 0   rc=  1.704034   el= -1.009801   Ekb=  5.335044   kbcos=  0.316824
   l= 1   rc=  1.704034   el= -0.388707   Ekb= -3.785862   kbcos= -0.366464
   l= 2   rc=  1.791422   el=  0.001971   Ekb= -0.970471   kbcos= -0.009212
   l= 3   rc=  1.859892   el=  0.003065   Ekb= -0.399525   kbcos= -0.001223

KBgen: Total number of  Kleinman-Bylander projectors:   16
atom: -------------------------------------------------------------------------

atom: SANKEY-TYPE ORBITALS:
atom: Selected multiple-zeta basis: split     

SPLIT: Orbitals with angular momentum L= 0

SPLIT: Basis orbitals for state 2s

SPLIT: PAO cut-off radius determined from an
SPLIT: energy shift=  0.007350 Ry

   izeta = 1
                 lambda =    1.000000
                     rc =    4.632753
                 energy =   -1.002270
                kinetic =    0.855760
    potential(screened) =   -1.858031
       potential(ionic) =   -5.417575

   izeta = 2
                 rmatch =    3.431921
              splitnorm =    0.150000
                 energy =   -0.867111
                kinetic =    1.300804
    potential(screened) =   -2.167915
       potential(ionic) =   -5.962684

SPLIT: Orbitals with angular momentum L= 1

SPLIT: Basis orbitals for state 2p

SPLIT: PAO cut-off radius determined from an
SPLIT: energy shift=  0.007350 Ry

   izeta = 1
                 lambda =    1.000000
                     rc =    5.658549
                 energy =   -0.381140
                kinetic =    2.399701
    potential(screened) =   -2.780841
       potential(ionic) =   -6.206085

   izeta = 2
                 rmatch =    3.653288
              splitnorm =    0.150000
                 energy =   -0.249149
                kinetic =    3.542762
    potential(screened) =   -3.791911
       potential(ionic) =   -7.581078

POLgen: Perturbative polarization orbital with L=  2

POLgen: Polarization orbital for state 2p

   izeta = 1
                     rc =    5.658549
                 energy =    1.109913
                kinetic =    2.304789
    potential(screened) =   -1.194876
       potential(ionic) =   -4.013592
atom: Total number of Sankey-type orbitals: 13

atm_pop: Valence configuration (for local Pseudopot. screening):
 2s( 2.00)                                                            
 2p( 2.00)                                                            
Vna: chval, zval:    4.00000   4.00000

Vna:  Cut-off radius for the neutral-atom potential:   5.658549
comcore: Pseudo-core radius Rcore=  1.791422

atom: _________________________________________________________________________

prinput: Basis input ----------------------------------------------------------

PAO.BasisType split     

%block ChemicalSpeciesLabel
    1    5 B                       # Species index, atomic number, species label
    2    6 C                       # Species index, atomic number, species label
%endblock ChemicalSpeciesLabel

%block PAO.Basis                 # Define Basis set
B                     2                    # Species label, number of l-shells
 n=2   0   2                         # n, l, Nzeta 
   5.422      4.223   
   1.000      1.000   
 n=2   1   2 P   1                   # n, l, Nzeta, Polarization, NzetaPol
   6.790      4.609   
   1.000      1.000   
C                     2                    # Species label, number of l-shells
 n=2   0   2                         # n, l, Nzeta 
   4.633      3.432   
   1.000      1.000   
 n=2   1   2 P   1                   # n, l, Nzeta, Polarization, NzetaPol
   5.659      3.653   
   1.000      1.000   
%endblock PAO.Basis

prinput: ----------------------------------------------------------------------

coor:   Atomic-coordinates input format  =     Fractional

siesta: Atomic coordinates (Bohr) and species
siesta:      2.30256  17.38257   0.00000  1        1
siesta:      4.63094  18.72698   0.00000  1        2
siesta:     -2.35420  17.38257   0.00000  1        3
siesta:     -0.02582  18.72698   0.00000  1        4
siesta:      2.30256  22.75985   0.00000  1        5
siesta:      2.30256  25.44831   0.00000  1        6
siesta:     -4.68258  18.72698   0.00000  1        7
siesta:     -4.68258  21.41544   0.00000  1        8
siesta:     -2.35420  22.75985   0.00000  1        9
siesta:     -2.35420  25.44831   0.00000  1       10
siesta:     -0.02582  26.79272   0.00000  1       11
siesta:     -0.02582   2.59549   0.00000  2       12
siesta:     -0.02582   5.28395   0.00000  2       13
siesta:     -2.35420  38.89134   0.00000  2       14
siesta:     -2.35420  41.57980   0.00000  2       15
siesta:      2.30256  38.89134   0.00000  2       16
siesta:      2.30256  41.57980   0.00000  2       17
siesta:      4.63094  34.85847   0.00000  2       18
siesta:      4.63094  37.54693   0.00000  2       19
siesta:      6.95932  30.82560   0.00000  2       20
siesta:      6.95932  33.51406   0.00000  2       21
siesta:      9.28770  26.79272   0.00000  2       22
siesta:      9.28770  29.48119   0.00000  2       23
siesta:     -4.68258  34.85847   0.00000  2       24
siesta:     -4.68258  37.54693   0.00000  2       25
siesta:      2.30256   6.62836   0.00000  2       26
siesta:      2.30256   9.31683   0.00000  2       27
siesta:      4.63094  10.66124   0.00000  2       28
siesta:      4.63094  13.34970   0.00000  2       29
siesta:      6.95932  14.69411   0.00000  2       30
siesta:      6.95932  17.38257   0.00000  2       31
siesta:      9.28770  18.72698   0.00000  2       32
siesta:      9.28770  21.41544   0.00000  2       33
siesta:     11.61608  22.75985   0.00000  2       34
siesta:     11.61608  25.44831   0.00000  2       35
siesta:     -2.35420   6.62836   0.00000  2       36
siesta:     -2.35420   9.31683   0.00000  2       37
siesta:     -0.02582  10.66124   0.00000  2       38
siesta:     -0.02582  13.34970   0.00000  2       39
siesta:      2.30256  14.69411   0.00000  2       40
siesta:      4.63094  21.41544   0.00000  2       41
siesta:      6.95932  22.75985   0.00000  2       42
siesta:      6.95932  25.44831   0.00000  2       43
siesta:     -4.68258  10.66124   0.00000  2       44
siesta:     -4.68258  13.34970   0.00000  2       45
siesta:     -2.35420  14.69411   0.00000  2       46
siesta:     -0.02582  21.41544   0.00000  2       47
siesta:     -7.01096  14.69411   0.00000  2       48
siesta:     -7.01096  17.38257   0.00000  2       49
siesta:     -9.33934  18.72698   0.00000  2       50
siesta:     -9.33934  21.41544   0.00000  2       51
siesta:     -7.01096  22.75985   0.00000  2       52
siesta:     -7.01096  25.44831   0.00000  2       53
siesta:    -11.66772  22.75985   0.00000  2       54
siesta:    -11.66772  25.44831   0.00000  2       55
siesta:     -9.33934  26.79272   0.00000  2       56
siesta:     -9.33934  29.48119   0.00000  2       57
siesta:      4.63094  26.79272   0.00000  2       58
siesta:      4.63094  29.48119   0.00000  2       59
siesta:     -0.02582  29.48119   0.00000  2       60
siesta:     -4.68258  26.79272   0.00000  2       61
siesta:     -4.68258  29.48119   0.00000  2       62
siesta:      2.30256  30.82560   0.00000  2       63
siesta:      2.30256  33.51406   0.00000  2       64
siesta:     -2.35420  30.82560   0.00000  2       65
siesta:     -2.35420  33.51406   0.00000  2       66
siesta:     -7.01096  30.82560   0.00000  2       67
siesta:     -7.01096  33.51406   0.00000  2       68
siesta:     -0.02582  34.85847   0.00000  2       69
siesta:     -0.02582  37.54693   0.00000  2       70
siesta:     -0.02582  42.92421   0.00000  2       71
siesta:     -0.02582  45.61267   0.00000  2       72

siesta: System type = slab      

initatomlists: Number of atoms, orbitals, and projectors:     72   936  1152

siesta: ******************** Simulation parameters ****************************
siesta:
siesta: The following are some of the parameters of the simulation.
siesta: A complete list of the parameters used, including default values,
siesta: can be found in file out.fdf
siesta:
redata: Non-Collinear-spin run           =     F
redata: SpinPolarized (Up/Down) run      =     F
redata: Number of spin components        =     1
redata: Long output                      =     F
redata: Number of Atomic Species         =        2
redata: Charge density info will appear in .RHO file
redata: Write Mulliken Pop.              =     NO
redata: Mesh Cutoff                      =   200.0000  Ry
redata: Net charge of the system         =     0.0000 |e|
redata: Max. number of SCF Iter          =      500
redata: SCF convergence failure will abort job
redata: Performing Pulay mixing using    =    10 iterations
redata: Mix DM in first SCF step ?       =     F
redata: Write Pulay info on disk?        =     F
redata: Discard 1st Pulay DM after  kick =     F
redata: New DM Mixing Weight             =     0.0500
redata: New DM Occupancy tolerance       = 0.000000000001
redata: No kicks to SCF
redata: DM Mixing Weight for Kicks       =     0.5000
redata: DM Tolerance for SCF             =     0.000100
redata: Require Energy convergence for SCF =     F
redata: DM Energy tolerance for SCF      =     0.000100 eV
redata: Require Harris convergence for SCF =     F
redata: DM Harris energy tolerance for SCF =     0.000100 eV
redata: Using Saved Data (generic)   =     F
redata: Use continuation files for DM    =     T
redata: Neglect nonoverlap interactions  =     F
redata: Method of Calculation            =     Diagonalization
redata: Divide and Conquer               =     T
redata: Electronic Temperature           =     0.0019  Ry
redata: Fix the spin of the system       =     F
redata: Dynamics option                  =     Verlet MD run
redata: Initial MD time step             =        1
redata:   Final MD time step             =        1
redata: Length of MD time step           =     1.0000  fs
redata: Initial Temperature of MD run    =     0.0000  K
redata: Perform a MD quench              =     F
redata: ***********************************************************************
Total number of electrons:   277.000000
Total ionic charge:   277.000000

* ProcessorY, Blocksize:    3  24

k-point displ. along   1 input, could be:     0.50    0.00
k-point displ. along   2 input, could be:     0.50    0.00
 Kpoints in:          231 . Kpoints trimmed:          231

siesta: k-grid: Number of k-points =   231
siesta: k-grid: Cutoff (effective) =     5.000 Ang
siesta: k-grid: Supercell and displacements
siesta: k-grid:   21   0   0      0.500
siesta: k-grid:    0  21   0      0.500
siesta: k-grid:    0   0   1      0.000
Naive supercell factors:     2    2    2

superc: Internal auxiliary supercell:     2 x     2 x     2  =       8
superc: Number of atoms, orbitals, and projectors:    576   7488   9216

* Maximum dynamic memory allocated =     4 MB

siesta:                 ==============================
                            Begin MD step =      1
                        ==============================

superc: Internal auxiliary supercell:     2 x     2 x     2  =       8
superc: Number of atoms, orbitals, and projectors:    576   7488   9216

outcell: Unit cell vectors (Ang):
       12.804619    7.392750    0.000000
        0.000000   14.785500    0.000000
        0.000000    0.000000   10.000000

outcell: Cell vector modules (Ang)   :   14.785500   14.785500   10.000000
outcell: Cell angles (23,13,12) (deg):     90.0000     90.0000     60.0000
outcell: Cell volume (Ang**3)        :   1893.2269
New_DM. Step:     1
Initializing Density Matrix...

InitMesh: MESH =   120 x   120 x    90 =     1296000
InitMesh: Mesh cutoff (required, used) =   200.000   223.865 Ry

* Maximum dynamic memory allocated =   149 MB

stepf: Fermi-Dirac step function

siesta: Program's energy decomposition (eV):
siesta: Ebs     =     -5708.232870
siesta: Eions   =     16994.387248
siesta: Ena     =      4455.656660
siesta: Ekin    =      5798.058349
siesta: Enl     =       722.681364
siesta: DEna    =        -0.000011
siesta: DUscf   =         0.000000
siesta: DUext   =         0.000000
siesta: Exc     =     -4189.175095
siesta: eta*DQ  =         0.000000
siesta: Emadel  =         0.000000
siesta: Emeta   =         0.000000
siesta: Emolmec =         0.000000
siesta: Ekinion =         0.000000
siesta: Eharris =     -9904.674953
siesta: Etot    =    -10207.165980
siesta: FreeEng =    -10207.165980

siesta: iscf   Eharris(eV)      E_KS(eV)   FreeEng(eV)   dDmax  Ef(eV)
siesta:    1    -9904.6750   -10207.1660   -10207.1660  6.5265 -8.0949
timer: Routine,Calls,Time,% = IterSCF        1    5331.889  99.77
elaps: Routine,Calls,Wall,% = IterSCF        1     464.734  99.77
siesta:    2   -14324.9445    -9221.9703    -9222.0560 16.7954 -3.0297
siesta:    3    -9844.5514   -10061.1693   -10061.2140  3.5197 -6.8947
siesta:    4    -9820.8213    -9901.1713    -9901.2077  1.2667 -5.5072
siesta:    5    -9778.3572    -9834.4771    -9834.4925  0.8011 -5.2316
siesta:    6    -9762.3862    -9793.4730    -9793.4872  0.7112 -5.0891
siesta:    7    -9759.7394    -9788.8210    -9788.8575  0.6782 -5.0703
siesta:    8    -9755.2916    -9768.3466    -9768.3837  0.5190 -5.1641
siesta:    9    -9753.7250    -9762.3778    -9762.4261  0.4806 -5.1277
siesta:   10    -9752.9671    -9756.2561    -9756.3398  0.3964 -5.0662
siesta:   11    -9752.1538    -9740.4766    -9740.5607  0.1981 -4.8885
siesta:   12    -9752.7318    -9730.8404    -9730.9133  0.1794 -4.8194
siesta:   13    -9752.6087    -9727.7061    -9727.7910  0.1417 -4.8309
siesta:   14    -9751.9778    -9733.3449    -9733.4120  0.0885 -4.8353
siesta:   15    -9751.7019    -9736.0957    -9736.1578  0.0769 -4.8632
siesta:   16    -9751.5155    -9740.5082    -9740.5685  0.0592 -4.8979
siesta:   17    -9751.4453    -9742.8683    -9742.9307  0.0469 -4.8925
siesta:   18    -9751.4303    -9743.6758    -9743.7414  0.0367 -4.8918
siesta:   19    -9751.4217    -9747.2190    -9747.2849  0.0285 -4.8916
siesta:   20    -9751.4103    -9748.5619    -9748.6288  0.0170 -4.8921
siesta:   21    -9751.4087    -9749.5824    -9749.6490  0.0176 -4.8937
siesta:   22    -9751.4072    -9750.2499    -9750.3174  0.0089 -4.8922
siesta:   23    -9751.4046    -9751.0326    -9751.1007  0.0057 -4.8881
siesta:   24    -9751.4044    -9751.3227    -9751.3925  0.0053 -4.8869
siesta:   25    -9751.4039    -9751.4088    -9751.4781  0.0045 -4.8862
siesta:   26    -9751.4038    -9751.2908    -9751.3602  0.0029 -4.8865
siesta:   27    -9751.4036    -9751.4467    -9751.5161  0.0018 -4.8874
siesta:   28    -9751.4037    -9751.4908    -9751.5603  0.0015 -4.8884
siesta:   29    -9751.4037    -9751.4883    -9751.5576  0.0013 -4.8887
siesta:   30    -9751.4037    -9751.4577    -9751.5270  0.0010 -4.8884
siesta:   31    -9751.4037    -9751.4469    -9751.5161  0.0008 -4.8883
siesta:   32    -9751.4037    -9751.4342    -9751.5034  0.0004 -4.8882
siesta:   33    -9751.4037    -9751.4153    -9751.4845  0.0003 -4.8882
siesta:   34    -9751.4037    -9751.4058    -9751.4750  0.0001 -4.8882
siesta:   35    -9751.4037    -9751.4061    -9751.4753  0.0001 -4.8882

siesta: E_KS(eV) =            -9751.4064

siesta: E_KS - E_eggbox =     -9751.4064

siesta: Atomic forces (eV/Ang):
----------------------------------------
   Tot   -0.149425    0.032520    0.000000
----------------------------------------
   Max  563.720685
   Res  157.283413    sqrt( Sum f_i^2 / 3N )
----------------------------------------
   Max  563.720685    constrained

Stress-tensor-Voigt (kbar):     -786.96    -2828.63       -0.47       -0.38        0.00        0.00
(Free)E + p*V (eV/cell)    -8327.1766
Target enthalpy (eV/cell)    -9751.4756

siesta: Stress tensor (static) (eV/Ang**3):
        -0.491174   -0.000235    0.000000
        -0.000235   -1.765472    0.000000
         0.000000    0.000000   -0.000293

siesta: Pressure (static):       1205.35119259  kBar

siesta: Stress tensor (total) (eV/Ang**3):
        -0.491174   -0.000235    0.000000
        -0.000235   -1.765472    0.000000
         0.000000    0.000000   -0.000293

siesta: Pressure (total):       1205.35119259  kBar

siesta: Temp_ion =       0.000 K

* Maximum dynamic memory allocated =   161 MB
Computing bands...

siesta: Program's energy decomposition (eV):
siesta: Ebs     =     -4341.514410
siesta: Eions   =     16994.387248
siesta: Ena     =      4455.656660
siesta: Ekin    =      8742.770293
siesta: Enl     =      -895.607081
siesta: DEna    =      -803.267521
siesta: DUscf   =       107.023671
siesta: DUext   =         0.000000
siesta: Exc     =     -4363.595172
siesta: eta*DQ  =         0.000000
siesta: Emadel  =         0.000000
siesta: Emeta   =         0.000000
siesta: Emolmec =         0.000000
siesta: Ekinion =         0.000000
siesta: Eharris =     -9751.403727
siesta: Etot    =     -9751.406398
siesta: FreeEng =     -9751.475628

siesta: Final energy (eV):
siesta:  Band Struct. =   -4341.514410
siesta:       Kinetic =    8742.770293
siesta:       Hartree =   28618.281188
siesta:    Ext. field =       0.000000
siesta:   Exch.-corr. =   -4363.595172
siesta:  Ion-electron =  -65650.239581
siesta:       Ion-ion =   22901.376875
siesta:       Ekinion =       0.000000
siesta:         Total =   -9751.406398

siesta: Atomic forces (eV/Ang):
siesta:      1   16.423632   -3.530315    0.000000
siesta:      2    2.237354    2.406285    0.000000
siesta:      3  -16.930167   -3.215912    0.000000
siesta:      4    0.152721  414.156132    0.000000
siesta:      5    0.287844   -5.234545    0.000000
siesta:      6    3.852958    4.007113    0.000000
siesta:      7   -0.844896   -3.090663    0.000000
siesta:      8   -5.251865    3.668178    0.000000
siesta:      9    6.151653   -4.995503    0.000000
siesta:     10   -5.193986    3.953656    0.000000
siesta:     11    0.227133    3.348289    0.000000
siesta:     12    0.262605  551.075688    0.000000
siesta:     13    0.136783 -127.302718    0.000000
siesta:     14    1.643532  126.420466    0.000000
siesta:     15  -17.207277 -552.302512    0.000000
siesta:     16   -1.700107  126.725979    0.000000
siesta:     17   17.085738 -552.415966    0.000000
siesta:     18   26.762306    5.817037    0.000000
siesta:     19   34.333023 -549.187013    0.000000
siesta:     20    1.983618    0.328244    0.000000
siesta:     21   -2.282903    1.748750    0.000000
siesta:     22    2.241065    1.492065    0.000000
siesta:     23   -0.976588    0.763250    0.000000
siesta:     24  -26.726654    5.730727    0.000000
siesta:     25  -34.042247 -549.088929    0.000000
siesta:     26   14.852972  547.566296    0.000000
siesta:     27   -2.399428 -126.952898    0.000000
siesta:     28   31.615289  548.876556    0.000000
siesta:     29   26.300713   -3.803800    0.000000
siesta:     30   -2.898959   -2.006255    0.000000
siesta:     31    7.036953   -2.315544    0.000000
siesta:     32   -1.983672   -0.463585    0.000000
siesta:     33    2.974660   -1.628347    0.000000
siesta:     34   -0.453283    7.184036    0.000000
siesta:     35   -0.144458   -7.320766    0.000000
siesta:     36  -14.872977  547.378443    0.000000
siesta:     37    2.542425 -126.982909    0.000000
siesta:     38    0.046822  545.485225    0.000000
siesta:     39   -0.006980 -123.250342    0.000000
siesta:     40   25.196745  555.719693    0.000000
siesta:     41    3.442821    1.795603    0.000000
siesta:     42   -0.925646    0.377024    0.000000
siesta:     43    0.516510    0.119199    0.000000
siesta:     44  -31.880652  549.096283    0.000000
siesta:     45  -26.418581   -4.009110    0.000000
siesta:     46  -24.765094  555.535555    0.000000
siesta:     47   -0.817644   -0.429016    0.000000
siesta:     48    2.930206   -1.704341    0.000000
siesta:     49   -7.329648   -1.890577    0.000000
siesta:     50    1.873473   -0.903509    0.000000
siesta:     51   -3.020903   -1.176698    0.000000
siesta:     52   -2.052682    1.980998    0.000000
siesta:     53   -0.708217   -0.275497    0.000000
siesta:     54    0.523790    7.035893    0.000000
siesta:     55    0.259884   -7.119189    0.000000
siesta:     56   -2.531250    1.536071    0.000000
siesta:     57    0.914271    0.862140    0.000000
siesta:     58    2.341322    1.460625    0.000000
siesta:     59   -0.677047   -2.002939    0.000000
siesta:     60   -0.395492 -563.720685    0.000000
siesta:     61   -2.179785    1.693188    0.000000
siesta:     62    0.667784   -2.046918    0.000000
siesta:     63   21.162818    5.047943    0.000000
siesta:     64   23.335535 -556.679387    0.000000
siesta:     65  -21.101362    5.136236    0.000000
siesta:     66  -23.898016 -556.706285    0.000000
siesta:     67   -1.824508    0.347759    0.000000
siesta:     68    2.214473    1.674794    0.000000
siesta:     69    0.135626  126.094112    0.000000
siesta:     70   -0.108691 -543.247761    0.000000
siesta:     71   -0.477852  128.363206    0.000000
siesta:     72    0.213035 -404.975785    0.000000
siesta: ----------------------------------------
siesta:    Tot   -0.149425    0.032520    0.000000

siesta: Stress tensor (static) (eV/Ang**3):
siesta:    -0.491174   -0.000235    0.000000
siesta:    -0.000235   -1.765472    0.000000
siesta:     0.000000    0.000000   -0.000293

siesta: Cell volume =       1893.226884 Ang**3

siesta: Pressure (static):
siesta:                Solid            Molecule  Units
siesta:           0.00819365          0.12196861  Ry/Bohr**3
siesta:           0.75231291         11.19874331  eV/Ang**3
siesta:        1205.35119259      17942.55880351  kBar
(Free)E+ p_basis*V_orbitals  =       -9717.262523
(Free)Eharris+ p_basis*V_orbitals  =       -9717.260154

siesta: Electric dipole (a.u.)  =    0.000000    0.000000    0.000000
siesta: Electric dipole (Debye) =    0.000000    0.000000    0.000000

* Maximum dynamic memory allocated : Node    0 =   161 MB
* Maximum dynamic memory allocated : Node    1 =    65 MB
* Maximum dynamic memory allocated : Node    2 =    66 MB
* Maximum dynamic memory allocated : Node    3 =   147 MB
* Maximum dynamic memory allocated : Node    4 =   160 MB
* Maximum dynamic memory allocated : Node    5 =    58 MB
* Maximum dynamic memory allocated : Node    6 =    59 MB
* Maximum dynamic memory allocated : Node    7 =   152 MB
* Maximum dynamic memory allocated : Node    8 =   152 MB
* Maximum dynamic memory allocated : Node    9 =    61 MB
* Maximum dynamic memory allocated : Node   10 =    62 MB
* Maximum dynamic memory allocated : Node   11 =   143 MB

* Maximum memory occured during matrixMtoO                    

timer: CPU execution times:
timer:  Routine       Calls   Time/call    Tot.time        %
timer:  siesta            1  186807.964  186807.964   100.00
timer:  Setup             1       3.226       3.226     0.00
timer:  bands             3     419.604    1258.811     0.67
timer:  writewave         1       0.016       0.016     0.00
timer:  KSV_init          1       0.001       0.001     0.00
timer:  IterMD            1  185538.588  185538.588    99.32
timer:  hsparse           1       0.279       0.279     0.00
timer:  overlap           1       6.424       6.424     0.00
timer:  IterSCF          35    5296.735  185385.737    99.24
timer:  kinefsm           2       3.273       6.545     0.00
timer:  nlefsm            2      19.712      39.423     0.02
timer:  DHSCF            36      79.983    2879.395     1.54
timer:  DHSCF1            1       1.194       1.194     0.00
timer:  DHSCF2            1      31.689      31.689     0.02
timer:  REORD           290       0.002       0.719     0.00
timer:  POISON           37       0.625      23.126     0.01
timer:  DHSCF3           36      78.315    2819.345     1.51
timer:  rhoofd           36      16.591     597.286     0.32
timer:  cellXC           36       2.864     103.118     0.06
timer:  vmat             36      37.685    1356.667     0.73
timer:  MolMec            2       0.000       0.000     0.00
timer:  diagon           35    5214.740  182515.903    97.70
timer:  c-eigval       8206      10.395   85302.874    45.66
timer:  c-buildHS      8206       0.033     272.904     0.15
timer:  cdiag         16291      10.651  173521.184    92.89
timer:  cdiag1        16291       0.480    7817.931     4.19
timer:  cdiag2        16291       3.398   55363.847    29.64
timer:  cdiag3        16291       6.329  103104.420    55.19
timer:  cdiag4        16291       0.167    2715.252     1.45
timer:  c-eigvec       8085      10.975   88729.465    47.50
timer:  c-buildD       8085       1.200    9698.127     5.19
timer:  DHSCF4            1      26.914      26.914     0.01
timer:  dfscf             1      24.845      24.845     0.01
timer:  overfsm           1       0.319       0.319     0.00
timer:  optical           1       6.646       6.646     0.00
  

elaps: ELAPSED times:
elaps:  Routine       Calls   Time/call    Tot.time        %
elaps:  siesta            1   16282.076   16282.076   100.00
elaps:  Setup             1       0.281       0.281     0.00
elaps:  bands             3      36.605     109.814     0.67
elaps:  writewave         1       0.002       0.002     0.00
elaps:  KSV_init          1       0.000       0.000     0.00
elaps:  IterMD            1   16171.443   16171.443    99.32
elaps:  hsparse           1       0.028       0.028     0.00
elaps:  overlap           1       0.715       0.715     0.00
elaps:  IterSCF          35     461.661   16158.125    99.24
elaps:  kinefsm           2       0.367       0.734     0.00
elaps:  nlefsm            2       1.798       3.596     0.02
elaps:  DHSCF            36       7.026     252.941     1.55
elaps:  DHSCF1            1       0.103       0.103     0.00
elaps:  DHSCF2            1       2.761       2.761     0.02
elaps:  REORD           290       0.000       0.082     0.00
elaps:  POISON           37       0.056       2.073     0.01
elaps:  DHSCF3           36       6.826     245.745     1.51
elaps:  rhoofd           36       2.894     104.169     0.64
elaps:  cellXC           36       0.249       8.973     0.06
elaps:  vmat             36       3.286     118.293     0.73
elaps:  MolMec            2       0.000       0.000     0.00
elaps:  diagon           35     454.520   15908.194    97.70
elaps:  c-eigval       8206       0.906    7435.009    45.66
elaps:  c-buildHS      8206       0.004      29.861     0.18
elaps:  cdiag         16291       0.923   15037.795    92.36
elaps:  cdiag1        16291       0.041     672.308     4.13
elaps:  cdiag2        16291       0.297    4833.125    29.68
elaps:  cdiag3        16291       0.553    9003.032    55.29
elaps:  cdiag4        16291       0.014     224.865     1.38
elaps:  c-eigvec       8085       0.948    7663.117    47.06
elaps:  c-buildD       8085       0.113     914.049     5.61
elaps:  DHSCF4            1       4.296       4.296     0.03
elaps:  dfscf             1       4.046       4.046     0.02
elaps:  overfsm           1       0.034       0.034     0.00
elaps:  optical           1       0.000       0.000     0.00
  
>> End of run:   5-MAY-2016   6:02:49
