
#FDF: Opened INPUT_TMP.95383      for input. Unit: 12

fdf-debug              0     # Default value
SystemName     GRP_doping                                                                                                                          
SystemLabel     GRP_doping                                                                                                                          
XML.Write              T     # Default value
Write.XML              T     # Default value
XML.AbortOnErrors              F     # Default value
XML.AbortOnWarnings              F     # Default value
alloc_report_level              0     # Default value
xc.functional     GGA                                                                                                                                 
xc.authors     PBE                                                                                                                                 
MM.Cutoff          30.00000000     Bohr     # Default value
MM.UnitsEnergy     eV     # Default value
MM.UnitsDistance     Ang     # Default value
WriteIonPlotFiles              F     # Default value
Atom.Debug.KB.Generation              F     # Default value
user-basis              F     # Default value
user-basis-netcdf              F     # Default value
ReparametrizePseudos              F     # Default value
Restricted.Radial.Grid              T     # Default value
Rmax.Radial.Grid          0.000000000         # Default value
PAO.BasisSize     DZP                                                                                                                                 
PAO.BasisType     split                                                                                                                               
PAO.SoftDefault              F     # Default value
PAO.SoftInnerRadius         0.9000000000         # Default value
PAO.SoftPotential          40.00000000         # Default value
PAO.SplitNorm         0.1500000000    
PAO.SplitNormH         -1.000000000         # Default value
Number_of_species                        2

%block ChemicalSpeciesLabel                                                    
  1 7 N                                                                        
  2 6 C                                                                        
%endblock ChemicalSpeciesLabel                                                 
 
FilterCutoff          0.000000000     Ry     # Default value
FilterTol          0.000000000     Ry     # Default value
KB.Rmax          6.000000000     Bohr     # Default value
PAO.EnergyShift         0.7349798845E-02         Ry
# Above item originally: PAO.EnergyShift          100.0000000     meV       
PAO.SplitTailNorm              F     # Default value
PAO.FixSplitTable              F     # Default value
PAO.NewSplitCode              F     # Default value
PAO.Filter              F     # Default value
PAO.Keep.Findp.Bug              F     # Default value
PAO.Filter              F     # Default value
PAO.Filter              F     # Default value
PAO.Filter              F     # Default value
PAO.OldStylePolorbs              T     # Default value
PAO.SplitTailNorm              F     # Default value
PAO.FixSplitTable              F     # Default value
PAO.NewSplitCode              F     # Default value
PAO.Filter              F     # Default value
Vna.Filter              F     # Default value
PCC.Filter              F     # Default value
FilterCutoff          0.000000000     Ry     # Default value
FilterTol          0.000000000     Ry     # Default value
KB.Rmax          6.000000000     Bohr     # Default value
PAO.EnergyShift         0.7349798845E-02         Ry
# Above item originally: PAO.EnergyShift          100.0000000     meV       
PAO.SplitTailNorm              F     # Default value
PAO.FixSplitTable              F     # Default value
PAO.NewSplitCode              F     # Default value
PAO.Filter              F     # Default value
PAO.Filter              F     # Default value
PAO.Filter              F     # Default value
PAO.Filter              F     # Default value
PAO.OldStylePolorbs              T     # Default value
PAO.SplitTailNorm              F     # Default value
PAO.FixSplitTable              F     # Default value
PAO.NewSplitCode              F     # Default value
PAO.Filter              F     # Default value
Vna.Filter              F     # Default value
PCC.Filter              F     # Default value
PAO.BasisType     split                                                                                                                               
Atom-Setup-Only              F     # Default value
UseStructFile              F     # Default value
MD.UseStructFile              F     # Default value
LatticeConstant          1.889726878           Bohr
# Above item originally: LatticeConstant          1.000000000     Ang       

%block LatticeVectors                                                          
   12.804618608     7.392750000     0.000000000                                
    0.000000000    14.785500000     0.000000000                                
    0.000000000     0.000000000    10.000000000                                
%endblock LatticeVectors                                                       
 

%block LatticeVectors                                                          
   12.804618608     7.392750000     0.000000000                                
    0.000000000    14.785500000     0.000000000                                
    0.000000000     0.000000000    10.000000000                                
%endblock LatticeVectors                                                       
 
AtomicCoordinatesFormat     Fractional                                                                                                                          
NumberOfAtoms                       72
ZM.UnitsLength     Bohr           # Default value
ZM.UnitsAngle     rad            # Default value
ZM.ForceTolLength         0.1555740000E-02 Ry/Bohr     # Default value
ZM.ForceTolAngle         0.3565490000E-02 Ry/rad     # Default value
ZM.MaxDisplLength         0.2000000000     Bohr     # Default value
ZM.MaxDisplAngle         0.3000000000E-02 rad     # Default value
ZM.CalcAllForces              F     # Default value

%block AtomicCoordinatesAndAtomicSpecies                                       
   -0.097292012     1.440577446     0.000000000   1   1                        
    0.191383123     1.151902311     0.000000000   1   2                        
    0.287608167     0.959452222     0.000000000   1   3                        
    0.287608167     1.055673046    -0.000000000   1   4                        
   -0.193517057     1.344352401     0.000000000   1   5                        
   -0.193517057     1.440573226    -0.000000000   1   6                        
   -0.097292012     0.670772867    -0.000000000   1   7                        
   -0.001066967     0.670777087     0.000000000   1   8                        
   -0.001066967     0.766997912    -0.000000000   1   9                        
   -0.193517057     0.767002132     0.000000000   1   10                       
   -0.193517057     0.863222956    -0.000000000   1   11                       
   -0.097292012     0.863227177     0.000000000   1   12                       
   -0.385967147     0.959448001    -0.000000000   1   13                       
   -0.289742102     0.959452222     0.000000000   1   14                       
   -0.289742102     1.055673046    -0.000000000   1   15                       
   -0.482192192     1.055677267     0.000000000   1   16                       
   -0.482192192     1.151898091    -0.000000000   1   17                       
   -0.385967147     1.151902311     0.000000000   1   18                       
    0.191383123     0.959448001    -0.000000000   1   19                       
    0.095158078     1.055677267     0.000000000   1   20                       
    0.095158078     1.151898091    -0.000000000   1   21                       
   -0.097292012     1.248123136    -0.000000000   1   22                       
   -0.001066967     1.248127356     0.000000000   1   23                       
   -0.001066967     1.344348181    -0.000000000   1   24                       
   -0.001066967     0.093426818     0.000000000   2   25                       
   -0.001066967     0.189647642    -0.000000000   2   26                       
   -0.097292012     1.536798270    -0.000000000   2   27                       
    0.095158078     1.344352401     0.000000000   2   28                       
    0.095158078     1.440573226    -0.000000000   2   29                       
    0.191383123     1.248123136    -0.000000000   2   30                       
    0.383833212     0.767002132     0.000000000   2   31                       
    0.383833212     0.863222956    -0.000000000   2   32                       
    0.095158078     0.189651863     0.000000000   2   33                       
    0.095158078     0.285872687    -0.000000000   2   34                       
    0.191383123     0.285876908     0.000000000   2   35                       
    0.191383123     0.382097732    -0.000000000   2   36                       
    0.287608167     0.382101952     0.000000000   2   37                       
    0.287608167     0.478322777    -0.000000000   2   38                       
    0.383833212     0.478326997     0.000000000   2   39                       
    0.383833212     0.574547822    -0.000000000   2   40                       
    0.480058257     0.574552042     0.000000000   2   41                       
    0.480058257     0.670772867    -0.000000000   2   42                       
   -0.097292012     0.285876908     0.000000000   2   43                       
   -0.097292012     0.382097732    -0.000000000   2   44                       
   -0.001066967     0.382101952     0.000000000   2   45                       
   -0.001066967     0.478322777    -0.000000000   2   46                       
    0.095158078     0.478326997     0.000000000   2   47                       
    0.095158078     0.574547822    -0.000000000   2   48                       
    0.191383123     0.574552042     0.000000000   2   49                       
    0.191383123     0.670772867    -0.000000000   2   50                       
    0.287608167     0.670777087     0.000000000   2   51                       
    0.287608167     0.766997912    -0.000000000   2   52                       
   -0.193517057     0.478326997     0.000000000   2   53                       
   -0.193517057     0.574547822    -0.000000000   2   54                       
   -0.097292012     0.574552042     0.000000000   2   55                       
    0.095158078     0.767002132     0.000000000   2   56                       
    0.095158078     0.863222956    -0.000000000   2   57                       
   -0.289742102     0.670777087     0.000000000   2   58                       
   -0.289742102     0.766997912    -0.000000000   2   59                       
   -0.097292012     0.959448001    -0.000000000   2   60                       
   -0.385967147     0.863227177     0.000000000   2   61                       
   -0.385967147     1.248123136    -0.000000000   2   62                       
    0.191383123     0.863227177     0.000000000   2   63                       
   -0.001066967     0.959452222     0.000000000   2   64                       
   -0.001066967     1.055673046    -0.000000000   2   65                       
   -0.193517057     1.055677267     0.000000000   2   66                       
   -0.193517057     1.151898091    -0.000000000   2   67                       
   -0.097292012     1.151902311     0.000000000   2   68                       
   -0.289742102     1.248127356     0.000000000   2   69                       
   -0.289742102     1.344348181    -0.000000000   2   70                       
   -0.001066967     1.536802491     0.000000000   2   71                       
   -0.001066967     1.633023315    -0.000000000   2   72                       
%endblock AtomicCoordinatesAndAtomicSpecies                                    
 
UseSaveData              F     # Default value
MD.UseSaveXV              F     # Default value
MD.UseSaveZM              F     # Default value
WriteCoorInitial              T     # Default value
MD.TypeOfRun     none     # Default value
MaxBondDistance          6.000000000     Bohr     # Default value
Output-Structure-Only              F     # Default value
SpinPolarized              F     # Default value
NonCollinearSpin              F     # Default value
LongOutput              F     # Default value
WriteDenchar              F     # Default value
WriteMullikenPop              0     # Default value
WriteHirshfeldPop              F     # Default value
WriteVoronoiPop              F     # Default value
PartialChargesAtEveryGeometry              F     # Default value
PartialChargesAtEveryScfStep              F     # Default value
MeshCutoff          200.0000000             Ry
# Above item originally: MeshCutoff          200.0000000     Ry        
NetCharge          0.000000000         # Default value
MaxSCFIterations                      500
SCFMustConverge              T
DM.NumberPulay                       10
DM.NumberBroyden              0     # Default value
DM.FIRE.Mixing              F     # Default value
DM.MixSCF1              F     # Default value
DM.PulayOnFile              F
DM.Pulay.Avoid.First.After.Kick              F     # Default value
DM.MixingWeight         0.5000000000E-01
DM.OccupancyTolerance         0.1000000000E-11     # Default value
DM.NumberKick              0     # Default value
DM.KickMixingWeight         0.5000000000         # Default value
DM.Tolerance         0.1000000000E-03
DM.RequireEnergyConvergence              F     # Default value
DM.EnergyTolerance         0.7349806700E-05 Ry     # Default value
DM.RequireHarrisConvergence              F     # Default value
DM.HarrisTolerance         0.7349806700E-05 Ry     # Default value
UseSaveData              F     # Default value
DM.UseSaveDM              T
NeglNonOverlapInt              F
SolutionMethod     Diagon                                                                                                                              
Diag.DivideAndConquer              T     # Default value
Diag.Memory          1.000000000         # Default value
ElectronicTemperature         0.1900069269E-02         Ry
# Above item originally: ElectronicTemperature          300.0000000     K         
FixSpin              F     # Default value
ON.MaxNumIter           1000     # Default value
ON.etol         0.1000000000E-07     # Default value
ON.eta          0.000000000     Ry     # Default value
ON.eta_alpha          0.000000000     Ry     # Default value
ON.eta_beta          0.000000000     Ry     # Default value
On.RcLWF          9.500000000     Bohr     # Default value
ON.UseSaveLWF              F     # Default value
ON.functional     kim     # Default value
ON.ChemicalPotentialUse              F     # Default value
ON.ChemicalPotential              F     # Default value
ON.ChemicalPotentialRc          9.500000000     Bohr     # Default value
ON.ChemicalPotentialTemperature         0.5000000000E-01 Ry     # Default value
ON.ChemicalPotentialOrder            100     # Default value
MD.VariableCell              F     # Default value
MD.TypeOfRun     verlet     # Default value
MD.NumCGsteps              0     # Default value
MD.MaxCGDispl         0.2000000000     Bohr     # Default value
MD.MaxForceTol         0.1555740000E-02 Ry/Bohr     # Default value
MD.MaxStressTol         0.6797730000E-04 Ry/Bohr**3     # Default value
MD.InitialTimeStep              1     # Default value
MD.FinalTimeStep              1     # Default value
MD.LengthTimeStep          1.000000000     fs     # Default value
MD.Quench              F     # Default value
MD.FireQuench              F     # Default value
MD.InitialTemperature          0.000000000     K     # Default value
MD.TargetTemperature          0.000000000     K     # Default value
MD.TargetPressure          0.000000000     Ry/Bohr**3     # Default value
MD.NoseMass          100.0000000     Ry*fs**2     # Default value
MD.ParrinelloRahmanMass          100.0000000     Ry*fs**2     # Default value
MD.AnnealOption     TemperatureAndPressure     # Default value
MD.TauRelax          100.0000000     fs     # Default value
MD.BulkModulus         0.6797730000E-02 Ry/Bohr**3     # Default value
MD.FCDispl         0.4000000000E-01 Bohr     # Default value
MD.FCfirst              1     # Default value
MD.FClast             72     # Default value
UseSpatialDecomposition              F     # Default value
UseDomainDecomposition              F     # Default value
Harris_functional              F     # Default value
WriteKpoints              F     # Default value
WriteForces              F     # Default value
WriteDM              T     # Default value
WriteDM.NetCDF              T     # Default value
WriteDM.History.NetCDF              F     # Default value
WriteDMHS.NetCDF              T     # Default value
WriteDMHS.History.NetCDF              F     # Default value
SCF.Read.Charge.NetCDF              F     # Default value
SCF.Read.Deformation.Charge.NetCDF              F     # Default value
SaveInitialChargeDensity              F     # Default value
UseNewDiagk              F     # Default value
WriteBands              F     # Default value
WriteKbands              F     # Default value
WriteEigenvalues              F     # Default value
WriteCoorStep              F     # Default value
WriteMDhistory              F     # Default value
WriteMDXmol              F     # Default value
UseSaveData              F     # Default value
SaveHS              F     # Default value
FixAuxiliaryCell              F     # Default value
NaiveAuxiliaryCell              F     # Default value
ReInitialiseDM              T     # Default value
DM.AllowReuse              T     # Default value
DM.AllowExtrapolation              T     # Default value
MullikenInSCF              F     # Default value
WarningMinimumAtomicDistance          1.000000000     Bohr     # Default value
BornCharge              F     # Default value
ChangeKgridInMD              F     # Default value
Diag.ParallelOverK              F     # Default value
MD.RelaxCellOnly              F     # Default value
MD.RemoveIntraMolecularPressure              F     # Default value
COOP.Write              F     # Default value
SaveRho              F     # Default value
SaveDeltaRho              F     # Default value
SaveElectrostaticPotential              F     # Default value
SaveNeutralAtomPotential              F     # Default value
SaveTotalPotential              F     # Default value
SaveIonicCharge              F     # Default value
SaveBaderCharge              F     # Default value
SaveTotalCharge              F     # Default value
RcSpatial          0.000000000     Bohr     # Default value
ProcessorGridX              1     # Default value
ProcessorGridY              1     # Default value
ProcessorGridZ              1     # Default value
processorY              2     # Default value
blocksize             24     # Default value
NumberOfEigenStates            936     # Default value
TimeReversalSymmetryForKpoints              T     # Default value

%block kgrid_Monkhorst_Pack                                                    
  21  0   0    0.5                                                             
   0  21   0   0.5                                                             
   0   0   1   0.0                                                             
%endblock kgrid_Monkhorst_Pack                                                 
 
BandLines
LatticeConstant          1.889726878           Bohr
# Above item originally: LatticeConstant          1.000000000     Ang       
BandLinesScale     pi/a                                                                                                                                

%block BandLines                                                               
 1   0.00000000  0.00000000  0.00000000                                        
50   0.00000000  0.07809418  0.00000000                                        
50   0.04509075  0.07809242  0.00000000                                        
20   0.00000000  0.00000000  0.00000000                                        
%endblock BandLines                                                            
 
BandLines
LatticeConstant          1.889726878           Bohr
# Above item originally: LatticeConstant          1.000000000     Ang       
BandLinesScale     pi/a                                                                                                                                

%block BandLines                                                               
 1   0.00000000  0.00000000  0.00000000                                        
50   0.00000000  0.07809418  0.00000000                                        
50   0.04509075  0.07809242  0.00000000                                        
20   0.00000000  0.00000000  0.00000000                                        
%endblock BandLines                                                            
 
WFS.EnergyMin        -0.1797693135+309 Ry     # Default value
WFS.EnergyMax         0.1797693135+309 Ry     # Default value
LongOutput              F     # Default value
WriteWaveFunctions              F     # Default value
WriteWaveDebug              F     # Default value
ForceAuxCell              F     # Default value
AtomicCoordinatesFormat     Fractional                                                                                                                          
AtomCoorFormatOut     Fractional                 # Default value
LatticeConstant          1.889726878           Bohr
# Above item originally: LatticeConstant          1.000000000     Ang       
DM.FormattedFiles              F     # Default value
DM.FormattedInput              F     # Default value
DM.FormattedOutput              F     # Default value
Harris_functional              F     # Default value
MeshSubDivisions              2     # Default value
LatticeConstant          1.889726878           Bohr
# Above item originally: LatticeConstant          1.000000000     Ang       

%block LatticeVectors                                                          
   12.804618608     7.392750000     0.000000000                                
    0.000000000    14.785500000     0.000000000                                
    0.000000000     0.000000000    10.000000000                                
%endblock LatticeVectors                                                       
 

%block LatticeVectors                                                          
   12.804618608     7.392750000     0.000000000                                
    0.000000000    14.785500000     0.000000000                                
    0.000000000     0.000000000    10.000000000                                
%endblock LatticeVectors                                                       
 
DirectPhi              F     # Default value
SimulateDoping              F     # Default value
SlabDipoleCorrection              F     # Default value
Diag.ParallelOverK              F     # Default value
LatticeConstant          1.889726878           Bohr
# Above item originally: LatticeConstant          1.000000000     Ang       

%block LatticeVectors                                                          
   12.804618608     7.392750000     0.000000000                                
    0.000000000    14.785500000     0.000000000                                
    0.000000000     0.000000000    10.000000000                                
%endblock LatticeVectors                                                       
 

%block LatticeVectors                                                          
   12.804618608     7.392750000     0.000000000                                
    0.000000000    14.785500000     0.000000000                                
    0.000000000     0.000000000    10.000000000                                
%endblock LatticeVectors                                                       
 
Diag.AllInOne              F     # Default value
Diag.DivideAndConquer              T     # Default value
Diag.NoExpert              F     # Default value
Diag.PreRotate              F     # Default value
Diag.Use2D              T     # Default value
SingleExcitation              F     # Default value
OccupationFunction     FD     # Default value
OccupationFunction     FD     # Default value
WriteCoorXmol              F     # Default value
WriteCoorCerius              F     # Default value
WFS.Write.For.Bands              F     # Default value
BasisPressure         0.2000000000     GPa     # Default value
OpticalCalculation              F     # Default value
