Siesta Version:                                        siesta-3.2-pl-3
Architecture  : x86_64-unknown-linux-gnu--unknown
Compiler flags: mpiifort -g -O2 -fPIC -xSSE4.1 -fp-model source -shared-intel 
PARALLEL version

* Running on    8 nodes in parallel
>> Start of run:  23-APR-2016  17:13:39

                           ***********************       
                           *  WELCOME TO SIESTA  *       
                           ***********************       

reinit: Reading from standard input
************************** Dump of input data file ****************************
#(1) General system descriptors
SystemName            GRP_doping    # Descriptive name of the system
SystemLabel           GRP_doping    # Short name for naming files
%include STRUCT.fdf
%include KPT.fdf
%include BASIS.fdf
#%include TS.fdf # for transiesta calculation
#(4) DFT, Grid, SCF
XC.functional         GGA           # LDA or GGA (default = LDA)
XC.authors            PBE           # CA (Ceperley-Aldr) = PZ
                                    #    (Perdew-Zunger) - LDA - Default
                                    # PW92 (Perdew-Wang-92) - LDA
                                    # PBE (Perdew-Burke-Ernzerhof) - GGA
MeshCutoff            200.000000    Ry      # Default: 50.0 Ry ~ 0.444 Bohr
                                    #         100.0 Ry ~ 0.314 Bohr
MaxSCFIterations      500           # Default: 50
DM.MixingWeight       0.05          # Default: 0.25
DM.NumberPulay        10            # Default: 0
DM.PulayOnFile        F             # SystemLabel.P1, SystemLabel.P2
DM.Tolerance          1.d-4         # Default: 1.d-4
DM.UseSaveDM          .true.        # because of the bug
SCFMustConverge       .true.
NeglNonOverlapInt     F             # Default: F
#(5) Eigenvalue problem: order-N or diagonalization
SolutionMethod        Diagon        # or Transiesta
ElectronicTemperature 300.0 K       # Default: 300.0 K
#(6) Molecular dynamics and relaxations
#MD.TypeOfRun          CG            # Type of dynamics:
#MD.VariableCell       F
#MD.NumCGsteps         0           # 0 for single-point / 100 for gopt
#MD.MaxCGDispl         0.2 Bohr      # Default: 0.2 Bohr
#MD.MaxForceTol        0.02 eV/Ang   # Default: 0.04 eV/Ang
#MD.MaxStressTol       1.0 GPa       # Default: 1.0 GPa
# Geometry Constraints
#%block GeometryConstraints
#	position from 1 to 44
#%endblock GeometryConstraints
BandLinesScale   pi/a
%block BandLines
 1   0.00000000  0.00000000  0.00000000
50   0.00000000  0.07809418  0.00000000
50   0.04509075  0.07809242  0.00000000
20   0.00000000  0.00000000  0.00000000
%endblock BandLines
************************** End of input data file *****************************

reinit: -----------------------------------------------------------------------
reinit: System Name: GRP_doping
reinit: -----------------------------------------------------------------------
reinit: System Label: GRP_doping                                                  
reinit: -----------------------------------------------------------------------

initatom: Reading input for the pseudopotentials and atomic orbitals ----------
 Species number:            1  Label: N Atomic number:           7
 Species number:            2  Label: C Atomic number:           6
Ground state valence configuration:   2s02  2p03
Reading pseudopotential information in formatted form from N.psf

Valence configuration for pseudopotential generation:
2s( 2.00) rc: 1.48
2p( 3.00) rc: 1.48
3d( 0.00) rc: 1.48
4f( 0.00) rc: 1.48
Ground state valence configuration:   2s02  2p02
Reading pseudopotential information in formatted form from C.psf

Valence configuration for pseudopotential generation:
2s( 2.00) rc: 1.54
2p( 2.00) rc: 1.54
3d( 0.00) rc: 1.54
4f( 0.00) rc: 1.54
For N, standard SIESTA heuristics set lmxkb to 3
 (one more than the basis l, including polarization orbitals).
Use PS.lmax or PS.KBprojectors blocks to override.
For C, standard SIESTA heuristics set lmxkb to 3
 (one more than the basis l, including polarization orbitals).
Use PS.lmax or PS.KBprojectors blocks to override.

<basis_specs>
===============================================================================
N                    Z=   7    Mass=  14.010        Charge= 0.17977+309
Lmxo=1 Lmxkb= 3    BasisType=split      Semic=F
L=0  Nsemic=0  Cnfigmx=2
          n=1  nzeta=2  polorb=0
            splnorm:   0.15000    
               vcte:    0.0000    
               rinn:    0.0000    
                rcs:    0.0000      0.0000    
            lambdas:    1.0000      1.0000    
L=1  Nsemic=0  Cnfigmx=2
          n=1  nzeta=2  polorb=1
            splnorm:   0.15000    
               vcte:    0.0000    
               rinn:    0.0000    
                rcs:    0.0000      0.0000    
            lambdas:    1.0000      1.0000    
-------------------------------------------------------------------------------
L=0  Nkbl=1  erefs: 0.17977+309
L=1  Nkbl=1  erefs: 0.17977+309
L=2  Nkbl=1  erefs: 0.17977+309
L=3  Nkbl=1  erefs: 0.17977+309
===============================================================================
</basis_specs>

atom: Called for N                     (Z =   7)

read_vps: Pseudopotential generation method:
read_vps: ATM3      Troullier-Martins                       
Total valence charge:    5.00000

read_vps: Pseudopotential includes a core correction:
read_vps: Pseudo-core for xc-correction

xc_check: Exchange-correlation functional:
xc_check: GGA Perdew, Burke & Ernzerhof 1996
V l=0 = -2*Zval/r beyond r=  1.4606
V l=1 = -2*Zval/r beyond r=  1.4606
V l=2 = -2*Zval/r beyond r=  1.4606
V l=3 = -2*Zval/r beyond r=  1.4606
All V_l potentials equal beyond r=  1.4606
This should be close to max(r_c) in ps generation
All pots = -2*Zval/r beyond r=  1.4606

VLOCAL1: 99.0% of the norm of Vloc inside     20.347 Ry
VLOCAL1: 99.9% of the norm of Vloc inside     46.372 Ry
atom: Maximum radius for 4*pi*r*r*local-pseudopot. charge    1.76189
atom: Maximum radius for r*vlocal+2*Zval:    1.53550
GHOST: No ghost state for L =  0
GHOST: No ghost state for L =  1
GHOST: No ghost state for L =  2
GHOST: No ghost state for L =  3

KBgen: Kleinman-Bylander projectors: 
   l= 0   rc=  1.634559   el= -1.363963   Ekb=  5.296955   kbcos=  0.335621
   l= 1   rc=  1.614250   el= -0.521451   Ekb= -5.259161   kbcos= -0.433408
   l= 2   rc=  1.718383   el=  0.001991   Ekb= -1.271464   kbcos= -0.007566
   l= 3   rc=  1.761893   el=  0.003093   Ekb= -0.494769   kbcos= -0.001015

KBgen: Total number of  Kleinman-Bylander projectors:   16
atom: -------------------------------------------------------------------------

atom: SANKEY-TYPE ORBITALS:
atom: Selected multiple-zeta basis: split     

SPLIT: Orbitals with angular momentum L= 0

SPLIT: Basis orbitals for state 2s

SPLIT: PAO cut-off radius determined from an
SPLIT: energy shift=  0.007350 Ry

   izeta = 1
                 lambda =    1.000000
                     rc =    4.071465
                 energy =   -1.356470
                kinetic =    1.176977
    potential(screened) =   -2.533447
       potential(ionic) =   -8.057990

   izeta = 2
                 rmatch =    2.905100
              splitnorm =    0.150000
                 energy =   -1.158343
                kinetic =    1.813009
    potential(screened) =   -2.971352
       potential(ionic) =   -8.901931

SPLIT: Orbitals with angular momentum L= 1

SPLIT: Basis orbitals for state 2p

SPLIT: PAO cut-off radius determined from an
SPLIT: energy shift=  0.007350 Ry

   izeta = 1
                 lambda =    1.000000
                     rc =    4.972977
                 energy =   -0.513884
                kinetic =    3.441732
    potential(screened) =   -3.955616
       potential(ionic) =   -9.287901

   izeta = 2
                 rmatch =    3.054066
              splitnorm =    0.150000
                 energy =   -0.318226
                kinetic =    5.125348
    potential(screened) =   -5.443573
       potential(ionic) =  -11.380999

POLgen: Perturbative polarization orbital with L=  2

POLgen: Polarization orbital for state 2p

   izeta = 1
                     rc =    4.972977
                 energy =    1.607437
                kinetic =    3.268125
    potential(screened) =   -1.660688
       potential(ionic) =   -5.973652
atom: Total number of Sankey-type orbitals: 13

atm_pop: Valence configuration (for local Pseudopot. screening):
 2s( 2.00)                                                            
 2p( 3.00)                                                            
Vna: chval, zval:    5.00000   5.00000

Vna:  Cut-off radius for the neutral-atom potential:   4.972977
comcore: Pseudo-core radius Rcore=  1.554824

atom: _________________________________________________________________________

<basis_specs>
===============================================================================
C                    Z=   6    Mass=  12.010        Charge= 0.17977+309
Lmxo=1 Lmxkb= 3    BasisType=split      Semic=F
L=0  Nsemic=0  Cnfigmx=2
          n=1  nzeta=2  polorb=0
            splnorm:   0.15000    
               vcte:    0.0000    
               rinn:    0.0000    
                rcs:    0.0000      0.0000    
            lambdas:    1.0000      1.0000    
L=1  Nsemic=0  Cnfigmx=2
          n=1  nzeta=2  polorb=1
            splnorm:   0.15000    
               vcte:    0.0000    
               rinn:    0.0000    
                rcs:    0.0000      0.0000    
            lambdas:    1.0000      1.0000    
-------------------------------------------------------------------------------
L=0  Nkbl=1  erefs: 0.17977+309
L=1  Nkbl=1  erefs: 0.17977+309
L=2  Nkbl=1  erefs: 0.17977+309
L=3  Nkbl=1  erefs: 0.17977+309
===============================================================================
</basis_specs>

atom: Called for C                     (Z =   6)

read_vps: Pseudopotential generation method:
read_vps: ATM3      Troullier-Martins                       
Total valence charge:    4.00000

read_vps: Pseudopotential includes a core correction:
read_vps: Pseudo-core for xc-correction

xc_check: Exchange-correlation functional:
xc_check: GGA Perdew, Burke & Ernzerhof 1996
V l=0 = -2*Zval/r beyond r=  1.5227
V l=1 = -2*Zval/r beyond r=  1.5227
V l=2 = -2*Zval/r beyond r=  1.5227
V l=3 = -2*Zval/r beyond r=  1.5038
All V_l potentials equal beyond r=  1.5227
This should be close to max(r_c) in ps generation
All pots = -2*Zval/r beyond r=  1.5227

VLOCAL1: 99.0% of the norm of Vloc inside     18.722 Ry
VLOCAL1: 99.9% of the norm of Vloc inside     42.668 Ry
atom: Maximum radius for 4*pi*r*r*local-pseudopot. charge    1.83678
atom: Maximum radius for r*vlocal+2*Zval:    1.58088
GHOST: No ghost state for L =  0
GHOST: No ghost state for L =  1
GHOST: No ghost state for L =  2
GHOST: No ghost state for L =  3

KBgen: Kleinman-Bylander projectors: 
   l= 0   rc=  1.704034   el= -1.009801   Ekb=  5.335044   kbcos=  0.316824
   l= 1   rc=  1.704034   el= -0.388707   Ekb= -3.785862   kbcos= -0.366464
   l= 2   rc=  1.791422   el=  0.001971   Ekb= -0.970471   kbcos= -0.009212
   l= 3   rc=  1.859892   el=  0.003065   Ekb= -0.399525   kbcos= -0.001223

KBgen: Total number of  Kleinman-Bylander projectors:   16
atom: -------------------------------------------------------------------------

atom: SANKEY-TYPE ORBITALS:
atom: Selected multiple-zeta basis: split     

SPLIT: Orbitals with angular momentum L= 0

SPLIT: Basis orbitals for state 2s

SPLIT: PAO cut-off radius determined from an
SPLIT: energy shift=  0.007350 Ry

   izeta = 1
                 lambda =    1.000000
                     rc =    4.632753
                 energy =   -1.002270
                kinetic =    0.855760
    potential(screened) =   -1.858031
       potential(ionic) =   -5.417575

   izeta = 2
                 rmatch =    3.431921
              splitnorm =    0.150000
                 energy =   -0.867111
                kinetic =    1.300804
    potential(screened) =   -2.167915
       potential(ionic) =   -5.962684

SPLIT: Orbitals with angular momentum L= 1

SPLIT: Basis orbitals for state 2p

SPLIT: PAO cut-off radius determined from an
SPLIT: energy shift=  0.007350 Ry

   izeta = 1
                 lambda =    1.000000
                     rc =    5.658549
                 energy =   -0.381140
                kinetic =    2.399701
    potential(screened) =   -2.780841
       potential(ionic) =   -6.206085

   izeta = 2
                 rmatch =    3.653288
              splitnorm =    0.150000
                 energy =   -0.249149
                kinetic =    3.542762
    potential(screened) =   -3.791911
       potential(ionic) =   -7.581078

POLgen: Perturbative polarization orbital with L=  2

POLgen: Polarization orbital for state 2p

   izeta = 1
                     rc =    5.658549
                 energy =    1.109913
                kinetic =    2.304789
    potential(screened) =   -1.194876
       potential(ionic) =   -4.013592
atom: Total number of Sankey-type orbitals: 13

atm_pop: Valence configuration (for local Pseudopot. screening):
 2s( 2.00)                                                            
 2p( 2.00)                                                            
Vna: chval, zval:    4.00000   4.00000

Vna:  Cut-off radius for the neutral-atom potential:   5.658549
comcore: Pseudo-core radius Rcore=  1.791422

atom: _________________________________________________________________________

prinput: Basis input ----------------------------------------------------------

PAO.BasisType split     

%block ChemicalSpeciesLabel
    1    7 N                       # Species index, atomic number, species label
    2    6 C                       # Species index, atomic number, species label
%endblock ChemicalSpeciesLabel

%block PAO.Basis                 # Define Basis set
N                     2                    # Species label, number of l-shells
 n=2   0   2                         # n, l, Nzeta 
   4.071      2.905   
   1.000      1.000   
 n=2   1   2 P   1                   # n, l, Nzeta, Polarization, NzetaPol
   4.973      3.054   
   1.000      1.000   
C                     2                    # Species label, number of l-shells
 n=2   0   2                         # n, l, Nzeta 
   4.633      3.432   
   1.000      1.000   
 n=2   1   2 P   1                   # n, l, Nzeta, Polarization, NzetaPol
   5.659      3.653   
   1.000      1.000   
%endblock PAO.Basis

prinput: ----------------------------------------------------------------------

coor:   Atomic-coordinates input format  =     Fractional

siesta: Atomic coordinates (Bohr) and species
siesta:     -2.35420  38.89134   0.00000  1        1
siesta:      4.63094  34.85847   0.00000  1        2
siesta:      6.95932  30.82560   0.00000  1        3
siesta:      6.95932  33.51406   0.00000  1        4
siesta:     -4.68258  34.85847   0.00000  1        5
siesta:     -4.68258  37.54693   0.00000  1        6
siesta:     -2.35420  17.38257   0.00000  1        7
siesta:     -0.02582  18.72698   0.00000  1        8
siesta:     -0.02582  21.41544   0.00000  1        9
siesta:     -4.68258  18.72698   0.00000  1       10
siesta:     -4.68258  21.41544   0.00000  1       11
siesta:     -2.35420  22.75985   0.00000  1       12
siesta:     -9.33934  21.41544   0.00000  1       13
siesta:     -7.01096  22.75985   0.00000  1       14
siesta:     -7.01096  25.44831   0.00000  1       15
siesta:    -11.66772  22.75985   0.00000  1       16
siesta:    -11.66772  25.44831   0.00000  1       17
siesta:     -9.33934  26.79272   0.00000  1       18
siesta:      4.63094  29.48119   0.00000  1       19
siesta:      2.30256  30.82560   0.00000  1       20
siesta:      2.30256  33.51406   0.00000  1       21
siesta:     -2.35420  33.51406   0.00000  1       22
siesta:     -0.02582  34.85847   0.00000  1       23
siesta:     -0.02582  37.54693   0.00000  1       24
siesta:     -0.02582   2.59549   0.00000  2       25
siesta:     -0.02582   5.28395   0.00000  2       26
siesta:     -2.35420  41.57980   0.00000  2       27
siesta:      2.30256  38.89134   0.00000  2       28
siesta:      2.30256  41.57980   0.00000  2       29
siesta:      4.63094  37.54693   0.00000  2       30
siesta:      9.28770  26.79272   0.00000  2       31
siesta:      9.28770  29.48119   0.00000  2       32
siesta:      2.30256   6.62836   0.00000  2       33
siesta:      2.30256   9.31683   0.00000  2       34
siesta:      4.63094  10.66124   0.00000  2       35
siesta:      4.63094  13.34970   0.00000  2       36
siesta:      6.95932  14.69411   0.00000  2       37
siesta:      6.95932  17.38257   0.00000  2       38
siesta:      9.28770  18.72698   0.00000  2       39
siesta:      9.28770  21.41544   0.00000  2       40
siesta:     11.61608  22.75985   0.00000  2       41
siesta:     11.61608  25.44831   0.00000  2       42
siesta:     -2.35420   6.62836   0.00000  2       43
siesta:     -2.35420   9.31683   0.00000  2       44
siesta:     -0.02582  10.66124   0.00000  2       45
siesta:     -0.02582  13.34970   0.00000  2       46
siesta:      2.30256  14.69411   0.00000  2       47
siesta:      2.30256  17.38257   0.00000  2       48
siesta:      4.63094  18.72698   0.00000  2       49
siesta:      4.63094  21.41544   0.00000  2       50
siesta:      6.95932  22.75985   0.00000  2       51
siesta:      6.95932  25.44831   0.00000  2       52
siesta:     -4.68258  10.66124   0.00000  2       53
siesta:     -4.68258  13.34970   0.00000  2       54
siesta:     -2.35420  14.69411   0.00000  2       55
siesta:      2.30256  22.75985   0.00000  2       56
siesta:      2.30256  25.44831   0.00000  2       57
siesta:     -7.01096  14.69411   0.00000  2       58
siesta:     -7.01096  17.38257   0.00000  2       59
siesta:     -2.35420  25.44831   0.00000  2       60
siesta:     -9.33934  18.72698   0.00000  2       61
siesta:     -9.33934  29.48119   0.00000  2       62
siesta:      4.63094  26.79272   0.00000  2       63
siesta:     -0.02582  26.79272   0.00000  2       64
siesta:     -0.02582  29.48119   0.00000  2       65
siesta:     -4.68258  26.79272   0.00000  2       66
siesta:     -4.68258  29.48119   0.00000  2       67
siesta:     -2.35420  30.82560   0.00000  2       68
siesta:     -7.01096  30.82560   0.00000  2       69
siesta:     -7.01096  33.51406   0.00000  2       70
siesta:     -0.02582  42.92421   0.00000  2       71
siesta:     -0.02582  45.61267   0.00000  2       72

siesta: System type = slab      

initatomlists: Number of atoms, orbitals, and projectors:     72   936  1152

siesta: ******************** Simulation parameters ****************************
siesta:
siesta: The following are some of the parameters of the simulation.
siesta: A complete list of the parameters used, including default values,
siesta: can be found in file out.fdf
siesta:
redata: Non-Collinear-spin run           =     F
redata: SpinPolarized (Up/Down) run      =     F
redata: Number of spin components        =     1
redata: Long output                      =     F
redata: Number of Atomic Species         =        2
redata: Charge density info will appear in .RHO file
redata: Write Mulliken Pop.              =     NO
redata: Mesh Cutoff                      =   200.0000  Ry
redata: Net charge of the system         =     0.0000 |e|
redata: Max. number of SCF Iter          =      500
redata: SCF convergence failure will abort job
redata: Performing Pulay mixing using    =    10 iterations
redata: Mix DM in first SCF step ?       =     F
redata: Write Pulay info on disk?        =     F
redata: Discard 1st Pulay DM after  kick =     F
redata: New DM Mixing Weight             =     0.0500
redata: New DM Occupancy tolerance       = 0.000000000001
redata: No kicks to SCF
redata: DM Mixing Weight for Kicks       =     0.5000
redata: DM Tolerance for SCF             =     0.000100
redata: Require Energy convergence for SCF =     F
redata: DM Energy tolerance for SCF      =     0.000100 eV
redata: Require Harris convergence for SCF =     F
redata: DM Harris energy tolerance for SCF =     0.000100 eV
redata: Using Saved Data (generic)   =     F
redata: Use continuation files for DM    =     T
redata: Neglect nonoverlap interactions  =     F
redata: Method of Calculation            =     Diagonalization
redata: Divide and Conquer               =     T
redata: Electronic Temperature           =     0.0019  Ry
redata: Fix the spin of the system       =     F
redata: Dynamics option                  =     Verlet MD run
redata: Initial MD time step             =        1
redata:   Final MD time step             =        1
redata: Length of MD time step           =     1.0000  fs
redata: Initial Temperature of MD run    =     0.0000  K
redata: Perform a MD quench              =     F
redata: ***********************************************************************
Total number of electrons:   312.000000
Total ionic charge:   312.000000

* ProcessorY, Blocksize:    2  24

k-point displ. along   1 input, could be:     0.50    0.00
k-point displ. along   2 input, could be:     0.50    0.00
 Kpoints in:          231 . Kpoints trimmed:          231

siesta: k-grid: Number of k-points =   231
siesta: k-grid: Cutoff (effective) =     5.000 Ang
siesta: k-grid: Supercell and displacements
siesta: k-grid:   21   0   0      0.500
siesta: k-grid:    0  21   0      0.500
siesta: k-grid:    0   0   1      0.000
Naive supercell factors:     2    2    2

superc: Internal auxiliary supercell:     2 x     2 x     2  =       8
superc: Number of atoms, orbitals, and projectors:    576   7488   9216

* Maximum dynamic memory allocated =     4 MB

siesta:                 ==============================
                            Begin MD step =      1
                        ==============================

superc: Internal auxiliary supercell:     2 x     2 x     2  =       8
superc: Number of atoms, orbitals, and projectors:    576   7488   9216

outcell: Unit cell vectors (Ang):
       12.804619    7.392750    0.000000
        0.000000   14.785500    0.000000
        0.000000    0.000000   10.000000

outcell: Cell vector modules (Ang)   :   14.785500   14.785500   10.000000
outcell: Cell angles (23,13,12) (deg):     90.0000     90.0000     60.0000
outcell: Cell volume (Ang**3)        :   1893.2269
New_DM. Step:     1
Initializing Density Matrix...

InitMesh: MESH =   120 x   120 x    90 =     1296000
InitMesh: Mesh cutoff (required, used) =   200.000   223.865 Ry

* Maximum dynamic memory allocated =   179 MB

stepf: Fermi-Dirac step function

siesta: Program's energy decomposition (eV):
siesta: Ebs     =     -6350.203522
siesta: Eions   =     22260.935331
siesta: Ena     =      4976.712692
siesta: Ekin    =      8392.322035
siesta: Enl     =       -61.796020
siesta: DEna    =        -0.000015
siesta: DUscf   =         0.000000
siesta: DUext   =         0.000000
siesta: Exc     =     -4774.176311
siesta: eta*DQ  =         0.000000
siesta: Emadel  =         0.000000
siesta: Emeta   =         0.000000
siesta: Emolmec =         0.000000
siesta: Ekinion =         0.000000
siesta: Eharris =    -13351.046033
siesta: Etot    =    -13727.872951
siesta: FreeEng =    -13727.872951

siesta: iscf   Eharris(eV)      E_KS(eV)   FreeEng(eV)   dDmax  Ef(eV)
siesta:    1   -13351.0460   -13727.8730   -13727.8730  5.4914 -6.7710
timer: Routine,Calls,Time,% = IterSCF        1    4115.655  99.71
elaps: Routine,Calls,Wall,% = IterSCF        1     515.118  99.70
siesta:    2   -17528.4885   -12708.8112   -12708.8398 14.8693 -3.6709
siesta:    3   -13281.7548   -13478.6983   -13478.7212  1.7474 -4.3937
siesta:    4   -13235.5515   -13367.5547   -13367.5896  1.0071 -3.9648
siesta:    5   -13201.6806   -13303.1382   -13303.2088  0.8103 -3.8096
siesta:    6   -13194.0201   -13288.0443   -13288.0622  0.7662 -3.7386
siesta:    7   -13182.9153   -13258.9566   -13258.9982  0.6441 -3.6158
siesta:    8   -13181.4133   -13241.6608   -13241.7147  0.6411 -3.6631
siesta:    9   -13180.7565   -13222.8747   -13222.8973  0.5202 -3.7060
siesta:   10   -13180.3794   -13205.8759   -13205.8992  0.3420 -3.7221
siesta:   11   -13180.4124   -13188.4803   -13188.5630  0.3156 -3.6945
siesta:   12   -13180.3426   -13181.3108   -13181.3446  0.4352 -3.7336
siesta:   13   -13179.9896   -13177.0115   -13177.0827  0.1881 -3.6961
siesta:   14   -13179.7862   -13176.5554   -13176.6199  0.1718 -3.6881
siesta:   15   -13179.6129   -13178.2539   -13178.3175  0.2185 -3.6935
siesta:   16   -13179.4480   -13178.5796   -13178.6308  0.2876 -3.6998
siesta:   17   -13179.3497   -13180.0667   -13180.1046  0.0777 -3.7253
siesta:   18   -13179.3430   -13180.3638   -13180.4210  0.0726 -3.7279
siesta:   19   -13179.3227   -13180.9327   -13180.9905  0.0707 -3.7282
siesta:   20   -13179.3147   -13181.4064   -13181.4686  0.0573 -3.7241
siesta:   21   -13179.3115   -13181.3867   -13181.4494  0.0527 -3.7103
siesta:   22   -13179.3082   -13180.8139   -13180.8739  0.0155 -3.7089
siesta:   23   -13179.3075   -13180.0567   -13180.1174  0.0137 -3.7031
siesta:   24   -13179.3058   -13180.0434   -13180.1037  0.0078 -3.7041
siesta:   25   -13179.3055   -13179.9627   -13180.0237  0.0095 -3.7044
siesta:   26   -13179.3056   -13179.8071   -13179.8679  0.0031 -3.7042
siesta:   27   -13179.3056   -13179.6960   -13179.7566  0.0023 -3.7051
siesta:   28   -13179.3051   -13179.4838   -13179.5444  0.0015 -3.7057
siesta:   29   -13179.3051   -13179.4469   -13179.5079  0.0014 -3.7059
siesta:   30   -13179.3052   -13179.3787   -13179.4397  0.0007 -3.7063
siesta:   31   -13179.3052   -13179.3532   -13179.4141  0.0005 -3.7065
siesta:   32   -13179.3052   -13179.3436   -13179.4044  0.0004 -3.7065
siesta:   33   -13179.3052   -13179.3217   -13179.3826  0.0004 -3.7064
siesta:   34   -13179.3052   -13179.3137   -13179.3745  0.0001 -3.7065
siesta:   35   -13179.3052   -13179.3086   -13179.3695  0.0001 -3.7065

siesta: E_KS(eV) =           -13179.3067

siesta: E_KS - E_eggbox =    -13179.3067

siesta: Atomic forces (eV/Ang):
----------------------------------------
   Tot   -0.058451   -0.150250    0.000000
----------------------------------------
   Max  684.941324
   Res  180.068027    sqrt( Sum f_i^2 / 3N )
----------------------------------------
   Max  684.941324    constrained

Stress-tensor-Voigt (kbar):     -687.43    -3211.43       -0.02      -18.31        0.00        0.00
(Free)E + p*V (eV/cell)   -11643.6667
Target enthalpy (eV/cell)   -13179.3676

siesta: Stress tensor (static) (eV/Ang**3):
        -0.429058   -0.011427    0.000000
        -0.011427   -2.004397    0.000000
         0.000000    0.000000   -0.000011

siesta: Pressure (static):       1299.62796197  kBar

siesta: Stress tensor (total) (eV/Ang**3):
        -0.429058   -0.011427    0.000000
        -0.011427   -2.004397    0.000000
         0.000000    0.000000   -0.000011

siesta: Pressure (total):       1299.62796197  kBar

siesta: Temp_ion =       0.000 K

* Maximum dynamic memory allocated =   196 MB
Computing bands...

siesta: Program's energy decomposition (eV):
siesta: Ebs     =     -5103.741414
siesta: Eions   =     22260.935331
siesta: Ena     =      4976.712692
siesta: Ekin    =     11515.905920
siesta: Enl     =     -1759.184560
siesta: DEna    =      -813.115781
siesta: DUscf   =       114.281538
siesta: DUext   =         0.000000
siesta: Exc     =     -4952.971214
siesta: eta*DQ  =         0.000000
siesta: Emadel  =         0.000000
siesta: Emeta   =         0.000000
siesta: Emolmec =         0.000000
siesta: Ekinion =         0.000000
siesta: Eharris =    -13179.305177
siesta: Etot    =    -13179.306736
siesta: FreeEng =    -13179.367560

siesta: Final energy (eV):
siesta:  Band Struct. =   -5103.741414
siesta:       Kinetic =   11515.905920
siesta:       Hartree =   37066.471134
siesta:    Ext. field =       0.000000
siesta:   Exch.-corr. =   -4952.971214
siesta:  Ion-electron =  -85114.953947
siesta:       Ion-ion =   28306.241371
siesta:       Ekinion =       0.000000
siesta:         Total =  -13179.306736

siesta: Atomic forces (eV/Ang):
siesta:      1    4.262753  129.022519    0.000000
siesta:      2   31.325475   11.113928    0.000000
siesta:      3    3.029651    1.121336    0.000000
siesta:      4    0.774221   -3.420294    0.000000
siesta:      5  -33.316610    5.256015    0.000000
siesta:      6  -26.444033 -655.130769    0.000000
siesta:      7  -37.099894  -17.814345    0.000000
siesta:      8   18.280905  682.080075    0.000000
siesta:      9    0.755693   -2.771545    0.000000
siesta:     10   -0.849592    2.439067    0.000000
siesta:     11    0.560264   -0.370940    0.000000
siesta:     12   -1.997467    0.577894    0.000000
siesta:     13   -1.235990   -2.936323    0.000000
siesta:     14    0.828858    2.037729    0.000000
siesta:     15    0.915389   -0.018057    0.000000
siesta:     16    2.015191    3.230339    0.000000
siesta:     17    0.806317   -2.996168    0.000000
siesta:     18   -0.276972    2.502816    0.000000
siesta:     19    0.458754   -4.366196    0.000000
siesta:     20   26.906360    3.820210    0.000000
siesta:     21   -4.657695 -684.011208    0.000000
siesta:     22   -6.839847 -684.941324    0.000000
siesta:     23    1.771565  109.575026    0.000000
siesta:     24    1.877007 -659.059727    0.000000
siesta:     25   12.723819  549.982407    0.000000
siesta:     26    0.564866 -119.092421    0.000000
siesta:     27  -13.341666 -545.797305    0.000000
siesta:     28    3.975283  130.867481    0.000000
siesta:     29   17.020728 -545.527739    0.000000
siesta:     30   22.016194 -549.437031    0.000000
siesta:     31    1.261653    2.405869    0.000000
siesta:     32   -1.843974    2.061769    0.000000
siesta:     33   20.266501  659.701318    0.000000
siesta:     34   -2.670731 -114.551131    0.000000
siesta:     35   34.032973  551.727794    0.000000
siesta:     36   27.114540   -4.361234    0.000000
siesta:     37   -2.816704   -2.264672    0.000000
siesta:     38    1.851988    0.159832    0.000000
siesta:     39   -1.499363    0.199534    0.000000
siesta:     40    1.644527   -2.388618    0.000000
siesta:     41    0.041055    7.627078    0.000000
siesta:     42   -0.305663   -6.809222    0.000000
siesta:     43  -15.940067  651.718861    0.000000
siesta:     44    1.495626 -115.523431    0.000000
siesta:     45  -15.505529  667.658882    0.000000
siesta:     46   -2.010853 -122.984727    0.000000
siesta:     47   25.650070  556.106183    0.000000
siesta:     48   25.914372  -12.340570    0.000000
siesta:     49   -1.005381    2.623263    0.000000
siesta:     50   -0.780991   -0.640793    0.000000
siesta:     51   -0.290385    0.977798    0.000000
siesta:     52   -0.609190   -0.623548    0.000000
siesta:     53  -25.556407  655.337869    0.000000
siesta:     54  -27.788633   -3.952103    0.000000
siesta:     55  -16.121317  562.438541    0.000000
siesta:     56    1.261736    0.498736    0.000000
siesta:     57   -0.979545    0.378173    0.000000
siesta:     58    1.898999    0.361116    0.000000
siesta:     59   -1.565613   -0.001874    0.000000
siesta:     60   -0.461086   -0.236491    0.000000
siesta:     61   -0.436131    2.123490    0.000000
siesta:     62   -1.548785   -2.754545    0.000000
siesta:     63    0.918056    0.633958    0.000000
siesta:     64   -0.184461   -0.465753    0.000000
siesta:     65  -15.601573 -576.485030    0.000000
siesta:     66   -0.618429   -1.148123    0.000000
siesta:     67    1.694862   -2.106974    0.000000
siesta:     68  -22.556617    5.239380    0.000000
siesta:     69   -0.028832    0.828422    0.000000
siesta:     70    1.697291    0.537422    0.000000
siesta:     71   -3.836276  122.406623    0.000000
siesta:     72   -9.049697 -640.198770    0.000000
siesta: ----------------------------------------
siesta:    Tot   -0.058451   -0.150250    0.000000

siesta: Stress tensor (static) (eV/Ang**3):
siesta:    -0.429058   -0.011427    0.000000
siesta:    -0.011427   -2.004397    0.000000
siesta:     0.000000    0.000000   -0.000011

siesta: Cell volume =       1893.226884 Ang**3

siesta: Pressure (static):
siesta:                Solid            Molecule  Units
siesta:           0.00883452          0.14249856  Ry/Bohr**3
siesta:           0.81115520         13.08373283  eV/Ang**3
siesta:        1299.62796197      20962.67760959  kBar
(Free)E+ p_basis*V_orbitals  =      -13152.061069
(Free)Eharris+ p_basis*V_orbitals  =      -13152.057604

siesta: Electric dipole (a.u.)  =    0.000000    0.000000    0.000000
siesta: Electric dipole (Debye) =    0.000000    0.000000    0.000000

* Maximum dynamic memory allocated : Node    0 =   196 MB
* Maximum dynamic memory allocated : Node    1 =    69 MB
* Maximum dynamic memory allocated : Node    2 =    73 MB
* Maximum dynamic memory allocated : Node    3 =   187 MB
* Maximum dynamic memory allocated : Node    4 =   185 MB
* Maximum dynamic memory allocated : Node    5 =    70 MB
* Maximum dynamic memory allocated : Node    6 =    72 MB
* Maximum dynamic memory allocated : Node    7 =   170 MB

* Maximum memory occured during matrixMtoO                    

timer: CPU execution times:
timer:  Routine       Calls   Time/call    Tot.time        %
timer:  siesta            1  141851.996  141851.996   100.00
timer:  Setup             1       3.801       3.801     0.00
timer:  bands             3     268.952     806.857     0.57
timer:  writewave         1       0.042       0.042     0.00
timer:  KSV_init          1       0.005       0.005     0.00
timer:  IterMD            1  141035.624  141035.624    99.42
timer:  hsparse           1       0.233       0.233     0.00
timer:  overlap           1       7.721       7.721     0.01
timer:  IterSCF          35    4024.924  140872.324    99.31
timer:  kinefsm           2       3.952       7.904     0.01
timer:  nlefsm            2      18.322      36.645     0.03
timer:  DHSCF            36      84.075    3026.714     2.13
timer:  DHSCF1            1       0.762       0.762     0.00
timer:  DHSCF2            1      32.437      32.437     0.02
timer:  REORD           290       0.010       2.930     0.00
timer:  POISON           37       2.251      83.279     0.06
timer:  DHSCF3           36      82.288    2962.361     2.09
timer:  rhoofd           36      16.497     593.897     0.42
timer:  cellXC           36       3.472     124.990     0.09
timer:  vmat             36      39.264    1413.491     1.00
timer:  MolMec            2       0.000       0.000     0.00
timer:  diagon           35    3939.179  137871.260    97.19
timer:  c-eigval       8206       6.675   54771.753    38.61
timer:  c-buildHS      8206       0.112     916.963     0.65
timer:  cdiag         16291       6.881  112097.630    79.02
timer:  cdiag1        16291       0.427    6954.703     4.90
timer:  cdiag2        16291       1.913   31159.421    21.97
timer:  cdiag3        16291       3.950   64350.182    45.36
timer:  cdiag4        16291       0.204    3322.640     2.34
timer:  c-eigvec       8085       7.259   58686.075    41.37
timer:  c-buildD       8085       3.114   25177.100    17.75
timer:  DHSCF4            1      29.230      29.230     0.02
timer:  dfscf             1      27.473      27.473     0.02
timer:  overfsm           1       0.395       0.395     0.00
timer:  optical           1       5.014       5.014     0.00
  

elaps: ELAPSED times:
elaps:  Routine       Calls   Time/call    Tot.time        %
elaps:  siesta            1   17750.451   17750.451   100.00
elaps:  Setup             1       0.491       0.491     0.00
elaps:  bands             3      33.671     101.013     0.57
elaps:  writewave         1       0.005       0.005     0.00
elaps:  KSV_init          1       0.001       0.001     0.00
elaps:  IterMD            1   17648.284   17648.284    99.42
elaps:  hsparse           1       0.028       0.028     0.00
elaps:  overlap           1       0.962       0.962     0.01
elaps:  IterSCF          35     503.656   17627.974    99.31
elaps:  kinefsm           2       0.493       0.985     0.01
elaps:  nlefsm            2       2.350       4.700     0.03
elaps:  DHSCF            36      10.628     382.601     2.16
elaps:  DHSCF1            1       0.098       0.098     0.00
elaps:  DHSCF2            1       4.054       4.054     0.02
elaps:  REORD           290       0.001       0.404     0.00
elaps:  POISON           37       0.281      10.394     0.06
elaps:  DHSCF3           36      10.295     370.605     2.09
elaps:  rhoofd           36       4.423     159.214     0.90
elaps:  cellXC           36       0.433      15.594     0.09
elaps:  vmat             36       4.912     176.815     1.00
elaps:  MolMec            2       0.000       0.000     0.00
elaps:  diagon           35     492.904   17251.632    97.19
elaps:  c-eigval       8206       0.835    6852.996    38.61
elaps:  c-buildHS      8206       0.015     123.664     0.70
elaps:  cdiag         16291       0.868   14140.047    79.66
elaps:  cdiag1        16291       0.053     862.336     4.86
elaps:  cdiag2        16291       0.239    3898.890    21.97
elaps:  cdiag3        16291       0.495    8061.838    45.42
elaps:  cdiag4        16291       0.026     415.476     2.34
elaps:  c-eigvec       8085       0.925    7479.966    42.14
elaps:  c-buildD       8085       0.373    3013.737    16.98
elaps:  DHSCF4            1       7.584       7.584     0.04
elaps:  dfscf             1       7.210       7.210     0.04
elaps:  overfsm           1       0.048       0.048     0.00
elaps:  optical           1       0.001       0.001     0.00
  
>> End of run:  23-APR-2016  22:09:29
