Siesta Version:                                        siesta-3.2-pl-3
Architecture  : x86_64-unknown-linux-gnu--unknown
Compiler flags: mpiifort -g -O2 -fPIC -xSSE4.1 -fp-model source -shared-intel 
PARALLEL version

* Running on    8 nodes in parallel
>> Start of run:   1-MAY-2016  15:56:57

                           ***********************       
                           *  WELCOME TO SIESTA  *       
                           ***********************       

reinit: Reading from standard input
************************** Dump of input data file ****************************
#(1) General system descriptors
SystemName            GRP_doping    # Descriptive name of the system
SystemLabel           GRP_doping    # Short name for naming files
%include STRUCT.fdf
%include KPT.fdf
%include BASIS.fdf
#%include TS.fdf # for transiesta calculation
#(4) DFT, Grid, SCF
XC.functional         GGA           # LDA or GGA (default = LDA)
XC.authors            PBE           # CA (Ceperley-Aldr) = PZ
                                    #    (Perdew-Zunger) - LDA - Default
                                    # PW92 (Perdew-Wang-92) - LDA
                                    # PBE (Perdew-Burke-Ernzerhof) - GGA
MeshCutoff            200.000000    Ry      # Default: 50.0 Ry ~ 0.444 Bohr
                                    #         100.0 Ry ~ 0.314 Bohr
MaxSCFIterations      500           # Default: 50
DM.MixingWeight       0.05          # Default: 0.25
DM.NumberPulay        10            # Default: 0
DM.PulayOnFile        F             # SystemLabel.P1, SystemLabel.P2
DM.Tolerance          1.d-4         # Default: 1.d-4
DM.UseSaveDM          .true.        # because of the bug
SCFMustConverge       .true.
NeglNonOverlapInt     F             # Default: F
#(5) Eigenvalue problem: order-N or diagonalization
SolutionMethod        Diagon        # or Transiesta
ElectronicTemperature 300.0 K       # Default: 300.0 K
#(6) Molecular dynamics and relaxations
#MD.TypeOfRun          CG            # Type of dynamics:
#MD.VariableCell       F
#MD.NumCGsteps         0           # 0 for single-point / 100 for gopt
#MD.MaxCGDispl         0.2 Bohr      # Default: 0.2 Bohr
#MD.MaxForceTol        0.02 eV/Ang   # Default: 0.04 eV/Ang
#MD.MaxStressTol       1.0 GPa       # Default: 1.0 GPa
# Geometry Constraints
#%block GeometryConstraints
#	position from 1 to 44
#%endblock GeometryConstraints
BandLinesScale   pi/a
%block BandLines
 1   0.00000000  0.00000000  0.00000000
50   0.00000000  0.07809418  0.00000000
50   0.04509075  0.07809242  0.00000000
20   0.00000000  0.00000000  0.00000000
%endblock BandLines
************************** End of input data file *****************************

reinit: -----------------------------------------------------------------------
reinit: System Name: GRP_doping
reinit: -----------------------------------------------------------------------
reinit: System Label: GRP_doping                                                  
reinit: -----------------------------------------------------------------------

initatom: Reading input for the pseudopotentials and atomic orbitals ----------
 Species number:            1  Label: N Atomic number:           7
 Species number:            2  Label: C Atomic number:           6
Ground state valence configuration:   2s02  2p03
Reading pseudopotential information in formatted form from N.psf

Valence configuration for pseudopotential generation:
2s( 2.00) rc: 1.48
2p( 3.00) rc: 1.48
3d( 0.00) rc: 1.48
4f( 0.00) rc: 1.48
Ground state valence configuration:   2s02  2p02
Reading pseudopotential information in formatted form from C.psf

Valence configuration for pseudopotential generation:
2s( 2.00) rc: 1.54
2p( 2.00) rc: 1.54
3d( 0.00) rc: 1.54
4f( 0.00) rc: 1.54
For N, standard SIESTA heuristics set lmxkb to 3
 (one more than the basis l, including polarization orbitals).
Use PS.lmax or PS.KBprojectors blocks to override.
For C, standard SIESTA heuristics set lmxkb to 3
 (one more than the basis l, including polarization orbitals).
Use PS.lmax or PS.KBprojectors blocks to override.

<basis_specs>
===============================================================================
N                    Z=   7    Mass=  14.010        Charge= 0.17977+309
Lmxo=1 Lmxkb= 3    BasisType=split      Semic=F
L=0  Nsemic=0  Cnfigmx=2
          n=1  nzeta=2  polorb=0
            splnorm:   0.15000    
               vcte:    0.0000    
               rinn:    0.0000    
                rcs:    0.0000      0.0000    
            lambdas:    1.0000      1.0000    
L=1  Nsemic=0  Cnfigmx=2
          n=1  nzeta=2  polorb=1
            splnorm:   0.15000    
               vcte:    0.0000    
               rinn:    0.0000    
                rcs:    0.0000      0.0000    
            lambdas:    1.0000      1.0000    
-------------------------------------------------------------------------------
L=0  Nkbl=1  erefs: 0.17977+309
L=1  Nkbl=1  erefs: 0.17977+309
L=2  Nkbl=1  erefs: 0.17977+309
L=3  Nkbl=1  erefs: 0.17977+309
===============================================================================
</basis_specs>

atom: Called for N                     (Z =   7)

read_vps: Pseudopotential generation method:
read_vps: ATM3      Troullier-Martins                       
Total valence charge:    5.00000

read_vps: Pseudopotential includes a core correction:
read_vps: Pseudo-core for xc-correction

xc_check: Exchange-correlation functional:
xc_check: GGA Perdew, Burke & Ernzerhof 1996
V l=0 = -2*Zval/r beyond r=  1.4606
V l=1 = -2*Zval/r beyond r=  1.4606
V l=2 = -2*Zval/r beyond r=  1.4606
V l=3 = -2*Zval/r beyond r=  1.4606
All V_l potentials equal beyond r=  1.4606
This should be close to max(r_c) in ps generation
All pots = -2*Zval/r beyond r=  1.4606

VLOCAL1: 99.0% of the norm of Vloc inside     20.347 Ry
VLOCAL1: 99.9% of the norm of Vloc inside     46.372 Ry
atom: Maximum radius for 4*pi*r*r*local-pseudopot. charge    1.76189
atom: Maximum radius for r*vlocal+2*Zval:    1.53550
GHOST: No ghost state for L =  0
GHOST: No ghost state for L =  1
GHOST: No ghost state for L =  2
GHOST: No ghost state for L =  3

KBgen: Kleinman-Bylander projectors: 
   l= 0   rc=  1.634559   el= -1.363963   Ekb=  5.296955   kbcos=  0.335621
   l= 1   rc=  1.614250   el= -0.521451   Ekb= -5.259161   kbcos= -0.433408
   l= 2   rc=  1.718383   el=  0.001991   Ekb= -1.271464   kbcos= -0.007566
   l= 3   rc=  1.761893   el=  0.003093   Ekb= -0.494769   kbcos= -0.001015

KBgen: Total number of  Kleinman-Bylander projectors:   16
atom: -------------------------------------------------------------------------

atom: SANKEY-TYPE ORBITALS:
atom: Selected multiple-zeta basis: split     

SPLIT: Orbitals with angular momentum L= 0

SPLIT: Basis orbitals for state 2s

SPLIT: PAO cut-off radius determined from an
SPLIT: energy shift=  0.007350 Ry

   izeta = 1
                 lambda =    1.000000
                     rc =    4.071465
                 energy =   -1.356470
                kinetic =    1.176977
    potential(screened) =   -2.533447
       potential(ionic) =   -8.057990

   izeta = 2
                 rmatch =    2.905100
              splitnorm =    0.150000
                 energy =   -1.158343
                kinetic =    1.813009
    potential(screened) =   -2.971352
       potential(ionic) =   -8.901931

SPLIT: Orbitals with angular momentum L= 1

SPLIT: Basis orbitals for state 2p

SPLIT: PAO cut-off radius determined from an
SPLIT: energy shift=  0.007350 Ry

   izeta = 1
                 lambda =    1.000000
                     rc =    4.972977
                 energy =   -0.513884
                kinetic =    3.441732
    potential(screened) =   -3.955616
       potential(ionic) =   -9.287901

   izeta = 2
                 rmatch =    3.054066
              splitnorm =    0.150000
                 energy =   -0.318226
                kinetic =    5.125348
    potential(screened) =   -5.443573
       potential(ionic) =  -11.380999

POLgen: Perturbative polarization orbital with L=  2

POLgen: Polarization orbital for state 2p

   izeta = 1
                     rc =    4.972977
                 energy =    1.607437
                kinetic =    3.268125
    potential(screened) =   -1.660688
       potential(ionic) =   -5.973652
atom: Total number of Sankey-type orbitals: 13

atm_pop: Valence configuration (for local Pseudopot. screening):
 2s( 2.00)                                                            
 2p( 3.00)                                                            
Vna: chval, zval:    5.00000   5.00000

Vna:  Cut-off radius for the neutral-atom potential:   4.972977
comcore: Pseudo-core radius Rcore=  1.554824

atom: _________________________________________________________________________

<basis_specs>
===============================================================================
C                    Z=   6    Mass=  12.010        Charge= 0.17977+309
Lmxo=1 Lmxkb= 3    BasisType=split      Semic=F
L=0  Nsemic=0  Cnfigmx=2
          n=1  nzeta=2  polorb=0
            splnorm:   0.15000    
               vcte:    0.0000    
               rinn:    0.0000    
                rcs:    0.0000      0.0000    
            lambdas:    1.0000      1.0000    
L=1  Nsemic=0  Cnfigmx=2
          n=1  nzeta=2  polorb=1
            splnorm:   0.15000    
               vcte:    0.0000    
               rinn:    0.0000    
                rcs:    0.0000      0.0000    
            lambdas:    1.0000      1.0000    
-------------------------------------------------------------------------------
L=0  Nkbl=1  erefs: 0.17977+309
L=1  Nkbl=1  erefs: 0.17977+309
L=2  Nkbl=1  erefs: 0.17977+309
L=3  Nkbl=1  erefs: 0.17977+309
===============================================================================
</basis_specs>

atom: Called for C                     (Z =   6)

read_vps: Pseudopotential generation method:
read_vps: ATM3      Troullier-Martins                       
Total valence charge:    4.00000

read_vps: Pseudopotential includes a core correction:
read_vps: Pseudo-core for xc-correction

xc_check: Exchange-correlation functional:
xc_check: GGA Perdew, Burke & Ernzerhof 1996
V l=0 = -2*Zval/r beyond r=  1.5227
V l=1 = -2*Zval/r beyond r=  1.5227
V l=2 = -2*Zval/r beyond r=  1.5227
V l=3 = -2*Zval/r beyond r=  1.5038
All V_l potentials equal beyond r=  1.5227
This should be close to max(r_c) in ps generation
All pots = -2*Zval/r beyond r=  1.5227

VLOCAL1: 99.0% of the norm of Vloc inside     18.722 Ry
VLOCAL1: 99.9% of the norm of Vloc inside     42.668 Ry
atom: Maximum radius for 4*pi*r*r*local-pseudopot. charge    1.83678
atom: Maximum radius for r*vlocal+2*Zval:    1.58088
GHOST: No ghost state for L =  0
GHOST: No ghost state for L =  1
GHOST: No ghost state for L =  2
GHOST: No ghost state for L =  3

KBgen: Kleinman-Bylander projectors: 
   l= 0   rc=  1.704034   el= -1.009801   Ekb=  5.335044   kbcos=  0.316824
   l= 1   rc=  1.704034   el= -0.388707   Ekb= -3.785862   kbcos= -0.366464
   l= 2   rc=  1.791422   el=  0.001971   Ekb= -0.970471   kbcos= -0.009212
   l= 3   rc=  1.859892   el=  0.003065   Ekb= -0.399525   kbcos= -0.001223

KBgen: Total number of  Kleinman-Bylander projectors:   16
atom: -------------------------------------------------------------------------

atom: SANKEY-TYPE ORBITALS:
atom: Selected multiple-zeta basis: split     

SPLIT: Orbitals with angular momentum L= 0

SPLIT: Basis orbitals for state 2s

SPLIT: PAO cut-off radius determined from an
SPLIT: energy shift=  0.007350 Ry

   izeta = 1
                 lambda =    1.000000
                     rc =    4.632753
                 energy =   -1.002270
                kinetic =    0.855760
    potential(screened) =   -1.858031
       potential(ionic) =   -5.417575

   izeta = 2
                 rmatch =    3.431921
              splitnorm =    0.150000
                 energy =   -0.867111
                kinetic =    1.300804
    potential(screened) =   -2.167915
       potential(ionic) =   -5.962684

SPLIT: Orbitals with angular momentum L= 1

SPLIT: Basis orbitals for state 2p

SPLIT: PAO cut-off radius determined from an
SPLIT: energy shift=  0.007350 Ry

   izeta = 1
                 lambda =    1.000000
                     rc =    5.658549
                 energy =   -0.381140
                kinetic =    2.399701
    potential(screened) =   -2.780841
       potential(ionic) =   -6.206085

   izeta = 2
                 rmatch =    3.653288
              splitnorm =    0.150000
                 energy =   -0.249149
                kinetic =    3.542762
    potential(screened) =   -3.791911
       potential(ionic) =   -7.581078

POLgen: Perturbative polarization orbital with L=  2

POLgen: Polarization orbital for state 2p

   izeta = 1
                     rc =    5.658549
                 energy =    1.109913
                kinetic =    2.304789
    potential(screened) =   -1.194876
       potential(ionic) =   -4.013592
atom: Total number of Sankey-type orbitals: 13

atm_pop: Valence configuration (for local Pseudopot. screening):
 2s( 2.00)                                                            
 2p( 2.00)                                                            
Vna: chval, zval:    4.00000   4.00000

Vna:  Cut-off radius for the neutral-atom potential:   5.658549
comcore: Pseudo-core radius Rcore=  1.791422

atom: _________________________________________________________________________

prinput: Basis input ----------------------------------------------------------

PAO.BasisType split     

%block ChemicalSpeciesLabel
    1    7 N                       # Species index, atomic number, species label
    2    6 C                       # Species index, atomic number, species label
%endblock ChemicalSpeciesLabel

%block PAO.Basis                 # Define Basis set
N                     2                    # Species label, number of l-shells
 n=2   0   2                         # n, l, Nzeta 
   4.071      2.905   
   1.000      1.000   
 n=2   1   2 P   1                   # n, l, Nzeta, Polarization, NzetaPol
   4.973      3.054   
   1.000      1.000   
C                     2                    # Species label, number of l-shells
 n=2   0   2                         # n, l, Nzeta 
   4.633      3.432   
   1.000      1.000   
 n=2   1   2 P   1                   # n, l, Nzeta, Polarization, NzetaPol
   5.659      3.653   
   1.000      1.000   
%endblock PAO.Basis

prinput: ----------------------------------------------------------------------

coor:   Atomic-coordinates input format  =     Fractional

siesta: Atomic coordinates (Bohr) and species
siesta:      2.30256   9.31683   0.00000  1        1
siesta:      4.63094  10.66124   0.00000  1        2
siesta:      9.28770  21.41544   0.00000  1        3
siesta:     11.61608  22.75985   0.00000  1        4
siesta:     -2.35420   9.31683   0.00000  1        5
siesta:     -0.02582  10.66124   0.00000  1        6
siesta:      4.63094  21.41544   0.00000  1        7
siesta:      6.95932  22.75985   0.00000  1        8
siesta:     -4.68258  10.66124   0.00000  1        9
siesta:     -0.02582  21.41544   0.00000  1       10
siesta:      2.30256  22.75985   0.00000  1       11
siesta:      2.30256  25.44831   0.00000  1       12
siesta:     -4.68258  21.41544   0.00000  1       13
siesta:     -2.35420  22.75985   0.00000  1       14
siesta:     -2.35420  25.44831   0.00000  1       15
siesta:     -0.02582  26.79272   0.00000  1       16
siesta:     -0.02582  29.48119   0.00000  1       17
siesta:     -0.02582   2.59549   0.00000  2       18
siesta:     -0.02582   5.28395   0.00000  2       19
siesta:     -2.35420  38.89134   0.00000  2       20
siesta:     -2.35420  41.57980   0.00000  2       21
siesta:      2.30256  38.89134   0.00000  2       22
siesta:      2.30256  41.57980   0.00000  2       23
siesta:      4.63094  34.85847   0.00000  2       24
siesta:      4.63094  37.54693   0.00000  2       25
siesta:      6.95932  30.82560   0.00000  2       26
siesta:      6.95932  33.51406   0.00000  2       27
siesta:      9.28770  26.79272   0.00000  2       28
siesta:      9.28770  29.48119   0.00000  2       29
siesta:     -4.68258  34.85847   0.00000  2       30
siesta:     -4.68258  37.54693   0.00000  2       31
siesta:      2.30256   6.62836   0.00000  2       32
siesta:      4.63094  13.34970   0.00000  2       33
siesta:      6.95932  14.69411   0.00000  2       34
siesta:      6.95932  17.38257   0.00000  2       35
siesta:      9.28770  18.72698   0.00000  2       36
siesta:     11.61608  25.44831   0.00000  2       37
siesta:     -2.35420   6.62836   0.00000  2       38
siesta:     -0.02582  13.34970   0.00000  2       39
siesta:      2.30256  14.69411   0.00000  2       40
siesta:      2.30256  17.38257   0.00000  2       41
siesta:      4.63094  18.72698   0.00000  2       42
siesta:      6.95932  25.44831   0.00000  2       43
siesta:     -4.68258  13.34970   0.00000  2       44
siesta:     -2.35420  14.69411   0.00000  2       45
siesta:     -2.35420  17.38257   0.00000  2       46
siesta:     -0.02582  18.72698   0.00000  2       47
siesta:     -7.01096  14.69411   0.00000  2       48
siesta:     -7.01096  17.38257   0.00000  2       49
siesta:     -4.68258  18.72698   0.00000  2       50
siesta:     -9.33934  18.72698   0.00000  2       51
siesta:     -9.33934  21.41544   0.00000  2       52
siesta:     -7.01096  22.75985   0.00000  2       53
siesta:     -7.01096  25.44831   0.00000  2       54
siesta:    -11.66772  22.75985   0.00000  2       55
siesta:    -11.66772  25.44831   0.00000  2       56
siesta:     -9.33934  26.79272   0.00000  2       57
siesta:     -9.33934  29.48119   0.00000  2       58
siesta:      4.63094  26.79272   0.00000  2       59
siesta:      4.63094  29.48119   0.00000  2       60
siesta:     -4.68258  26.79272   0.00000  2       61
siesta:     -4.68258  29.48119   0.00000  2       62
siesta:      2.30256  30.82560   0.00000  2       63
siesta:      2.30256  33.51406   0.00000  2       64
siesta:     -2.35420  30.82560   0.00000  2       65
siesta:     -2.35420  33.51406   0.00000  2       66
siesta:     -7.01096  30.82560   0.00000  2       67
siesta:     -7.01096  33.51406   0.00000  2       68
siesta:     -0.02582  34.85847   0.00000  2       69
siesta:     -0.02582  37.54693   0.00000  2       70
siesta:     -0.02582  42.92421   0.00000  2       71
siesta:     -0.02582  45.61267   0.00000  2       72

siesta: System type = slab      

initatomlists: Number of atoms, orbitals, and projectors:     72   936  1152

siesta: ******************** Simulation parameters ****************************
siesta:
siesta: The following are some of the parameters of the simulation.
siesta: A complete list of the parameters used, including default values,
siesta: can be found in file out.fdf
siesta:
redata: Non-Collinear-spin run           =     F
redata: SpinPolarized (Up/Down) run      =     F
redata: Number of spin components        =     1
redata: Long output                      =     F
redata: Number of Atomic Species         =        2
redata: Charge density info will appear in .RHO file
redata: Write Mulliken Pop.              =     NO
redata: Mesh Cutoff                      =   200.0000  Ry
redata: Net charge of the system         =     0.0000 |e|
redata: Max. number of SCF Iter          =      500
redata: SCF convergence failure will abort job
redata: Performing Pulay mixing using    =    10 iterations
redata: Mix DM in first SCF step ?       =     F
redata: Write Pulay info on disk?        =     F
redata: Discard 1st Pulay DM after  kick =     F
redata: New DM Mixing Weight             =     0.0500
redata: New DM Occupancy tolerance       = 0.000000000001
redata: No kicks to SCF
redata: DM Mixing Weight for Kicks       =     0.5000
redata: DM Tolerance for SCF             =     0.000100
redata: Require Energy convergence for SCF =     F
redata: DM Energy tolerance for SCF      =     0.000100 eV
redata: Require Harris convergence for SCF =     F
redata: DM Harris energy tolerance for SCF =     0.000100 eV
redata: Using Saved Data (generic)   =     F
redata: Use continuation files for DM    =     T
redata: Neglect nonoverlap interactions  =     F
redata: Method of Calculation            =     Diagonalization
redata: Divide and Conquer               =     T
redata: Electronic Temperature           =     0.0019  Ry
redata: Fix the spin of the system       =     F
redata: Dynamics option                  =     Verlet MD run
redata: Initial MD time step             =        1
redata:   Final MD time step             =        1
redata: Length of MD time step           =     1.0000  fs
redata: Initial Temperature of MD run    =     0.0000  K
redata: Perform a MD quench              =     F
redata: ***********************************************************************
Total number of electrons:   305.000000
Total ionic charge:   305.000000

* ProcessorY, Blocksize:    2  24

k-point displ. along   1 input, could be:     0.50    0.00
k-point displ. along   2 input, could be:     0.50    0.00
 Kpoints in:          231 . Kpoints trimmed:          231

siesta: k-grid: Number of k-points =   231
siesta: k-grid: Cutoff (effective) =     5.000 Ang
siesta: k-grid: Supercell and displacements
siesta: k-grid:   21   0   0      0.500
siesta: k-grid:    0  21   0      0.500
siesta: k-grid:    0   0   1      0.000
Naive supercell factors:     2    2    2

superc: Internal auxiliary supercell:     2 x     2 x     2  =       8
superc: Number of atoms, orbitals, and projectors:    576   7488   9216

* Maximum dynamic memory allocated =     4 MB

siesta:                 ==============================
                            Begin MD step =      1
                        ==============================

superc: Internal auxiliary supercell:     2 x     2 x     2  =       8
superc: Number of atoms, orbitals, and projectors:    576   7488   9216

outcell: Unit cell vectors (Ang):
       12.804619    7.392750    0.000000
        0.000000   14.785500    0.000000
        0.000000    0.000000   10.000000

outcell: Cell vector modules (Ang)   :   14.785500   14.785500   10.000000
outcell: Cell angles (23,13,12) (deg):     90.0000     90.0000     60.0000
outcell: Cell volume (Ang**3)        :   1893.2269
New_DM. Step:     1
Initializing Density Matrix...

InitMesh: MESH =   120 x   120 x    90 =     1296000
InitMesh: Mesh cutoff (required, used) =   200.000   223.865 Ry

* Maximum dynamic memory allocated =   189 MB

stepf: Fermi-Dirac step function

siesta: Program's energy decomposition (eV):
siesta: Ebs     =     -6226.251215
siesta: Eions   =     21135.707422
siesta: Ena     =      4901.800401
siesta: Ekin    =      7804.862351
siesta: Enl     =       137.022913
siesta: DEna    =        -0.000015
siesta: DUscf   =         0.000000
siesta: DUext   =         0.000000
siesta: Exc     =     -4598.018502
siesta: eta*DQ  =         0.000000
siesta: Emadel  =         0.000000
siesta: Emeta   =         0.000000
siesta: Emolmec =         0.000000
siesta: Ekinion =         0.000000
siesta: Eharris =    -12524.245081
siesta: Etot    =    -12890.040273
siesta: FreeEng =    -12890.040273

siesta: iscf   Eharris(eV)      E_KS(eV)   FreeEng(eV)   dDmax  Ef(eV)
siesta:    1   -12524.2451   -12890.0403   -12890.0403  5.2428 -6.8552
timer: Routine,Calls,Time,% = IterSCF        1    3409.057  99.66
elaps: Routine,Calls,Wall,% = IterSCF        1     427.010  99.66
siesta:    2   -17673.1437   -11821.4561   -11821.5351 16.4796 -4.4152
siesta:    3   -12435.5803   -12726.4130   -12726.4479  2.6474 -4.9834
siesta:    4   -12408.0435   -12551.8426   -12551.8764  0.9645 -4.2787
siesta:    5   -12370.5878   -12440.0152   -12440.0848  1.0037 -3.7757
siesta:    6   -12367.1370   -12426.4231   -12426.4627  0.9843 -3.8034
siesta:    7   -12362.6729   -12417.6290   -12417.6787  0.9089 -3.8395
siesta:    8   -12359.1023   -12396.7536   -12396.8010  0.7486 -3.8491
siesta:    9   -12358.1419   -12391.1036   -12391.1435  0.7145 -3.8632
siesta:   10   -12357.3487   -12381.4664   -12381.5234  0.5953 -3.8588
siesta:   11   -12357.4558   -12360.0294   -12360.0906  0.3685 -3.8189
siesta:   12   -12357.8511   -12345.6301   -12345.6952  0.2233 -3.8254
siesta:   13   -12357.4263   -12340.9618   -12341.0213  0.1625 -3.8076
siesta:   14   -12357.0453   -12342.9714   -12343.0475  0.4463 -3.8262
siesta:   15   -12356.7856   -12341.4402   -12341.5152  0.0742 -3.8042
siesta:   16   -12356.6460   -12342.4312   -12342.5042  0.0713 -3.8140
siesta:   17   -12356.5766   -12343.8709   -12343.9466  0.0620 -3.8233
siesta:   18   -12356.5477   -12346.2912   -12346.3639  0.0485 -3.8348
siesta:   19   -12356.5325   -12348.4812   -12348.5552  0.0432 -3.8348
siesta:   20   -12356.5314   -12352.7554   -12352.8284  0.0296 -3.8399
siesta:   21   -12356.5292   -12353.9903   -12354.0620  0.0228 -3.8415
siesta:   22   -12356.5252   -12355.2152   -12355.2874  0.0158 -3.8417
siesta:   23   -12356.5225   -12355.7007   -12355.7727  0.0158 -3.8407
siesta:   24   -12356.5229   -12356.1629   -12356.2363  0.0080 -3.8385
siesta:   25   -12356.5225   -12356.3646   -12356.4375  0.0074 -3.8353
siesta:   26   -12356.5226   -12356.4886   -12356.5614  0.0040 -3.8332
siesta:   27   -12356.5223   -12356.5604   -12356.6330  0.0027 -3.8328
siesta:   28   -12356.5221   -12356.5518   -12356.6244  0.0013 -3.8327
siesta:   29   -12356.5221   -12356.5884   -12356.6611  0.0009 -3.8328
siesta:   30   -12356.5221   -12356.5545   -12356.6272  0.0008 -3.8329
siesta:   31   -12356.5221   -12356.5300   -12356.6027  0.0005 -3.8330
siesta:   32   -12356.5221   -12356.5074   -12356.5801  0.0004 -3.8331
siesta:   33   -12356.5221   -12356.5090   -12356.5817  0.0004 -3.8333
siesta:   34   -12356.5221   -12356.5116   -12356.5843  0.0002 -3.8334
siesta:   35   -12356.5221   -12356.5155   -12356.5882  0.0004 -3.8334
siesta:   36   -12356.5221   -12356.5269   -12356.5996  0.0002 -3.8335
siesta:   37   -12356.5221   -12356.5318   -12356.6044  0.0001 -3.8335

siesta: E_KS(eV) =           -12356.5330

siesta: E_KS - E_eggbox =    -12356.5330

siesta: Atomic forces (eV/Ang):
----------------------------------------
   Tot   -0.419996   -0.021895    0.000000
----------------------------------------
   Max  677.791631
   Res  176.205500    sqrt( Sum f_i^2 / 3N )
----------------------------------------
   Max  677.791631    constrained

Stress-tensor-Voigt (kbar):     -644.44    -3137.66       -0.11        3.97        0.00        0.00
(Free)E + p*V (eV/cell)   -10866.8615
Target enthalpy (eV/cell)   -12356.6056

siesta: Stress tensor (static) (eV/Ang**3):
        -0.402221    0.002481    0.000000
         0.002481   -1.958350    0.000000
         0.000000    0.000000   -0.000072

siesta: Pressure (static):       1260.73590218  kBar

siesta: Stress tensor (total) (eV/Ang**3):
        -0.402221    0.002481    0.000000
         0.002481   -1.958350    0.000000
         0.000000    0.000000   -0.000072

siesta: Pressure (total):       1260.73590218  kBar

siesta: Temp_ion =       0.000 K

* Maximum dynamic memory allocated =   206 MB
Computing bands...

siesta: Program's energy decomposition (eV):
siesta: Ebs     =     -5006.232391
siesta: Eions   =     21135.707422
siesta: Ena     =      4901.800401
siesta: Ekin    =     10908.135870
siesta: Enl     =     -1581.851345
siesta: DEna    =      -786.593570
siesta: DUscf   =       108.176418
siesta: DUext   =         0.000000
siesta: Exc     =     -4770.493316
siesta: eta*DQ  =         0.000000
siesta: Emadel  =         0.000000
siesta: Emeta   =         0.000000
siesta: Emolmec =         0.000000
siesta: Ekinion =         0.000000
siesta: Eharris =    -12356.522090
siesta: Etot    =    -12356.532965
siesta: FreeEng =    -12356.605635

siesta: Final energy (eV):
siesta:  Band Struct. =   -5006.232391
siesta:       Kinetic =   10908.135870
siesta:       Hartree =   35246.133681
siesta:    Ext. field =       0.000000
siesta:   Exch.-corr. =   -4770.493316
siesta:  Ion-electron =  -80982.696927
siesta:       Ion-ion =   27242.387728
siesta:       Ekinion =       0.000000
siesta:         Total =  -12356.532965

siesta: Atomic forces (eV/Ang):
siesta:      1   -4.927774 -124.638395    0.000000
siesta:      2   38.143731  661.573964    0.000000
siesta:      3    0.015902   -4.353269    0.000000
siesta:      4   -0.406170    4.716354    0.000000
siesta:      5    5.493468 -125.235174    0.000000
siesta:      6   -0.392794  671.891290    0.000000
siesta:      7    0.924636   -2.042705    0.000000
siesta:      8   -0.685422    2.427667    0.000000
siesta:      9  -38.234632  661.356028    0.000000
siesta:     10   -0.458731   -2.839496    0.000000
siesta:     11    0.633971   -0.130169    0.000000
siesta:     12    1.261602    0.690473    0.000000
siesta:     13   -1.293583   -1.400429    0.000000
siesta:     14   -0.275572   -0.748848    0.000000
siesta:     15   -1.450792    0.838694    0.000000
siesta:     16   -0.117376    2.429676    0.000000
siesta:     17   -0.400190 -677.791631    0.000000
siesta:     18    0.245168  643.706683    0.000000
siesta:     19   -0.138669 -119.558186    0.000000
siesta:     20    0.205027  126.142402    0.000000
siesta:     21  -14.519476 -550.881054    0.000000
siesta:     22    0.237929  125.611172    0.000000
siesta:     23   14.998839 -550.632484    0.000000
siesta:     24   27.712679    1.832808    0.000000
siesta:     25   18.019443 -655.717866    0.000000
siesta:     26    1.976066    0.325634    0.000000
siesta:     27   -2.562011    1.227091    0.000000
siesta:     28    0.452520    1.644103    0.000000
siesta:     29   -1.032959   -0.312528    0.000000
siesta:     30  -27.735834    1.455839    0.000000
siesta:     31  -18.536629 -655.609660    0.000000
siesta:     32    7.112018  539.448913    0.000000
siesta:     33   24.743638   -4.285149    0.000000
siesta:     34   -2.290715   -1.006654    0.000000
siesta:     35    1.019545   -0.344041    0.000000
siesta:     36    1.176932    2.902057    0.000000
siesta:     37    0.990318   -5.954629    0.000000
siesta:     38   -6.441595  539.754273    0.000000
siesta:     39    0.065935 -119.445358    0.000000
siesta:     40   18.043465  563.431710    0.000000
siesta:     41   24.078973   -5.983733    0.000000
siesta:     42   -2.303961    3.396733    0.000000
siesta:     43   -0.683714   -1.214066    0.000000
siesta:     44  -25.029288   -3.554703    0.000000
siesta:     45  -19.029832  563.403854    0.000000
siesta:     46  -23.834673   -6.322700    0.000000
siesta:     47   -0.401843  566.033311    0.000000
siesta:     48    3.121580   -2.082419    0.000000
siesta:     49   -2.158300    0.120888    0.000000
siesta:     50    2.230008    3.618490    0.000000
siesta:     51    0.878448   -0.572632    0.000000
siesta:     52   -1.336414   -1.859203    0.000000
siesta:     53    0.692602    0.666944    0.000000
siesta:     54    0.867187   -0.977471    0.000000
siesta:     55    0.236405    6.802140    0.000000
siesta:     56    0.155396   -6.994905    0.000000
siesta:     57   -1.963114    1.958322    0.000000
siesta:     58    1.701685    0.313348    0.000000
siesta:     59   -0.236557   -0.345344    0.000000
siesta:     60   -1.504093   -3.280358    0.000000
siesta:     61    0.491893    0.710087    0.000000
siesta:     62    1.823383   -3.896749    0.000000
siesta:     63   24.934306    9.716167    0.000000
siesta:     64   26.004603 -560.083072    0.000000
siesta:     65  -24.637101    9.867143    0.000000
siesta:     66  -26.536177 -559.968986    0.000000
siesta:     67   -2.642380    0.066896    0.000000
siesta:     68    2.994182    1.575513    0.000000
siesta:     69   -0.182154  119.678399    0.000000
siesta:     70   -0.233160 -666.292860    0.000000
siesta:     71    0.166977  129.353531    0.000000
siesta:     72    0.343235 -544.353570    0.000000
siesta: ----------------------------------------
siesta:    Tot   -0.419996   -0.021895    0.000000

siesta: Stress tensor (static) (eV/Ang**3):
siesta:    -0.402221    0.002481    0.000000
siesta:     0.002481   -1.958350    0.000000
siesta:     0.000000    0.000000   -0.000072

siesta: Cell volume =       1893.226884 Ang**3

siesta: Pressure (static):
siesta:                Solid            Molecule  Units
siesta:           0.00857014          0.13888769  Ry/Bohr**3
siesta:           0.78688095         12.75219533  eV/Ang**3
siesta:        1260.73590218      20431.49023952  kBar
(Free)E+ p_basis*V_orbitals  =      -12328.298398
(Free)Eharris+ p_basis*V_orbitals  =      -12328.288736

siesta: Electric dipole (a.u.)  =    0.000000    0.000000    0.000000
siesta: Electric dipole (Debye) =    0.000000    0.000000    0.000000

* Maximum dynamic memory allocated : Node    0 =   206 MB
* Maximum dynamic memory allocated : Node    1 =    72 MB
* Maximum dynamic memory allocated : Node    2 =    74 MB
* Maximum dynamic memory allocated : Node    3 =   193 MB
* Maximum dynamic memory allocated : Node    4 =   186 MB
* Maximum dynamic memory allocated : Node    5 =    71 MB
* Maximum dynamic memory allocated : Node    6 =    71 MB
* Maximum dynamic memory allocated : Node    7 =   171 MB

* Maximum memory occured during matrixMtoO                    

timer: CPU execution times:
timer:  Routine       Calls   Time/call    Tot.time        %
timer:  siesta            1  124484.059  124484.059   100.00
timer:  Setup             1       3.831       3.831     0.00
timer:  bands             3     243.806     731.418     0.59
timer:  writewave         1       0.047       0.047     0.00
timer:  KSV_init          1       0.006       0.006     0.00
timer:  IterMD            1  123743.604  123743.604    99.41
timer:  hsparse           1       0.282       0.282     0.00
timer:  overlap           1       7.124       7.124     0.01
timer:  IterSCF          37    3340.252  123589.338    99.28
timer:  kinefsm           2       3.673       7.346     0.01
timer:  nlefsm            2      17.521      35.043     0.03
timer:  DHSCF            38      76.349    2901.254     2.33
timer:  DHSCF1            1       0.745       0.745     0.00
timer:  DHSCF2            1      31.113      31.113     0.02
timer:  REORD           306       0.005       1.530     0.00
timer:  POISON           39       0.873      34.038     0.03
timer:  DHSCF3           38      74.740    2840.127     2.28
timer:  rhoofd           38      15.669     595.439     0.48
timer:  cellXC           38       3.206     121.845     0.10
timer:  vmat             38      34.647    1316.585     1.06
timer:  MolMec            2       0.000       0.001     0.00
timer:  diagon           37    3262.737  120721.274    96.98
timer:  c-eigval       8668       6.028   52247.854    41.97
timer:  c-buildHS      8668       0.048     414.902     0.33
timer:  cdiag         17215       6.168  106177.943    85.29
timer:  cdiag1        17215       0.383    6597.022     5.30
timer:  cdiag2        17215       1.766   30394.203    24.42
timer:  cdiag3        17215       3.739   64374.265    51.71
timer:  cdiag4        17215       0.151    2591.536     2.08
timer:  c-eigvec       8547       6.396   54664.664    43.91
timer:  c-buildD       8547       1.696   14496.262    11.65
timer:  DHSCF4            1      28.489      28.489     0.02
timer:  dfscf             1      26.604      26.604     0.02
timer:  overfsm           1       0.376       0.376     0.00
timer:  optical           1       4.578       4.578     0.00
  

elaps: ELAPSED times:
elaps:  Routine       Calls   Time/call    Tot.time        %
elaps:  siesta            1   15590.556   15590.556   100.00
elaps:  Setup             1       0.498       0.498     0.00
elaps:  bands             3      30.552      91.655     0.59
elaps:  writewave         1       0.006       0.006     0.00
elaps:  KSV_init          1       0.001       0.001     0.00
elaps:  IterMD            1   15497.800   15497.800    99.41
elaps:  hsparse           1       0.037       0.037     0.00
elaps:  overlap           1       0.893       0.893     0.01
elaps:  IterSCF          37     418.340   15478.598    99.28
elaps:  kinefsm           2       0.464       0.928     0.01
elaps:  nlefsm            2       2.154       4.308     0.03
elaps:  DHSCF            38       9.665     367.260     2.36
elaps:  DHSCF1            1       0.095       0.095     0.00
elaps:  DHSCF2            1       3.894       3.894     0.02
elaps:  REORD           306       0.001       0.201     0.00
elaps:  POISON           39       0.110       4.293     0.03
elaps:  DHSCF3           38       9.360     355.688     2.28
elaps:  rhoofd           38       4.487     170.505     1.09
elaps:  cellXC           38       0.401      15.247     0.10
elaps:  vmat             38       4.339     164.886     1.06
elaps:  MolMec            2       0.000       0.000     0.00
elaps:  diagon           37     408.631   15119.332    96.98
elaps:  c-eigval       8668       0.755    6543.081    41.97
elaps:  c-buildHS      8668       0.007      58.655     0.38
elaps:  cdiag         17215       0.767   13195.584    84.64
elaps:  cdiag1        17215       0.048     827.225     5.31
elaps:  cdiag2        17215       0.221    3807.209    24.42
elaps:  cdiag3        17215       0.469    8072.492    51.78
elaps:  cdiag4        17215       0.018     318.462     2.04
elaps:  c-eigvec       8547       0.791    6758.895    43.35
elaps:  c-buildD       8547       0.222    1896.849    12.17
elaps:  DHSCF4            1       7.482       7.482     0.05
elaps:  dfscf             1       7.075       7.075     0.05
elaps:  overfsm           1       0.051       0.051     0.00
elaps:  optical           1       0.001       0.001     0.00
  
>> End of run:   1-MAY-2016  20:16:48
