Siesta Version:                                        siesta-3.2-pl-3
Architecture  : x86_64-unknown-linux-gnu--unknown
Compiler flags: mpiifort -g -O2 -fPIC -xSSE4.1 -fp-model source -shared-intel 
PARALLEL version

* Running on   12 nodes in parallel
>> Start of run:   5-MAY-2016  10:49:24

                           ***********************       
                           *  WELCOME TO SIESTA  *       
                           ***********************       

reinit: Reading from standard input
************************** Dump of input data file ****************************
#(1) General system descriptors
SystemName            GRP_doping    # Descriptive name of the system
SystemLabel           GRP_doping    # Short name for naming files
%include STRUCT.fdf
%include KPT.fdf
%include BASIS.fdf
#%include TS.fdf # for transiesta calculation
#(4) DFT, Grid, SCF
XC.functional         GGA           # LDA or GGA (default = LDA)
XC.authors            PBE           # CA (Ceperley-Aldr) = PZ
                                    #    (Perdew-Zunger) - LDA - Default
                                    # PW92 (Perdew-Wang-92) - LDA
                                    # PBE (Perdew-Burke-Ernzerhof) - GGA
MeshCutoff            200.000000    Ry      # Default: 50.0 Ry ~ 0.444 Bohr
                                    #         100.0 Ry ~ 0.314 Bohr
MaxSCFIterations      500           # Default: 50
DM.MixingWeight       0.05          # Default: 0.25
DM.NumberPulay        10            # Default: 0
DM.PulayOnFile        F             # SystemLabel.P1, SystemLabel.P2
DM.Tolerance          1.d-4         # Default: 1.d-4
DM.UseSaveDM          .true.        # because of the bug
SCFMustConverge       .true.
NeglNonOverlapInt     F             # Default: F
#(5) Eigenvalue problem: order-N or diagonalization
SolutionMethod        Diagon        # or Transiesta
ElectronicTemperature 300.0 K       # Default: 300.0 K
#(6) Molecular dynamics and relaxations
#MD.TypeOfRun          CG            # Type of dynamics:
#MD.VariableCell       F
#MD.NumCGsteps         0           # 0 for single-point / 100 for gopt
#MD.MaxCGDispl         0.2 Bohr      # Default: 0.2 Bohr
#MD.MaxForceTol        0.02 eV/Ang   # Default: 0.04 eV/Ang
#MD.MaxStressTol       1.0 GPa       # Default: 1.0 GPa
# Geometry Constraints
#%block GeometryConstraints
#	position from 1 to 44
#%endblock GeometryConstraints
BandLinesScale   pi/a
%block BandLines
 1   0.00000000  0.00000000  0.00000000
50   0.00000000  0.07809418  0.00000000
50   0.04509075  0.07809242  0.00000000
20   0.00000000  0.00000000  0.00000000
%endblock BandLines
************************** End of input data file *****************************

reinit: -----------------------------------------------------------------------
reinit: System Name: GRP_doping
reinit: -----------------------------------------------------------------------
reinit: System Label: GRP_doping                                                  
reinit: -----------------------------------------------------------------------

initatom: Reading input for the pseudopotentials and atomic orbitals ----------
 Species number:            1  Label: B Atomic number:           5
 Species number:            2  Label: C Atomic number:           6
Ground state valence configuration:   2s02  2p01
Reading pseudopotential information in formatted form from B.psf

Valence configuration for pseudopotential generation:
2s( 2.00) rc: 1.74
2p( 1.00) rc: 1.74
3d( 0.00) rc: 1.74
4f( 0.00) rc: 1.74
Ground state valence configuration:   2s02  2p02
Reading pseudopotential information in formatted form from C.psf

Valence configuration for pseudopotential generation:
2s( 2.00) rc: 1.54
2p( 2.00) rc: 1.54
3d( 0.00) rc: 1.54
4f( 0.00) rc: 1.54
For B, standard SIESTA heuristics set lmxkb to 3
 (one more than the basis l, including polarization orbitals).
Use PS.lmax or PS.KBprojectors blocks to override.
For C, standard SIESTA heuristics set lmxkb to 3
 (one more than the basis l, including polarization orbitals).
Use PS.lmax or PS.KBprojectors blocks to override.

<basis_specs>
===============================================================================
B                    Z=   5    Mass=  10.810        Charge= 0.17977+309
Lmxo=1 Lmxkb= 3    BasisType=split      Semic=F
L=0  Nsemic=0  Cnfigmx=2
          n=1  nzeta=2  polorb=0
            splnorm:   0.15000    
               vcte:    0.0000    
               rinn:    0.0000    
                rcs:    0.0000      0.0000    
            lambdas:    1.0000      1.0000    
L=1  Nsemic=0  Cnfigmx=2
          n=1  nzeta=2  polorb=1
            splnorm:   0.15000    
               vcte:    0.0000    
               rinn:    0.0000    
                rcs:    0.0000      0.0000    
            lambdas:    1.0000      1.0000    
-------------------------------------------------------------------------------
L=0  Nkbl=1  erefs: 0.17977+309
L=1  Nkbl=1  erefs: 0.17977+309
L=2  Nkbl=1  erefs: 0.17977+309
L=3  Nkbl=1  erefs: 0.17977+309
===============================================================================
</basis_specs>

atom: Called for B                     (Z =   5)

read_vps: Pseudopotential generation method:
read_vps: ATM3      Troullier-Martins                       
Total valence charge:    3.00000

read_vps: Pseudopotential includes a core correction:
read_vps: Pseudo-core for xc-correction

xc_check: Exchange-correlation functional:
xc_check: GGA Perdew, Burke & Ernzerhof 1996
V l=0 = -2*Zval/r beyond r=  1.7165
V l=1 = -2*Zval/r beyond r=  1.7165
V l=2 = -2*Zval/r beyond r=  1.7165
V l=3 = -2*Zval/r beyond r=  1.6951
All V_l potentials equal beyond r=  1.7165
This should be close to max(r_c) in ps generation
All pots = -2*Zval/r beyond r=  1.7165

VLOCAL1: 99.0% of the norm of Vloc inside     14.733 Ry
VLOCAL1: 99.9% of the norm of Vloc inside     33.577 Ry
atom: Maximum radius for 4*pi*r*r*local-pseudopot. charge    2.04484
atom: Maximum radius for r*vlocal+2*Zval:    1.75994
GHOST: No ghost state for L =  0
GHOST: No ghost state for L =  1
GHOST: No ghost state for L =  2
GHOST: No ghost state for L =  3

KBgen: Kleinman-Bylander projectors: 
   l= 0   rc=  1.897051   el= -0.693730   Ekb=  4.595746   kbcos=  0.286105
   l= 1   rc=  1.920920   el= -0.265236   Ekb= -2.350715   kbcos= -0.315747
   l= 2   rc=  2.044840   el=  0.002055   Ekb= -0.690767   kbcos= -0.013822
   l= 3   rc=  2.149707   el=  0.003188   Ekb= -0.315358   kbcos= -0.002055

KBgen: Total number of  Kleinman-Bylander projectors:   16
atom: -------------------------------------------------------------------------

atom: SANKEY-TYPE ORBITALS:
atom: Selected multiple-zeta basis: split     

SPLIT: Orbitals with angular momentum L= 0

SPLIT: Basis orbitals for state 2s

SPLIT: PAO cut-off radius determined from an
SPLIT: energy shift=  0.007350 Ry

   izeta = 1
                 lambda =    1.000000
                     rc =    5.422032
                 energy =   -0.686029
                kinetic =    0.576707
    potential(screened) =   -1.262736
       potential(ionic) =   -3.271094

   izeta = 2
                 rmatch =    4.222573
              splitnorm =    0.150000
                 energy =   -0.602132
                kinetic =    0.858975
    potential(screened) =   -1.461107
       potential(ionic) =   -3.582536

SPLIT: Orbitals with angular momentum L= 1

SPLIT: Basis orbitals for state 2p

SPLIT: PAO cut-off radius determined from an
SPLIT: energy shift=  0.007350 Ry

   izeta = 1
                 lambda =    1.000000
                     rc =    6.790259
                 energy =   -0.258578
                kinetic =    1.481412
    potential(screened) =   -1.739989
       potential(ionic) =   -3.657461

   izeta = 2
                 rmatch =    4.608740
              splitnorm =    0.150000
                 energy =   -0.173757
                kinetic =    2.186690
    potential(screened) =   -2.360447
       potential(ionic) =   -4.464260

POLgen: Perturbative polarization orbital with L=  2

POLgen: Polarization orbital for state 2p

   izeta = 1
                     rc =    6.790259
                 energy =    0.684082
                kinetic =    1.471481
    potential(screened) =   -0.787399
       potential(ionic) =   -2.406985
atom: Total number of Sankey-type orbitals: 13

atm_pop: Valence configuration (for local Pseudopot. screening):
 2s( 2.00)                                                            
 2p( 1.00)                                                            
Vna: chval, zval:    3.00000   3.00000

Vna:  Cut-off radius for the neutral-atom potential:   6.790259
comcore: Pseudo-core radius Rcore=  2.122997

atom: _________________________________________________________________________

<basis_specs>
===============================================================================
C                    Z=   6    Mass=  12.010        Charge= 0.17977+309
Lmxo=1 Lmxkb= 3    BasisType=split      Semic=F
L=0  Nsemic=0  Cnfigmx=2
          n=1  nzeta=2  polorb=0
            splnorm:   0.15000    
               vcte:    0.0000    
               rinn:    0.0000    
                rcs:    0.0000      0.0000    
            lambdas:    1.0000      1.0000    
L=1  Nsemic=0  Cnfigmx=2
          n=1  nzeta=2  polorb=1
            splnorm:   0.15000    
               vcte:    0.0000    
               rinn:    0.0000    
                rcs:    0.0000      0.0000    
            lambdas:    1.0000      1.0000    
-------------------------------------------------------------------------------
L=0  Nkbl=1  erefs: 0.17977+309
L=1  Nkbl=1  erefs: 0.17977+309
L=2  Nkbl=1  erefs: 0.17977+309
L=3  Nkbl=1  erefs: 0.17977+309
===============================================================================
</basis_specs>

atom: Called for C                     (Z =   6)

read_vps: Pseudopotential generation method:
read_vps: ATM3      Troullier-Martins                       
Total valence charge:    4.00000

read_vps: Pseudopotential includes a core correction:
read_vps: Pseudo-core for xc-correction

xc_check: Exchange-correlation functional:
xc_check: GGA Perdew, Burke & Ernzerhof 1996
V l=0 = -2*Zval/r beyond r=  1.5227
V l=1 = -2*Zval/r beyond r=  1.5227
V l=2 = -2*Zval/r beyond r=  1.5227
V l=3 = -2*Zval/r beyond r=  1.5038
All V_l potentials equal beyond r=  1.5227
This should be close to max(r_c) in ps generation
All pots = -2*Zval/r beyond r=  1.5227

VLOCAL1: 99.0% of the norm of Vloc inside     18.722 Ry
VLOCAL1: 99.9% of the norm of Vloc inside     42.668 Ry
atom: Maximum radius for 4*pi*r*r*local-pseudopot. charge    1.83678
atom: Maximum radius for r*vlocal+2*Zval:    1.58088
GHOST: No ghost state for L =  0
GHOST: No ghost state for L =  1
GHOST: No ghost state for L =  2
GHOST: No ghost state for L =  3

KBgen: Kleinman-Bylander projectors: 
   l= 0   rc=  1.704034   el= -1.009801   Ekb=  5.335044   kbcos=  0.316824
   l= 1   rc=  1.704034   el= -0.388707   Ekb= -3.785862   kbcos= -0.366464
   l= 2   rc=  1.791422   el=  0.001971   Ekb= -0.970471   kbcos= -0.009212
   l= 3   rc=  1.859892   el=  0.003065   Ekb= -0.399525   kbcos= -0.001223

KBgen: Total number of  Kleinman-Bylander projectors:   16
atom: -------------------------------------------------------------------------

atom: SANKEY-TYPE ORBITALS:
atom: Selected multiple-zeta basis: split     

SPLIT: Orbitals with angular momentum L= 0

SPLIT: Basis orbitals for state 2s

SPLIT: PAO cut-off radius determined from an
SPLIT: energy shift=  0.007350 Ry

   izeta = 1
                 lambda =    1.000000
                     rc =    4.632753
                 energy =   -1.002270
                kinetic =    0.855760
    potential(screened) =   -1.858031
       potential(ionic) =   -5.417575

   izeta = 2
                 rmatch =    3.431921
              splitnorm =    0.150000
                 energy =   -0.867111
                kinetic =    1.300804
    potential(screened) =   -2.167915
       potential(ionic) =   -5.962684

SPLIT: Orbitals with angular momentum L= 1

SPLIT: Basis orbitals for state 2p

SPLIT: PAO cut-off radius determined from an
SPLIT: energy shift=  0.007350 Ry

   izeta = 1
                 lambda =    1.000000
                     rc =    5.658549
                 energy =   -0.381140
                kinetic =    2.399701
    potential(screened) =   -2.780841
       potential(ionic) =   -6.206085

   izeta = 2
                 rmatch =    3.653288
              splitnorm =    0.150000
                 energy =   -0.249149
                kinetic =    3.542762
    potential(screened) =   -3.791911
       potential(ionic) =   -7.581078

POLgen: Perturbative polarization orbital with L=  2

POLgen: Polarization orbital for state 2p

   izeta = 1
                     rc =    5.658549
                 energy =    1.109913
                kinetic =    2.304789
    potential(screened) =   -1.194876
       potential(ionic) =   -4.013592
atom: Total number of Sankey-type orbitals: 13

atm_pop: Valence configuration (for local Pseudopot. screening):
 2s( 2.00)                                                            
 2p( 2.00)                                                            
Vna: chval, zval:    4.00000   4.00000

Vna:  Cut-off radius for the neutral-atom potential:   5.658549
comcore: Pseudo-core radius Rcore=  1.791422

atom: _________________________________________________________________________

prinput: Basis input ----------------------------------------------------------

PAO.BasisType split     

%block ChemicalSpeciesLabel
    1    5 B                       # Species index, atomic number, species label
    2    6 C                       # Species index, atomic number, species label
%endblock ChemicalSpeciesLabel

%block PAO.Basis                 # Define Basis set
B                     2                    # Species label, number of l-shells
 n=2   0   2                         # n, l, Nzeta 
   5.422      4.223   
   1.000      1.000   
 n=2   1   2 P   1                   # n, l, Nzeta, Polarization, NzetaPol
   6.790      4.609   
   1.000      1.000   
C                     2                    # Species label, number of l-shells
 n=2   0   2                         # n, l, Nzeta 
   4.633      3.432   
   1.000      1.000   
 n=2   1   2 P   1                   # n, l, Nzeta, Polarization, NzetaPol
   5.659      3.653   
   1.000      1.000   
%endblock PAO.Basis

prinput: ----------------------------------------------------------------------

coor:   Atomic-coordinates input format  =     Fractional

siesta: Atomic coordinates (Bohr) and species
siesta:     -2.35420  38.89134   0.00000  1        1
siesta:      4.63094  34.85847   0.00000  1        2
siesta:     -4.68258  34.85847   0.00000  1        3
siesta:     -7.01096  14.69411   0.00000  1        4
siesta:     -4.68258  18.72698   0.00000  1        5
siesta:     -2.35420  22.75985   0.00000  1        6
siesta:    -11.66772  22.75985   0.00000  1        7
siesta:     -9.33934  26.79272   0.00000  1        8
siesta:     -0.02582  26.79272   0.00000  1        9
siesta:      2.30256  30.82560   0.00000  1       10
siesta:     -7.01096  30.82560   0.00000  1       11
siesta:     -0.02582  42.92421   0.00000  1       12
siesta:     -0.02582   2.59549   0.00000  2       13
siesta:     -0.02582   5.28395   0.00000  2       14
siesta:     -2.35420  41.57980   0.00000  2       15
siesta:      2.30256  38.89134   0.00000  2       16
siesta:      2.30256  41.57980   0.00000  2       17
siesta:      4.63094  37.54693   0.00000  2       18
siesta:      6.95932  30.82560   0.00000  2       19
siesta:      6.95932  33.51406   0.00000  2       20
siesta:      9.28770  26.79272   0.00000  2       21
siesta:      9.28770  29.48119   0.00000  2       22
siesta:     -4.68258  37.54693   0.00000  2       23
siesta:      2.30256   6.62836   0.00000  2       24
siesta:      2.30256   9.31683   0.00000  2       25
siesta:      4.63094  10.66124   0.00000  2       26
siesta:      4.63094  13.34970   0.00000  2       27
siesta:      6.95932  14.69411   0.00000  2       28
siesta:      6.95932  17.38257   0.00000  2       29
siesta:      9.28770  18.72698   0.00000  2       30
siesta:      9.28770  21.41544   0.00000  2       31
siesta:     11.61608  22.75985   0.00000  2       32
siesta:     11.61608  25.44831   0.00000  2       33
siesta:     -2.35420   6.62836   0.00000  2       34
siesta:     -2.35420   9.31683   0.00000  2       35
siesta:     -0.02582  10.66124   0.00000  2       36
siesta:     -0.02582  13.34970   0.00000  2       37
siesta:      2.30256  14.69411   0.00000  2       38
siesta:      2.30256  17.38257   0.00000  2       39
siesta:      4.63094  18.72698   0.00000  2       40
siesta:      4.63094  21.41544   0.00000  2       41
siesta:      6.95932  22.75985   0.00000  2       42
siesta:      6.95932  25.44831   0.00000  2       43
siesta:     -4.68258  10.66124   0.00000  2       44
siesta:     -4.68258  13.34970   0.00000  2       45
siesta:     -2.35420  14.69411   0.00000  2       46
siesta:     -2.35420  17.38257   0.00000  2       47
siesta:     -0.02582  18.72698   0.00000  2       48
siesta:     -0.02582  21.41544   0.00000  2       49
siesta:      2.30256  22.75985   0.00000  2       50
siesta:      2.30256  25.44831   0.00000  2       51
siesta:     -7.01096  17.38257   0.00000  2       52
siesta:     -4.68258  21.41544   0.00000  2       53
siesta:     -2.35420  25.44831   0.00000  2       54
siesta:     -9.33934  18.72698   0.00000  2       55
siesta:     -9.33934  21.41544   0.00000  2       56
siesta:     -7.01096  22.75985   0.00000  2       57
siesta:     -7.01096  25.44831   0.00000  2       58
siesta:    -11.66772  25.44831   0.00000  2       59
siesta:     -9.33934  29.48119   0.00000  2       60
siesta:      4.63094  26.79272   0.00000  2       61
siesta:      4.63094  29.48119   0.00000  2       62
siesta:     -0.02582  29.48119   0.00000  2       63
siesta:     -4.68258  26.79272   0.00000  2       64
siesta:     -4.68258  29.48119   0.00000  2       65
siesta:      2.30256  33.51406   0.00000  2       66
siesta:     -2.35420  30.82560   0.00000  2       67
siesta:     -2.35420  33.51406   0.00000  2       68
siesta:     -7.01096  33.51406   0.00000  2       69
siesta:     -0.02582  34.85847   0.00000  2       70
siesta:     -0.02582  37.54693   0.00000  2       71
siesta:     -0.02582  45.61267   0.00000  2       72

siesta: System type = slab      

initatomlists: Number of atoms, orbitals, and projectors:     72   936  1152

siesta: ******************** Simulation parameters ****************************
siesta:
siesta: The following are some of the parameters of the simulation.
siesta: A complete list of the parameters used, including default values,
siesta: can be found in file out.fdf
siesta:
redata: Non-Collinear-spin run           =     F
redata: SpinPolarized (Up/Down) run      =     F
redata: Number of spin components        =     1
redata: Long output                      =     F
redata: Number of Atomic Species         =        2
redata: Charge density info will appear in .RHO file
redata: Write Mulliken Pop.              =     NO
redata: Mesh Cutoff                      =   200.0000  Ry
redata: Net charge of the system         =     0.0000 |e|
redata: Max. number of SCF Iter          =      500
redata: SCF convergence failure will abort job
redata: Performing Pulay mixing using    =    10 iterations
redata: Mix DM in first SCF step ?       =     F
redata: Write Pulay info on disk?        =     F
redata: Discard 1st Pulay DM after  kick =     F
redata: New DM Mixing Weight             =     0.0500
redata: New DM Occupancy tolerance       = 0.000000000001
redata: No kicks to SCF
redata: DM Mixing Weight for Kicks       =     0.5000
redata: DM Tolerance for SCF             =     0.000100
redata: Require Energy convergence for SCF =     F
redata: DM Energy tolerance for SCF      =     0.000100 eV
redata: Require Harris convergence for SCF =     F
redata: DM Harris energy tolerance for SCF =     0.000100 eV
redata: Using Saved Data (generic)   =     F
redata: Use continuation files for DM    =     T
redata: Neglect nonoverlap interactions  =     F
redata: Method of Calculation            =     Diagonalization
redata: Divide and Conquer               =     T
redata: Electronic Temperature           =     0.0019  Ry
redata: Fix the spin of the system       =     F
redata: Dynamics option                  =     Verlet MD run
redata: Initial MD time step             =        1
redata:   Final MD time step             =        1
redata: Length of MD time step           =     1.0000  fs
redata: Initial Temperature of MD run    =     0.0000  K
redata: Perform a MD quench              =     F
redata: ***********************************************************************
Total number of electrons:   276.000000
Total ionic charge:   276.000000

* ProcessorY, Blocksize:    3  24

k-point displ. along   1 input, could be:     0.50    0.00
k-point displ. along   2 input, could be:     0.50    0.00
 Kpoints in:          231 . Kpoints trimmed:          231

siesta: k-grid: Number of k-points =   231
siesta: k-grid: Cutoff (effective) =     5.000 Ang
siesta: k-grid: Supercell and displacements
siesta: k-grid:   21   0   0      0.500
siesta: k-grid:    0  21   0      0.500
siesta: k-grid:    0   0   1      0.000
Naive supercell factors:     2    2    2

superc: Internal auxiliary supercell:     2 x     2 x     2  =       8
superc: Number of atoms, orbitals, and projectors:    576   7488   9216

* Maximum dynamic memory allocated =     4 MB

siesta:                 ==============================
                            Begin MD step =      1
                        ==============================

superc: Internal auxiliary supercell:     2 x     2 x     2  =       8
superc: Number of atoms, orbitals, and projectors:    576   7488   9216

outcell: Unit cell vectors (Ang):
       12.804619    7.392750    0.000000
        0.000000   14.785500    0.000000
        0.000000    0.000000   10.000000

outcell: Cell vector modules (Ang)   :   14.785500   14.785500   10.000000
outcell: Cell angles (23,13,12) (deg):     90.0000     90.0000     60.0000
outcell: Cell volume (Ang**3)        :   1893.2269
New_DM. Step:     1
Initializing Density Matrix...

InitMesh: MESH =   120 x   120 x    90 =     1296000
InitMesh: Mesh cutoff (required, used) =   200.000   223.865 Ry

* Maximum dynamic memory allocated =   155 MB

stepf: Fermi-Dirac step function

siesta: Program's energy decomposition (eV):
siesta: Ebs     =     -5735.169639
siesta: Eions   =     16866.330537
siesta: Ena     =      4453.124928
siesta: Ekin    =      5745.320513
siesta: Enl     =       740.055543
siesta: DEna    =        -0.000011
siesta: DUscf   =         0.000000
siesta: DUext   =         0.000000
siesta: Exc     =     -4188.001131
siesta: eta*DQ  =         0.000000
siesta: Emadel  =         0.000000
siesta: Emeta   =         0.000000
siesta: Emolmec =         0.000000
siesta: Ekinion =         0.000000
siesta: Eharris =     -9855.407107
siesta: Etot    =    -10115.830695
siesta: FreeEng =    -10115.830695

siesta: iscf   Eharris(eV)      E_KS(eV)   FreeEng(eV)   dDmax  Ef(eV)
siesta:    1    -9855.4071   -10115.8307   -10115.8307  7.6486 -7.9798
timer: Routine,Calls,Time,% = IterSCF        1    5419.958  99.77
elaps: Routine,Calls,Wall,% = IterSCF        1     472.409  99.77
siesta:    2   -13869.1525    -9188.5671    -9188.6169 15.1087 -3.3916
siesta:    3    -9856.2196    -9905.6246    -9905.6904  2.0329 -5.3474
siesta:    4    -9781.4261    -9838.5124    -9838.5363  1.4342 -5.2709
siesta:    5    -9734.8581    -9779.2418    -9779.2988  1.2944 -5.0942
siesta:    6    -9712.7889    -9748.2201    -9748.2708  0.7805 -4.9743
siesta:    7    -9709.8002    -9734.7899    -9734.8352  0.7166 -5.0655
siesta:    8    -9702.2062    -9719.7873    -9719.8332  0.5494 -4.8939
siesta:    9    -9701.9277    -9708.0446    -9708.0861  0.3908 -4.7772
siesta:   10    -9700.9920    -9702.1801    -9702.2308  0.3806 -4.7749
siesta:   11    -9699.5482    -9697.0659    -9697.1253  0.3973 -4.8267
siesta:   12    -9698.7562    -9689.7763    -9689.8108  0.3438 -4.7975
siesta:   13    -9698.2958    -9687.5626    -9687.6074  0.2187 -4.7723
siesta:   14    -9697.9585    -9690.0959    -9690.1295  0.1951 -4.8561
siesta:   15    -9697.8747    -9690.6543    -9690.7277  0.1337 -4.8717
siesta:   16    -9697.8740    -9693.6394    -9693.6869  0.0711 -4.9035
siesta:   17    -9697.7443    -9694.7261    -9694.7859  0.0660 -4.9024
siesta:   18    -9697.6793    -9695.7458    -9695.7997  0.0485 -4.9042
siesta:   19    -9697.6580    -9696.9043    -9696.9609  0.0342 -4.9059
siesta:   20    -9697.6508    -9697.7643    -9697.8188  0.0304 -4.9080
siesta:   21    -9697.6441    -9698.2463    -9698.3034  0.0309 -4.9048
siesta:   22    -9697.6408    -9698.2294    -9698.2884  0.0215 -4.9016
siesta:   23    -9697.6362    -9698.1360    -9698.1947  0.0140 -4.8971
siesta:   24    -9697.6371    -9698.1152    -9698.1771  0.0124 -4.8953
siesta:   25    -9697.6365    -9698.1756    -9698.2358  0.0111 -4.8946
siesta:   26    -9697.6352    -9698.0028    -9698.0631  0.0045 -4.8938
siesta:   27    -9697.6355    -9697.9113    -9697.9722  0.0036 -4.8935
siesta:   28    -9697.6357    -9697.8335    -9697.8941  0.0021 -4.8936
siesta:   29    -9697.6355    -9697.7963    -9697.8565  0.0012 -4.8936
siesta:   30    -9697.6355    -9697.7598    -9697.8203  0.0009 -4.8934
siesta:   31    -9697.6354    -9697.7038    -9697.7642  0.0004 -4.8931
siesta:   32    -9697.6355    -9697.6874    -9697.7479  0.0004 -4.8932
siesta:   33    -9697.6354    -9697.6705    -9697.7309  0.0004 -4.8934
siesta:   34    -9697.6355    -9697.6579    -9697.7184  0.0003 -4.8935
siesta:   35    -9697.6355    -9697.6478    -9697.7083  0.0001 -4.8935
siesta:   36    -9697.6355    -9697.6464    -9697.7069  0.0001 -4.8936
siesta:   37    -9697.6355    -9697.6427    -9697.7031  0.0001 -4.8936

siesta: E_KS(eV) =            -9697.6408

siesta: E_KS - E_eggbox =     -9697.6408

siesta: Atomic forces (eV/Ang):
----------------------------------------
   Tot   -0.177579   -0.209959    0.000000
----------------------------------------
   Max  571.368786
   Res  161.108764    sqrt( Sum f_i^2 / 3N )
----------------------------------------
   Max  571.368786    constrained

Stress-tensor-Voigt (kbar):     -752.35    -2858.19       -0.45       -2.05        0.00        0.00
(Free)E + p*V (eV/cell)    -8275.3998
Target enthalpy (eV/cell)    -9697.7012

siesta: Stress tensor (static) (eV/Ang**3):
        -0.469574   -0.001281    0.000000
        -0.001281   -1.783920    0.000000
         0.000000    0.000000   -0.000279

siesta: Pressure (static):       1203.66072425  kBar

siesta: Stress tensor (total) (eV/Ang**3):
        -0.469574   -0.001281    0.000000
        -0.001281   -1.783920    0.000000
         0.000000    0.000000   -0.000279

siesta: Pressure (total):       1203.66072425  kBar

siesta: Temp_ion =       0.000 K

* Maximum dynamic memory allocated =   168 MB
Computing bands...

siesta: Program's energy decomposition (eV):
siesta: Ebs     =     -4364.697047
siesta: Eions   =     16866.330537
siesta: Ena     =      4453.124928
siesta: Ekin    =      8707.592552
siesta: Enl     =      -917.435797
siesta: DEna    =      -820.356875
siesta: DUscf   =       111.189536
siesta: DUext   =         0.000000
siesta: Exc     =     -4365.424596
siesta: eta*DQ  =         0.000000
siesta: Emadel  =         0.000000
siesta: Emeta   =         0.000000
siesta: Emolmec =         0.000000
siesta: Ekinion =         0.000000
siesta: Eharris =     -9697.635471
siesta: Etot    =     -9697.640789
siesta: FreeEng =     -9697.701246

siesta: Final energy (eV):
siesta:  Band Struct. =   -4364.697047
siesta:       Kinetic =    8707.592552
siesta:       Hartree =   28282.087255
siesta:    Ext. field =       0.000000
siesta:   Exch.-corr. =   -4365.424596
siesta:  Ion-electron =  -64989.033796
siesta:       Ion-ion =   22667.137796
siesta:       Ekinion =       0.000000
siesta:         Total =   -9697.640789

siesta: Atomic forces (eV/Ang):
siesta:      1    0.474990  110.836595    0.000000
siesta:      2   21.404347    0.922013    0.000000
siesta:      3  -22.345631    2.718940    0.000000
siesta:      4    0.368843   -1.528408    0.000000
siesta:      5    0.447452    0.708978    0.000000
siesta:      6   -0.175299   -0.351710    0.000000
siesta:      7   -2.981008    1.797073    0.000000
siesta:      8   -4.785200    1.163646    0.000000
siesta:      9   -0.822988   -1.515036    0.000000
siesta:     10   18.754554    2.849481    0.000000
siesta:     11   -3.504686    1.812189    0.000000
siesta:     12    1.227468  113.676856    0.000000
siesta:     13   -3.243529  549.078964    0.000000
siesta:     14    2.101294 -132.457888    0.000000
siesta:     15  -10.431249 -543.086740    0.000000
siesta:     16   -0.616257  126.914788    0.000000
siesta:     17    9.707895 -542.206605    0.000000
siesta:     18   29.106809 -546.662039    0.000000
siesta:     19    3.394105    0.130361    0.000000
siesta:     20   -0.074425    0.828584    0.000000
siesta:     21    2.033704    1.314917    0.000000
siesta:     22   -1.204308    0.497056    0.000000
siesta:     23  -24.319062 -540.035230    0.000000
siesta:     24   11.156533  548.243150    0.000000
siesta:     25    0.819620 -129.935874    0.000000
siesta:     26   35.153789  553.158389    0.000000
siesta:     27   26.540781   -3.571010    0.000000
siesta:     28   -2.332117   -2.084667    0.000000
siesta:     29    1.525234    0.091790    0.000000
siesta:     30   -0.319334   -0.709270    0.000000
siesta:     31    1.988627   -1.857250    0.000000
siesta:     32   -0.098335    5.933867    0.000000
siesta:     33    0.568770   -5.517316    0.000000
siesta:     34  -12.561227  546.334167    0.000000
siesta:     35   -8.589928 -133.968438    0.000000
siesta:     36   11.149537  553.479141    0.000000
siesta:     37   -8.127747 -133.843008    0.000000
siesta:     38   34.971121  557.575551    0.000000
siesta:     39   18.225218   -7.834344    0.000000
siesta:     40   -0.256212    2.348571    0.000000
siesta:     41    0.494880   -0.964785    0.000000
siesta:     42   -0.151598    0.755418    0.000000
siesta:     43   -0.177535   -0.717842    0.000000
siesta:     44  -36.933462  550.444478    0.000000
siesta:     45  -20.937184   -7.923304    0.000000
siesta:     46  -29.682380  562.166328    0.000000
siesta:     47  -16.235909   -8.124009    0.000000
siesta:     48   -0.292511  571.368786    0.000000
siesta:     49    3.509938   -0.722809    0.000000
siesta:     50   -1.000718   -0.877865    0.000000
siesta:     51    2.474420   -0.902747    0.000000
siesta:     52   -7.469211   -0.471706    0.000000
siesta:     53   -3.252820    1.827097    0.000000
siesta:     54   -1.758521    2.864809    0.000000
siesta:     55    1.894183    0.747420    0.000000
siesta:     56   -0.458294   -3.437626    0.000000
siesta:     57    1.546365    0.185090    0.000000
siesta:     58    3.522367   -1.577412    0.000000
siesta:     59   -2.502238   -1.986643    0.000000
siesta:     60   -0.188558    1.227617    0.000000
siesta:     61    0.114542   -0.714063    0.000000
siesta:     62    0.509150   -1.908747    0.000000
siesta:     63    2.358054 -556.393154    0.000000
siesta:     64    0.231079   -1.115567    0.000000
siesta:     65    3.333026   -2.983972    0.000000
siesta:     66   30.466103 -550.044415    0.000000
siesta:     67  -21.639528    5.064398    0.000000
siesta:     68  -30.557540 -551.639842    0.000000
siesta:     69    0.624022    3.604826    0.000000
siesta:     70    1.893250  131.758687    0.000000
siesta:     71   -5.572788 -542.305778    0.000000
siesta:     72    1.329688 -552.662864    0.000000
siesta: ----------------------------------------
siesta:    Tot   -0.177579   -0.209959    0.000000

siesta: Stress tensor (static) (eV/Ang**3):
siesta:    -0.469574   -0.001281    0.000000
siesta:    -0.001281   -1.783920    0.000000
siesta:     0.000000    0.000000   -0.000279

siesta: Cell volume =       1893.226884 Ang**3

siesta: Pressure (static):
siesta:                Solid            Molecule  Units
siesta:           0.00818216          0.12576427  Ry/Bohr**3
siesta:           0.75125781         11.54724762  eV/Ang**3
siesta:        1203.66072425      18500.93030286  kBar
(Free)E+ p_basis*V_orbitals  =       -9663.172187
(Free)Eharris+ p_basis*V_orbitals  =       -9663.164984

siesta: Electric dipole (a.u.)  =    0.000000    0.000000    0.000000
siesta: Electric dipole (Debye) =    0.000000    0.000000    0.000000

* Maximum dynamic memory allocated : Node    0 =   168 MB
* Maximum dynamic memory allocated : Node    1 =    67 MB
* Maximum dynamic memory allocated : Node    2 =    69 MB
* Maximum dynamic memory allocated : Node    3 =   153 MB
* Maximum dynamic memory allocated : Node    4 =   161 MB
* Maximum dynamic memory allocated : Node    5 =    59 MB
* Maximum dynamic memory allocated : Node    6 =    62 MB
* Maximum dynamic memory allocated : Node    7 =   152 MB
* Maximum dynamic memory allocated : Node    8 =   147 MB
* Maximum dynamic memory allocated : Node    9 =    59 MB
* Maximum dynamic memory allocated : Node   10 =    60 MB
* Maximum dynamic memory allocated : Node   11 =   140 MB

* Maximum memory occured during matrixMtoO                    

timer: CPU execution times:
timer:  Routine       Calls   Time/call    Tot.time        %
timer:  siesta            1  198313.878  198313.878   100.00
timer:  Setup             1       3.244       3.244     0.00
timer:  bands             3     418.648    1255.943     0.63
timer:  writewave         1       0.021       0.021     0.00
timer:  KSV_init          1       0.005       0.005     0.00
timer:  IterMD            1  197047.964  197047.964    99.36
timer:  hsparse           1       0.280       0.280     0.00
timer:  overlap           1       6.741       6.741     0.00
timer:  IterSCF          37    5320.894  196873.077    99.27
timer:  kinefsm           2       3.438       6.875     0.00
timer:  nlefsm            2      20.111      40.223     0.02
timer:  DHSCF            38      82.719    3143.317     1.59
timer:  DHSCF1            1       1.191       1.191     0.00
timer:  DHSCF2            1      33.933      33.933     0.02
timer:  REORD           306       0.002       0.652     0.00
timer:  POISON           39       0.613      23.899     0.01
timer:  DHSCF3           38      81.071    3080.709     1.55
timer:  rhoofd           38      16.449     625.066     0.32
timer:  cellXC           38       2.891     109.857     0.06
timer:  vmat             38      38.590    1466.423     0.74
timer:  MolMec            2       0.000       0.000     0.00
timer:  diagon           37    5236.555  193752.525    97.70
timer:  c-eigval       8668      10.395   90105.095    45.44
timer:  c-buildHS      8668       0.034     292.496     0.15
timer:  cdiag         17215      10.668  183650.115    92.61
timer:  cdiag1        17215       0.478    8231.712     4.15
timer:  cdiag2        17215       3.392   58401.190    29.45
timer:  cdiag3        17215       6.330  108978.790    54.95
timer:  cdiag4        17215       0.167    2871.225     1.45
timer:  c-eigvec       8547      11.009   94094.439    47.45
timer:  c-buildD       8547       1.259   10761.366     5.43
timer:  DHSCF4            1      27.213      27.213     0.01
timer:  dfscf             1      25.136      25.136     0.01
timer:  overfsm           1       0.320       0.320     0.00
timer:  optical           1       6.059       6.059     0.00
  

elaps: ELAPSED times:
elaps:  Routine       Calls   Time/call    Tot.time        %
elaps:  siesta            1   17284.888   17284.888   100.00
elaps:  Setup             1       0.284       0.284     0.00
elaps:  bands             3      36.505     109.515     0.63
elaps:  writewave         1       0.002       0.002     0.00
elaps:  KSV_init          1       0.000       0.000     0.00
elaps:  IterMD            1   17174.548   17174.548    99.36
elaps:  hsparse           1       0.029       0.029     0.00
elaps:  overlap           1       0.717       0.717     0.00
elaps:  IterSCF          37     463.765   17159.309    99.27
elaps:  kinefsm           2       0.385       0.769     0.00
elaps:  nlefsm            2       1.916       3.832     0.02
elaps:  DHSCF            38       7.265     276.080     1.60
elaps:  DHSCF1            1       0.101       0.101     0.00
elaps:  DHSCF2            1       2.959       2.959     0.02
elaps:  REORD           306       0.000       0.083     0.00
elaps:  POISON           39       0.055       2.150     0.01
elaps:  DHSCF3           38       7.066     268.499     1.55
elaps:  rhoofd           38       3.246     123.337     0.71
elaps:  cellXC           38       0.252       9.558     0.06
elaps:  vmat             38       3.364     127.843     0.74
elaps:  MolMec            2       0.000       0.000     0.00
elaps:  diagon           37     456.421   16887.592    97.70
elaps:  c-eigval       8668       0.906    7853.537    45.44
elaps:  c-buildHS      8668       0.004      32.426     0.19
elaps:  cdiag         17215       0.924   15905.003    92.02
elaps:  cdiag1        17215       0.041     708.265     4.10
elaps:  cdiag2        17215       0.296    5097.925    29.49
elaps:  cdiag3        17215       0.553    9518.179    55.07
elaps:  cdiag4        17215       0.014     236.483     1.37
elaps:  c-eigvec       8547       0.950    8115.460    46.95
elaps:  c-buildD       8547       0.120    1022.089     5.91
elaps:  DHSCF4            1       4.468       4.468     0.03
elaps:  dfscf             1       4.160       4.160     0.02
elaps:  overfsm           1       0.047       0.047     0.00
elaps:  optical           1       0.000       0.000     0.00
  
>> End of run:   5-MAY-2016  15:37:29
