Siesta Version:                                        siesta-3.2-pl-3
Architecture  : x86_64-unknown-linux-gnu--unknown
Compiler flags: mpiifort -g -O2 -fPIC -xSSE4.1 -fp-model source -shared-intel 
PARALLEL version

* Running on   12 nodes in parallel
>> Start of run:   7-MAY-2016  23:27:01

                           ***********************       
                           *  WELCOME TO SIESTA  *       
                           ***********************       

reinit: Reading from standard input
************************** Dump of input data file ****************************
#(1) General system descriptors
SystemName            GRP_doping    # Descriptive name of the system
SystemLabel           GRP_doping    # Short name for naming files
%include STRUCT.fdf
%include KPT.fdf
%include BASIS.fdf
#%include TS.fdf # for transiesta calculation
#(4) DFT, Grid, SCF
XC.functional         GGA           # LDA or GGA (default = LDA)
XC.authors            PBE           # CA (Ceperley-Aldr) = PZ
                                    #    (Perdew-Zunger) - LDA - Default
                                    # PW92 (Perdew-Wang-92) - LDA
                                    # PBE (Perdew-Burke-Ernzerhof) - GGA
MeshCutoff            200.000000    Ry      # Default: 50.0 Ry ~ 0.444 Bohr
                                    #         100.0 Ry ~ 0.314 Bohr
MaxSCFIterations      500           # Default: 50
DM.MixingWeight       0.05          # Default: 0.25
DM.NumberPulay        10            # Default: 0
DM.PulayOnFile        F             # SystemLabel.P1, SystemLabel.P2
DM.Tolerance          1.d-4         # Default: 1.d-4
DM.UseSaveDM          .true.        # because of the bug
SCFMustConverge       .true.
NeglNonOverlapInt     F             # Default: F
#(5) Eigenvalue problem: order-N or diagonalization
SolutionMethod        Diagon        # or Transiesta
ElectronicTemperature 300.0 K       # Default: 300.0 K
#(6) Molecular dynamics and relaxations
#MD.TypeOfRun          CG            # Type of dynamics:
#MD.VariableCell       F
#MD.NumCGsteps         0           # 0 for single-point / 100 for gopt
#MD.MaxCGDispl         0.2 Bohr      # Default: 0.2 Bohr
#MD.MaxForceTol        0.02 eV/Ang   # Default: 0.04 eV/Ang
#MD.MaxStressTol       1.0 GPa       # Default: 1.0 GPa
# Geometry Constraints
#%block GeometryConstraints
#	position from 1 to 44
#%endblock GeometryConstraints
BandLinesScale   pi/a
%block BandLines
 1   0.00000000  0.00000000  0.00000000
50   0.00000000  0.07809418  0.00000000
50   0.04509075  0.07809242  0.00000000
20   0.00000000  0.00000000  0.00000000
%endblock BandLines
************************** End of input data file *****************************

reinit: -----------------------------------------------------------------------
reinit: System Name: GRP_doping
reinit: -----------------------------------------------------------------------
reinit: System Label: GRP_doping                                                  
reinit: -----------------------------------------------------------------------

initatom: Reading input for the pseudopotentials and atomic orbitals ----------
 Species number:            1  Label: N Atomic number:           7
 Species number:            2  Label: C Atomic number:           6
Ground state valence configuration:   2s02  2p03
Reading pseudopotential information in formatted form from N.psf

Valence configuration for pseudopotential generation:
2s( 2.00) rc: 1.48
2p( 3.00) rc: 1.48
3d( 0.00) rc: 1.48
4f( 0.00) rc: 1.48
Ground state valence configuration:   2s02  2p02
Reading pseudopotential information in formatted form from C.psf

Valence configuration for pseudopotential generation:
2s( 2.00) rc: 1.54
2p( 2.00) rc: 1.54
3d( 0.00) rc: 1.54
4f( 0.00) rc: 1.54
For N, standard SIESTA heuristics set lmxkb to 3
 (one more than the basis l, including polarization orbitals).
Use PS.lmax or PS.KBprojectors blocks to override.
For C, standard SIESTA heuristics set lmxkb to 3
 (one more than the basis l, including polarization orbitals).
Use PS.lmax or PS.KBprojectors blocks to override.

<basis_specs>
===============================================================================
N                    Z=   7    Mass=  14.010        Charge= 0.17977+309
Lmxo=1 Lmxkb= 3    BasisType=split      Semic=F
L=0  Nsemic=0  Cnfigmx=2
          n=1  nzeta=2  polorb=0
            splnorm:   0.15000    
               vcte:    0.0000    
               rinn:    0.0000    
                rcs:    0.0000      0.0000    
            lambdas:    1.0000      1.0000    
L=1  Nsemic=0  Cnfigmx=2
          n=1  nzeta=2  polorb=1
            splnorm:   0.15000    
               vcte:    0.0000    
               rinn:    0.0000    
                rcs:    0.0000      0.0000    
            lambdas:    1.0000      1.0000    
-------------------------------------------------------------------------------
L=0  Nkbl=1  erefs: 0.17977+309
L=1  Nkbl=1  erefs: 0.17977+309
L=2  Nkbl=1  erefs: 0.17977+309
L=3  Nkbl=1  erefs: 0.17977+309
===============================================================================
</basis_specs>

atom: Called for N                     (Z =   7)

read_vps: Pseudopotential generation method:
read_vps: ATM3      Troullier-Martins                       
Total valence charge:    5.00000

read_vps: Pseudopotential includes a core correction:
read_vps: Pseudo-core for xc-correction

xc_check: Exchange-correlation functional:
xc_check: GGA Perdew, Burke & Ernzerhof 1996
V l=0 = -2*Zval/r beyond r=  1.4606
V l=1 = -2*Zval/r beyond r=  1.4606
V l=2 = -2*Zval/r beyond r=  1.4606
V l=3 = -2*Zval/r beyond r=  1.4606
All V_l potentials equal beyond r=  1.4606
This should be close to max(r_c) in ps generation
All pots = -2*Zval/r beyond r=  1.4606

VLOCAL1: 99.0% of the norm of Vloc inside     20.347 Ry
VLOCAL1: 99.9% of the norm of Vloc inside     46.372 Ry
atom: Maximum radius for 4*pi*r*r*local-pseudopot. charge    1.76189
atom: Maximum radius for r*vlocal+2*Zval:    1.53550
GHOST: No ghost state for L =  0
GHOST: No ghost state for L =  1
GHOST: No ghost state for L =  2
GHOST: No ghost state for L =  3

KBgen: Kleinman-Bylander projectors: 
   l= 0   rc=  1.634559   el= -1.363963   Ekb=  5.296955   kbcos=  0.335621
   l= 1   rc=  1.614250   el= -0.521451   Ekb= -5.259161   kbcos= -0.433408
   l= 2   rc=  1.718383   el=  0.001991   Ekb= -1.271464   kbcos= -0.007566
   l= 3   rc=  1.761893   el=  0.003093   Ekb= -0.494769   kbcos= -0.001015

KBgen: Total number of  Kleinman-Bylander projectors:   16
atom: -------------------------------------------------------------------------

atom: SANKEY-TYPE ORBITALS:
atom: Selected multiple-zeta basis: split     

SPLIT: Orbitals with angular momentum L= 0

SPLIT: Basis orbitals for state 2s

SPLIT: PAO cut-off radius determined from an
SPLIT: energy shift=  0.007350 Ry

   izeta = 1
                 lambda =    1.000000
                     rc =    4.071465
                 energy =   -1.356470
                kinetic =    1.176977
    potential(screened) =   -2.533447
       potential(ionic) =   -8.057990

   izeta = 2
                 rmatch =    2.905100
              splitnorm =    0.150000
                 energy =   -1.158343
                kinetic =    1.813009
    potential(screened) =   -2.971352
       potential(ionic) =   -8.901931

SPLIT: Orbitals with angular momentum L= 1

SPLIT: Basis orbitals for state 2p

SPLIT: PAO cut-off radius determined from an
SPLIT: energy shift=  0.007350 Ry

   izeta = 1
                 lambda =    1.000000
                     rc =    4.972977
                 energy =   -0.513884
                kinetic =    3.441732
    potential(screened) =   -3.955616
       potential(ionic) =   -9.287901

   izeta = 2
                 rmatch =    3.054066
              splitnorm =    0.150000
                 energy =   -0.318226
                kinetic =    5.125348
    potential(screened) =   -5.443573
       potential(ionic) =  -11.380999

POLgen: Perturbative polarization orbital with L=  2

POLgen: Polarization orbital for state 2p

   izeta = 1
                     rc =    4.972977
                 energy =    1.607437
                kinetic =    3.268125
    potential(screened) =   -1.660688
       potential(ionic) =   -5.973652
atom: Total number of Sankey-type orbitals: 13

atm_pop: Valence configuration (for local Pseudopot. screening):
 2s( 2.00)                                                            
 2p( 3.00)                                                            
Vna: chval, zval:    5.00000   5.00000

Vna:  Cut-off radius for the neutral-atom potential:   4.972977
comcore: Pseudo-core radius Rcore=  1.554824

atom: _________________________________________________________________________

<basis_specs>
===============================================================================
C                    Z=   6    Mass=  12.010        Charge= 0.17977+309
Lmxo=1 Lmxkb= 3    BasisType=split      Semic=F
L=0  Nsemic=0  Cnfigmx=2
          n=1  nzeta=2  polorb=0
            splnorm:   0.15000    
               vcte:    0.0000    
               rinn:    0.0000    
                rcs:    0.0000      0.0000    
            lambdas:    1.0000      1.0000    
L=1  Nsemic=0  Cnfigmx=2
          n=1  nzeta=2  polorb=1
            splnorm:   0.15000    
               vcte:    0.0000    
               rinn:    0.0000    
                rcs:    0.0000      0.0000    
            lambdas:    1.0000      1.0000    
-------------------------------------------------------------------------------
L=0  Nkbl=1  erefs: 0.17977+309
L=1  Nkbl=1  erefs: 0.17977+309
L=2  Nkbl=1  erefs: 0.17977+309
L=3  Nkbl=1  erefs: 0.17977+309
===============================================================================
</basis_specs>

atom: Called for C                     (Z =   6)

read_vps: Pseudopotential generation method:
read_vps: ATM3      Troullier-Martins                       
Total valence charge:    4.00000

read_vps: Pseudopotential includes a core correction:
read_vps: Pseudo-core for xc-correction

xc_check: Exchange-correlation functional:
xc_check: GGA Perdew, Burke & Ernzerhof 1996
V l=0 = -2*Zval/r beyond r=  1.5227
V l=1 = -2*Zval/r beyond r=  1.5227
V l=2 = -2*Zval/r beyond r=  1.5227
V l=3 = -2*Zval/r beyond r=  1.5038
All V_l potentials equal beyond r=  1.5227
This should be close to max(r_c) in ps generation
All pots = -2*Zval/r beyond r=  1.5227

VLOCAL1: 99.0% of the norm of Vloc inside     18.722 Ry
VLOCAL1: 99.9% of the norm of Vloc inside     42.668 Ry
atom: Maximum radius for 4*pi*r*r*local-pseudopot. charge    1.83678
atom: Maximum radius for r*vlocal+2*Zval:    1.58088
GHOST: No ghost state for L =  0
GHOST: No ghost state for L =  1
GHOST: No ghost state for L =  2
GHOST: No ghost state for L =  3

KBgen: Kleinman-Bylander projectors: 
   l= 0   rc=  1.704034   el= -1.009801   Ekb=  5.335044   kbcos=  0.316824
   l= 1   rc=  1.704034   el= -0.388707   Ekb= -3.785862   kbcos= -0.366464
   l= 2   rc=  1.791422   el=  0.001971   Ekb= -0.970471   kbcos= -0.009212
   l= 3   rc=  1.859892   el=  0.003065   Ekb= -0.399525   kbcos= -0.001223

KBgen: Total number of  Kleinman-Bylander projectors:   16
atom: -------------------------------------------------------------------------

atom: SANKEY-TYPE ORBITALS:
atom: Selected multiple-zeta basis: split     

SPLIT: Orbitals with angular momentum L= 0

SPLIT: Basis orbitals for state 2s

SPLIT: PAO cut-off radius determined from an
SPLIT: energy shift=  0.007350 Ry

   izeta = 1
                 lambda =    1.000000
                     rc =    4.632753
                 energy =   -1.002270
                kinetic =    0.855760
    potential(screened) =   -1.858031
       potential(ionic) =   -5.417575

   izeta = 2
                 rmatch =    3.431921
              splitnorm =    0.150000
                 energy =   -0.867111
                kinetic =    1.300804
    potential(screened) =   -2.167915
       potential(ionic) =   -5.962684

SPLIT: Orbitals with angular momentum L= 1

SPLIT: Basis orbitals for state 2p

SPLIT: PAO cut-off radius determined from an
SPLIT: energy shift=  0.007350 Ry

   izeta = 1
                 lambda =    1.000000
                     rc =    5.658549
                 energy =   -0.381140
                kinetic =    2.399701
    potential(screened) =   -2.780841
       potential(ionic) =   -6.206085

   izeta = 2
                 rmatch =    3.653288
              splitnorm =    0.150000
                 energy =   -0.249149
                kinetic =    3.542762
    potential(screened) =   -3.791911
       potential(ionic) =   -7.581078

POLgen: Perturbative polarization orbital with L=  2

POLgen: Polarization orbital for state 2p

   izeta = 1
                     rc =    5.658549
                 energy =    1.109913
                kinetic =    2.304789
    potential(screened) =   -1.194876
       potential(ionic) =   -4.013592
atom: Total number of Sankey-type orbitals: 13

atm_pop: Valence configuration (for local Pseudopot. screening):
 2s( 2.00)                                                            
 2p( 2.00)                                                            
Vna: chval, zval:    4.00000   4.00000

Vna:  Cut-off radius for the neutral-atom potential:   5.658549
comcore: Pseudo-core radius Rcore=  1.791422

atom: _________________________________________________________________________

prinput: Basis input ----------------------------------------------------------

PAO.BasisType split     

%block ChemicalSpeciesLabel
    1    7 N                       # Species index, atomic number, species label
    2    6 C                       # Species index, atomic number, species label
%endblock ChemicalSpeciesLabel

%block PAO.Basis                 # Define Basis set
N                     2                    # Species label, number of l-shells
 n=2   0   2                         # n, l, Nzeta 
   4.071      2.905   
   1.000      1.000   
 n=2   1   2 P   1                   # n, l, Nzeta, Polarization, NzetaPol
   4.973      3.054   
   1.000      1.000   
C                     2                    # Species label, number of l-shells
 n=2   0   2                         # n, l, Nzeta 
   4.633      3.432   
   1.000      1.000   
 n=2   1   2 P   1                   # n, l, Nzeta, Polarization, NzetaPol
   5.659      3.653   
   1.000      1.000   
%endblock PAO.Basis

prinput: ----------------------------------------------------------------------

coor:   Atomic-coordinates input format  =     Fractional

siesta: Atomic coordinates (Bohr) and species
siesta:      2.30256  17.38257   0.00000  1        1
siesta:      4.63094  18.72698   0.00000  1        2
siesta:      6.95932  25.44831   0.00000  1        3
siesta:     -0.02582  18.72698   0.00000  1        4
siesta:      2.30256  25.44831   0.00000  1        5
siesta:     -2.35420  25.44831   0.00000  1        6
siesta:     -7.01096  25.44831   0.00000  1        7
siesta:     -0.02582  26.79272   0.00000  1        8
siesta:     -4.68258  26.79272   0.00000  1        9
siesta:      2.30256  30.82560   0.00000  1       10
siesta:      2.30256  33.51406   0.00000  1       11
siesta:     -0.02582   2.59549   0.00000  2       12
siesta:     -0.02582   5.28395   0.00000  2       13
siesta:     -2.35420  38.89134   0.00000  2       14
siesta:     -2.35420  41.57980   0.00000  2       15
siesta:      2.30256  38.89134   0.00000  2       16
siesta:      2.30256  41.57980   0.00000  2       17
siesta:      4.63094  34.85847   0.00000  2       18
siesta:      4.63094  37.54693   0.00000  2       19
siesta:      6.95932  30.82560   0.00000  2       20
siesta:      6.95932  33.51406   0.00000  2       21
siesta:      9.28770  26.79272   0.00000  2       22
siesta:      9.28770  29.48119   0.00000  2       23
siesta:     -4.68258  34.85847   0.00000  2       24
siesta:     -4.68258  37.54693   0.00000  2       25
siesta:      2.30256   6.62836   0.00000  2       26
siesta:      2.30256   9.31683   0.00000  2       27
siesta:      4.63094  10.66124   0.00000  2       28
siesta:      4.63094  13.34970   0.00000  2       29
siesta:      6.95932  14.69411   0.00000  2       30
siesta:      6.95932  17.38257   0.00000  2       31
siesta:      9.28770  18.72698   0.00000  2       32
siesta:      9.28770  21.41544   0.00000  2       33
siesta:     11.61608  22.75985   0.00000  2       34
siesta:     11.61608  25.44831   0.00000  2       35
siesta:     -2.35420   6.62836   0.00000  2       36
siesta:     -2.35420   9.31683   0.00000  2       37
siesta:     -0.02582  10.66124   0.00000  2       38
siesta:     -0.02582  13.34970   0.00000  2       39
siesta:      2.30256  14.69411   0.00000  2       40
siesta:      4.63094  21.41544   0.00000  2       41
siesta:      6.95932  22.75985   0.00000  2       42
siesta:     -4.68258  10.66124   0.00000  2       43
siesta:     -4.68258  13.34970   0.00000  2       44
siesta:     -2.35420  14.69411   0.00000  2       45
siesta:     -2.35420  17.38257   0.00000  2       46
siesta:     -0.02582  21.41544   0.00000  2       47
siesta:      2.30256  22.75985   0.00000  2       48
siesta:     -7.01096  14.69411   0.00000  2       49
siesta:     -7.01096  17.38257   0.00000  2       50
siesta:     -4.68258  18.72698   0.00000  2       51
siesta:     -4.68258  21.41544   0.00000  2       52
siesta:     -2.35420  22.75985   0.00000  2       53
siesta:     -9.33934  18.72698   0.00000  2       54
siesta:     -9.33934  21.41544   0.00000  2       55
siesta:     -7.01096  22.75985   0.00000  2       56
siesta:    -11.66772  22.75985   0.00000  2       57
siesta:    -11.66772  25.44831   0.00000  2       58
siesta:     -9.33934  26.79272   0.00000  2       59
siesta:     -9.33934  29.48119   0.00000  2       60
siesta:      4.63094  26.79272   0.00000  2       61
siesta:      4.63094  29.48119   0.00000  2       62
siesta:     -0.02582  29.48119   0.00000  2       63
siesta:     -4.68258  29.48119   0.00000  2       64
siesta:     -2.35420  30.82560   0.00000  2       65
siesta:     -2.35420  33.51406   0.00000  2       66
siesta:     -7.01096  30.82560   0.00000  2       67
siesta:     -7.01096  33.51406   0.00000  2       68
siesta:     -0.02582  34.85847   0.00000  2       69
siesta:     -0.02582  37.54693   0.00000  2       70
siesta:     -0.02582  42.92421   0.00000  2       71
siesta:     -0.02582  45.61267   0.00000  2       72

siesta: System type = slab      

initatomlists: Number of atoms, orbitals, and projectors:     72   936  1152

siesta: ******************** Simulation parameters ****************************
siesta:
siesta: The following are some of the parameters of the simulation.
siesta: A complete list of the parameters used, including default values,
siesta: can be found in file out.fdf
siesta:
redata: Non-Collinear-spin run           =     F
redata: SpinPolarized (Up/Down) run      =     F
redata: Number of spin components        =     1
redata: Long output                      =     F
redata: Number of Atomic Species         =        2
redata: Charge density info will appear in .RHO file
redata: Write Mulliken Pop.              =     NO
redata: Mesh Cutoff                      =   200.0000  Ry
redata: Net charge of the system         =     0.0000 |e|
redata: Max. number of SCF Iter          =      500
redata: SCF convergence failure will abort job
redata: Performing Pulay mixing using    =    10 iterations
redata: Mix DM in first SCF step ?       =     F
redata: Write Pulay info on disk?        =     F
redata: Discard 1st Pulay DM after  kick =     F
redata: New DM Mixing Weight             =     0.0500
redata: New DM Occupancy tolerance       = 0.000000000001
redata: No kicks to SCF
redata: DM Mixing Weight for Kicks       =     0.5000
redata: DM Tolerance for SCF             =     0.000100
redata: Require Energy convergence for SCF =     F
redata: DM Energy tolerance for SCF      =     0.000100 eV
redata: Require Harris convergence for SCF =     F
redata: DM Harris energy tolerance for SCF =     0.000100 eV
redata: Using Saved Data (generic)   =     F
redata: Use continuation files for DM    =     T
redata: Neglect nonoverlap interactions  =     F
redata: Method of Calculation            =     Diagonalization
redata: Divide and Conquer               =     T
redata: Electronic Temperature           =     0.0019  Ry
redata: Fix the spin of the system       =     F
redata: Dynamics option                  =     Verlet MD run
redata: Initial MD time step             =        1
redata:   Final MD time step             =        1
redata: Length of MD time step           =     1.0000  fs
redata: Initial Temperature of MD run    =     0.0000  K
redata: Perform a MD quench              =     F
redata: ***********************************************************************
Total number of electrons:   299.000000
Total ionic charge:   299.000000

* ProcessorY, Blocksize:    3  24

k-point displ. along   1 input, could be:     0.50    0.00
k-point displ. along   2 input, could be:     0.50    0.00
 Kpoints in:          231 . Kpoints trimmed:          231

siesta: k-grid: Number of k-points =   231
siesta: k-grid: Cutoff (effective) =     5.000 Ang
siesta: k-grid: Supercell and displacements
siesta: k-grid:   21   0   0      0.500
siesta: k-grid:    0  21   0      0.500
siesta: k-grid:    0   0   1      0.000
Naive supercell factors:     2    2    2

superc: Internal auxiliary supercell:     2 x     2 x     2  =       8
superc: Number of atoms, orbitals, and projectors:    576   7488   9216

* Maximum dynamic memory allocated =     4 MB

siesta:                 ==============================
                            Begin MD step =      1
                        ==============================

superc: Internal auxiliary supercell:     2 x     2 x     2  =       8
superc: Number of atoms, orbitals, and projectors:    576   7488   9216

outcell: Unit cell vectors (Ang):
       12.804619    7.392750    0.000000
        0.000000   14.785500    0.000000
        0.000000    0.000000   10.000000

outcell: Cell vector modules (Ang)   :   14.785500   14.785500   10.000000
outcell: Cell angles (23,13,12) (deg):     90.0000     90.0000     60.0000
outcell: Cell volume (Ang**3)        :   1893.2269
New_DM. Step:     1
Initializing Density Matrix...

InitMesh: MESH =   120 x   120 x    90 =     1296000
InitMesh: Mesh cutoff (required, used) =   200.000   223.865 Ry

* Maximum dynamic memory allocated =   136 MB

stepf: Fermi-Dirac step function

siesta: Program's energy decomposition (eV):
siesta: Ebs     =     -6081.890408
siesta: Eions   =     20171.226357
siesta: Ena     =      4835.269009
siesta: Ekin    =      7301.325480
siesta: Enl     =       314.020929
siesta: DEna    =        -0.000015
siesta: DUscf   =         0.000000
siesta: DUext   =         0.000000
siesta: Exc     =     -4441.792787
siesta: eta*DQ  =         0.000000
siesta: Emadel  =         0.000000
siesta: Emeta   =         0.000000
siesta: Emolmec =         0.000000
siesta: Ekinion =         0.000000
siesta: Eharris =    -11824.819279
siesta: Etot    =    -12162.403742
siesta: FreeEng =    -12162.403742

siesta: iscf   Eharris(eV)      E_KS(eV)   FreeEng(eV)   dDmax  Ef(eV)
siesta:    1   -11824.8193   -12162.4037   -12162.4037  6.2147 -7.1967
timer: Routine,Calls,Time,% = IterSCF        1    3019.546  99.60
elaps: Routine,Calls,Wall,% = IterSCF        1     252.226  99.60
siesta:    2   -17091.9121   -11086.2843   -11086.2969 12.7342 -5.6415
siesta:    3   -11812.1868   -11934.2964   -11934.3324  2.0143 -4.4900
siesta:    4   -11724.3188   -11849.8347   -11849.8850  1.3823 -4.6339
siesta:    5   -11695.6743   -11778.3044   -11778.3193  0.8515 -4.1949
siesta:    6   -11683.9165   -11742.9157   -11742.9376  0.7781 -4.0291
siesta:    7   -11669.9184   -11720.7197   -11720.7931  0.6612 -3.9185
siesta:    8   -11664.3573   -11705.9004   -11705.9767  0.5447 -3.9099
siesta:    9   -11662.6461   -11694.3292   -11694.3894  0.4382 -3.9159
siesta:   10   -11662.5911   -11679.8689   -11679.9259  0.3339 -3.9462
siesta:   11   -11662.4400   -11667.3999   -11667.4685  0.2807 -3.8985
siesta:   12   -11662.2140   -11657.2887   -11657.3456  0.2908 -3.8739
siesta:   13   -11661.7505   -11657.2183   -11657.2811  0.2596 -3.8724
siesta:   14   -11661.4500   -11659.6161   -11659.6736  0.1783 -3.8677
siesta:   15   -11661.1956   -11660.4506   -11660.5093  0.1072 -3.9016
siesta:   16   -11661.1007   -11661.5364   -11661.5893  0.0594 -3.9103
siesta:   17   -11661.0557   -11662.0404   -11662.0969  0.0568 -3.9145
siesta:   18   -11661.0430   -11661.5714   -11661.6320  0.0353 -3.9132
siesta:   19   -11661.0376   -11661.0836   -11661.1434  0.0229 -3.9113
siesta:   20   -11661.0328   -11660.4167   -11660.4749  0.0129 -3.9063
siesta:   21   -11661.0306   -11660.4219   -11660.4793  0.0154 -3.9057
siesta:   22   -11661.0260   -11660.7148   -11660.7713  0.0146 -3.9096
siesta:   23   -11661.0263   -11660.9040   -11660.9616  0.0138 -3.9112
siesta:   24   -11661.0264   -11661.0420   -11661.0988  0.0128 -3.9110
siesta:   25   -11661.0259   -11661.0834   -11661.1398  0.0080 -3.9100
siesta:   26   -11661.0256   -11660.9975   -11661.0540  0.0034 -3.9100
siesta:   27   -11661.0254   -11660.9164   -11660.9732  0.0019 -3.9106
siesta:   28   -11661.0255   -11660.9187   -11660.9755  0.0010 -3.9110
siesta:   29   -11661.0254   -11660.9418   -11660.9985  0.0009 -3.9113
siesta:   30   -11661.0255   -11660.9659   -11661.0227  0.0007 -3.9114
siesta:   31   -11661.0255   -11660.9918   -11661.0485  0.0006 -3.9114
siesta:   32   -11661.0254   -11661.0113   -11661.0679  0.0003 -3.9115
siesta:   33   -11661.0254   -11661.0198   -11661.0765  0.0002 -3.9116
siesta:   34   -11661.0254   -11661.0243   -11661.0810  0.0001 -3.9116

siesta: E_KS(eV) =           -11661.0274

siesta: E_KS - E_eggbox =    -11661.0274

siesta: Atomic forces (eV/Ang):
----------------------------------------
   Tot    0.020983   -0.097811    0.000000
----------------------------------------
   Max  683.039224
   Res  169.202153    sqrt( Sum f_i^2 / 3N )
----------------------------------------
   Max  683.039224    constrained

Stress-tensor-Voigt (kbar):     -709.92    -2963.92       -0.11       -4.15        0.00        0.00
(Free)E + p*V (eV/cell)   -10213.9794
Target enthalpy (eV/cell)   -11661.0841

siesta: Stress tensor (static) (eV/Ang**3):
        -0.443093   -0.002593    0.000000
        -0.002593   -1.849914    0.000000
         0.000000    0.000000   -0.000069

siesta: Pressure (static):       1224.65113261  kBar

siesta: Stress tensor (total) (eV/Ang**3):
        -0.443093   -0.002593    0.000000
        -0.002593   -1.849914    0.000000
         0.000000    0.000000   -0.000069

siesta: Pressure (total):       1224.65113261  kBar

siesta: Temp_ion =       0.000 K

* Maximum dynamic memory allocated =   148 MB
Computing bands...

siesta: Program's energy decomposition (eV):
siesta: Ebs     =     -4841.444568
siesta: Eions   =     20171.226357
siesta: Ena     =      4835.269009
siesta: Ekin    =     10325.523009
siesta: Enl     =     -1361.675563
siesta: DEna    =      -783.530053
siesta: DUscf   =       107.370475
siesta: DUext   =         0.000000
siesta: Exc     =     -4612.757968
siesta: eta*DQ  =         0.000000
siesta: Emadel  =         0.000000
siesta: Emeta   =         0.000000
siesta: Emolmec =         0.000000
siesta: Ekinion =         0.000000
siesta: Eharris =    -11661.025434
siesta: Etot    =    -11661.027448
siesta: FreeEng =    -11661.084138

siesta: Final energy (eV):
siesta:  Band Struct. =   -4841.444568
siesta:       Kinetic =   10325.523009
siesta:       Hartree =   33513.922548
siesta:    Ext. field =       0.000000
siesta:   Exch.-corr. =   -4612.757968
siesta:  Ion-electron =  -76956.642855
siesta:       Ion-ion =   26068.927818
siesta:       Ekinion =       0.000000
siesta:         Total =  -11661.027448

siesta: Atomic forces (eV/Ang):
siesta:      1   36.317151  -14.208716    0.000000
siesta:      2    1.605949    4.246771    0.000000
siesta:      3   -1.492552   -1.248818    0.000000
siesta:      4  -18.651990  683.039224    0.000000
siesta:      5    0.981053   -0.861748    0.000000
siesta:      6   -0.614289   -2.261079    0.000000
siesta:      7   -0.099958   -2.168912    0.000000
siesta:      8   -0.925272    2.777178    0.000000
siesta:      9    0.063310    1.634546    0.000000
siesta:     10   26.329904    0.783611    0.000000
siesta:     11    0.003378 -665.456327    0.000000
siesta:     12   21.929898  544.989671    0.000000
siesta:     13    3.857816 -123.473059    0.000000
siesta:     14    1.094020  129.456458    0.000000
siesta:     15  -17.924125 -548.018026    0.000000
siesta:     16   -1.873529  128.628029    0.000000
siesta:     17   18.256927 -551.734711    0.000000
siesta:     18   25.083296   10.083566    0.000000
siesta:     19   31.465865 -549.412438    0.000000
siesta:     20    1.535430    0.762636    0.000000
siesta:     21   -1.449481    1.261540    0.000000
siesta:     22    1.420843    2.078949    0.000000
siesta:     23   -0.894866   -0.149087    0.000000
siesta:     24  -26.014193    7.001682    0.000000
siesta:     25  -34.206235 -550.495457    0.000000
siesta:     26   28.946710  655.272274    0.000000
siesta:     27    0.168992 -123.611301    0.000000
siesta:     28   35.400291  550.619538    0.000000
siesta:     29   25.987007   -6.886250    0.000000
siesta:     30   -3.039492   -1.038144    0.000000
siesta:     31    2.082974   -0.151843    0.000000
siesta:     32   -1.863444   -0.757883    0.000000
siesta:     33    1.366821   -1.592385    0.000000
siesta:     34   -0.115818    6.866310    0.000000
siesta:     35   -0.504998   -6.244230    0.000000
siesta:     36  -15.791653  550.631013    0.000000
siesta:     37   -0.042722 -128.584735    0.000000
siesta:     38    0.117081  548.303528    0.000000
siesta:     39    1.647142 -128.414787    0.000000
siesta:     40   13.718857  560.536476    0.000000
siesta:     41   -0.776428   -0.113239    0.000000
siesta:     42    0.336354    0.764700    0.000000
siesta:     43  -33.293474  549.946611    0.000000
siesta:     44  -26.157442   -6.058064    0.000000
siesta:     45  -22.605624  558.244211    0.000000
siesta:     46  -26.164604   -9.814204    0.000000
siesta:     47   -0.383595    1.217260    0.000000
siesta:     48    0.295557   -1.421393    0.000000
siesta:     49    2.899692   -2.162100    0.000000
siesta:     50   -1.760396    0.042784    0.000000
siesta:     51    1.116545    2.923656    0.000000
siesta:     52   -0.637498    0.364679    0.000000
siesta:     53    0.323559   -0.129482    0.000000
siesta:     54    1.184627   -0.271874    0.000000
siesta:     55   -1.789579   -1.821540    0.000000
siesta:     56    0.724823    1.202898    0.000000
siesta:     57    0.196973    6.363405    0.000000
siesta:     58    0.775716   -5.633672    0.000000
siesta:     59   -1.270249    1.768126    0.000000
siesta:     60    0.795130    0.144360    0.000000
siesta:     61   -0.064403    1.001062    0.000000
siesta:     62   -1.433248   -4.274124    0.000000
siesta:     63  -18.010681 -574.255045    0.000000
siesta:     64    2.095667   -3.360941    0.000000
siesta:     65  -25.173198    4.437273    0.000000
siesta:     66  -17.812068 -560.026361    0.000000
siesta:     67   -1.862310   -0.139610    0.000000
siesta:     68    2.695861    1.600737    0.000000
siesta:     69   -3.708433  130.308655    0.000000
siesta:     70    3.159330 -546.711862    0.000000
siesta:     71    1.950845  119.578911    0.000000
siesta:     72   10.497431 -646.016689    0.000000
siesta: ----------------------------------------
siesta:    Tot    0.020983   -0.097811    0.000000

siesta: Stress tensor (static) (eV/Ang**3):
siesta:    -0.443093   -0.002593    0.000000
siesta:    -0.002593   -1.849914    0.000000
siesta:     0.000000    0.000000   -0.000069

siesta: Cell volume =       1893.226884 Ang**3

siesta: Pressure (static):
siesta:                Solid            Molecule  Units
siesta:           0.00832484          0.13212981  Ry/Bohr**3
siesta:           0.76435885         12.13170976  eV/Ang**3
siesta:        1224.65113261      19437.35199749  kBar
(Free)E+ p_basis*V_orbitals  =      -11631.919119
(Free)Eharris+ p_basis*V_orbitals  =      -11631.920227

siesta: Electric dipole (a.u.)  =    0.000000    0.000000    0.000000
siesta: Electric dipole (Debye) =    0.000000    0.000000    0.000000

* Maximum dynamic memory allocated : Node    0 =   148 MB
* Maximum dynamic memory allocated : Node    1 =    59 MB
* Maximum dynamic memory allocated : Node    2 =    60 MB
* Maximum dynamic memory allocated : Node    3 =   135 MB
* Maximum dynamic memory allocated : Node    4 =   147 MB
* Maximum dynamic memory allocated : Node    5 =    52 MB
* Maximum dynamic memory allocated : Node    6 =    54 MB
* Maximum dynamic memory allocated : Node    7 =   139 MB
* Maximum dynamic memory allocated : Node    8 =   129 MB
* Maximum dynamic memory allocated : Node    9 =    53 MB
* Maximum dynamic memory allocated : Node   10 =    53 MB
* Maximum dynamic memory allocated : Node   11 =   123 MB

* Maximum memory occured during matrixMtoO                    

timer: CPU execution times:
timer:  Routine       Calls   Time/call    Tot.time        %
timer:  siesta            1  100096.972  100096.972   100.00
timer:  Setup             1       3.347       3.347     0.00
timer:  bands             3     225.573     676.718     0.68
timer:  writewave         1       0.023       0.023     0.00
timer:  KSV_init          1       0.007       0.007     0.00
timer:  IterMD            1   99409.888   99409.888    99.31
timer:  hsparse           1       0.162       0.162     0.00
timer:  overlap           1       6.378       6.378     0.01
timer:  IterSCF          34    2920.107   99283.646    99.19
timer:  kinefsm           2       3.236       6.471     0.01
timer:  nlefsm            2      18.619      37.237     0.04
timer:  DHSCF            35      64.810    2268.365     2.27
timer:  DHSCF1            1       0.905       0.905     0.00
timer:  DHSCF2            1      24.907      24.907     0.02
timer:  REORD           282       0.002       0.651     0.00
timer:  POISON           36       0.450      16.184     0.02
timer:  DHSCF3           35      63.458    2221.030     2.22
timer:  rhoofd           35      12.646     442.625     0.44
timer:  cellXC           35       2.505      87.658     0.09
timer:  vmat             35      30.631    1072.085     1.07
timer:  MolMec            2       0.000       0.001     0.00
timer:  diagon           34    2854.004   97036.124    96.94
timer:  c-eigval       7975       5.581   44509.653    44.47
timer:  c-buildHS      7975       0.033     263.666     0.26
timer:  cdiag         15829       5.679   89894.469    89.81
timer:  cdiag1        15829       0.262    4145.312     4.14
timer:  cdiag2        15829       1.830   28973.994    28.95
timer:  cdiag3        15829       3.379   53489.595    53.44
timer:  cdiag4        15829       0.088    1396.796     1.40
timer:  c-eigvec       7854       5.840   45865.216    45.82
timer:  c-buildD       7854       0.929    7294.801     7.29
timer:  DHSCF4            1      21.285      21.285     0.02
timer:  dfscf             1      19.841      19.841     0.02
timer:  overfsm           1       0.286       0.286     0.00
timer:  optical           1       6.404       6.404     0.01
  

elaps: ELAPSED times:
elaps:  Routine       Calls   Time/call    Tot.time        %
elaps:  siesta            1    8361.026    8361.026   100.00
elaps:  Setup             1       0.280       0.280     0.00
elaps:  bands             3      18.857      56.572     0.68
elaps:  writewave         1       0.002       0.002     0.00
elaps:  KSV_init          1       0.000       0.000     0.00
elaps:  IterMD            1    8303.634    8303.634    99.31
elaps:  hsparse           1       0.016       0.016     0.00
elaps:  overlap           1       0.710       0.710     0.01
elaps:  IterSCF          34     243.914    8293.090    99.19
elaps:  kinefsm           2       0.361       0.723     0.01
elaps:  nlefsm            2       1.576       3.153     0.04
elaps:  DHSCF            35       5.465     191.275     2.29
elaps:  DHSCF1            1       0.077       0.077     0.00
elaps:  DHSCF2            1       2.079       2.079     0.02
elaps:  REORD           282       0.000       0.084     0.00
elaps:  POISON           36       0.038       1.366     0.02
elaps:  DHSCF3           35       5.302     185.564     2.22
elaps:  rhoofd           35       2.238      78.330     0.94
elaps:  cellXC           35       0.209       7.306     0.09
elaps:  vmat             35       2.560      89.589     1.07
elaps:  MolMec            2       0.000       0.000     0.00
elaps:  diagon           34     238.399    8105.564    96.94
elaps:  c-eigval       7975       0.466    3717.805    44.47
elaps:  c-buildHS      7975       0.004      28.127     0.34
elaps:  cdiag         15829       0.470    7434.713    88.92
elaps:  cdiag1        15829       0.021     338.720     4.05
elaps:  cdiag2        15829       0.153    2422.380    28.97
elaps:  cdiag3        15829       0.283    4474.937    53.52
elaps:  cdiag4        15829       0.007     111.724     1.34
elaps:  c-eigvec       7854       0.480    3769.073    45.08
elaps:  c-buildD       7854       0.085     671.138     8.03
elaps:  DHSCF4            1       3.521       3.521     0.04
elaps:  dfscf             1       3.331       3.331     0.04
elaps:  overfsm           1       0.030       0.030     0.00
elaps:  optical           1       0.000       0.000     0.00
  
>> End of run:   8-MAY-2016   1:46:22
