Siesta Version:                                        siesta-3.2-pl-3
Architecture  : x86_64-unknown-linux-gnu--unknown
Compiler flags: mpiifort -g -O2 -fPIC -xSSE4.1 -fp-model source -shared-intel 
PARALLEL version

* Running on   12 nodes in parallel
>> Start of run:  14-APR-2016  14:37:53

                           ***********************       
                           *  WELCOME TO SIESTA  *       
                           ***********************       

reinit: Reading from standard input
************************** Dump of input data file ****************************
#(1) General system descriptors
SystemName            GRP_doping    # Descriptive name of the system
SystemLabel           GRP_doping    # Short name for naming files
%include STRUCT.fdf
%include KPT.fdf
%include BASIS.fdf
#%include TS.fdf # for transiesta calculation
#(4) DFT, Grid, SCF
XC.functional         GGA           # LDA or GGA (default = LDA)
XC.authors            PBE           # CA (Ceperley-Aldr) = PZ
                                    #    (Perdew-Zunger) - LDA - Default
                                    # PW92 (Perdew-Wang-92) - LDA
                                    # PBE (Perdew-Burke-Ernzerhof) - GGA
MeshCutoff            200.000000    Ry      # Default: 50.0 Ry ~ 0.444 Bohr
                                    #         100.0 Ry ~ 0.314 Bohr
MaxSCFIterations      500           # Default: 50
DM.MixingWeight       0.05          # Default: 0.25
DM.NumberPulay        10            # Default: 0
DM.PulayOnFile        F             # SystemLabel.P1, SystemLabel.P2
DM.Tolerance          1.d-4         # Default: 1.d-4
DM.UseSaveDM          .true.        # because of the bug
SCFMustConverge       .true.
NeglNonOverlapInt     F             # Default: F
#(5) Eigenvalue problem: order-N or diagonalization
SolutionMethod        Diagon        # or Transiesta
ElectronicTemperature 300.0 K       # Default: 300.0 K
#(6) Molecular dynamics and relaxations
#MD.TypeOfRun          CG            # Type of dynamics:
#MD.VariableCell       F
#MD.NumCGsteps         0           # 0 for single-point / 100 for gopt
#MD.MaxCGDispl         0.2 Bohr      # Default: 0.2 Bohr
#MD.MaxForceTol        0.02 eV/Ang   # Default: 0.04 eV/Ang
#MD.MaxStressTol       1.0 GPa       # Default: 1.0 GPa
# Geometry Constraints
#%block GeometryConstraints
#	position from 1 to 44
#%endblock GeometryConstraints
BandLinesScale   pi/a
%block BandLines
 1   0.00000000  0.00000000  0.00000000
50   0.00000000  0.07809418  0.00000000
50   0.04509075  0.07809242  0.00000000
20   0.00000000  0.00000000  0.00000000
%endblock BandLines
************************** End of input data file *****************************

reinit: -----------------------------------------------------------------------
reinit: System Name: GRP_doping
reinit: -----------------------------------------------------------------------
reinit: System Label: GRP_doping                                                  
reinit: -----------------------------------------------------------------------

initatom: Reading input for the pseudopotentials and atomic orbitals ----------
 Species number:            1  Label: B Atomic number:           5
 Species number:            2  Label: C Atomic number:           6
Ground state valence configuration:   2s02  2p01
Reading pseudopotential information in formatted form from B.psf

Valence configuration for pseudopotential generation:
2s( 2.00) rc: 1.74
2p( 1.00) rc: 1.74
3d( 0.00) rc: 1.74
4f( 0.00) rc: 1.74
Ground state valence configuration:   2s02  2p02
Reading pseudopotential information in formatted form from C.psf

Valence configuration for pseudopotential generation:
2s( 2.00) rc: 1.54
2p( 2.00) rc: 1.54
3d( 0.00) rc: 1.54
4f( 0.00) rc: 1.54
For B, standard SIESTA heuristics set lmxkb to 3
 (one more than the basis l, including polarization orbitals).
Use PS.lmax or PS.KBprojectors blocks to override.
For C, standard SIESTA heuristics set lmxkb to 3
 (one more than the basis l, including polarization orbitals).
Use PS.lmax or PS.KBprojectors blocks to override.

<basis_specs>
===============================================================================
B                    Z=   5    Mass=  10.810        Charge= 0.17977+309
Lmxo=1 Lmxkb= 3    BasisType=split      Semic=F
L=0  Nsemic=0  Cnfigmx=2
          n=1  nzeta=2  polorb=0
            splnorm:   0.15000    
               vcte:    0.0000    
               rinn:    0.0000    
                rcs:    0.0000      0.0000    
            lambdas:    1.0000      1.0000    
L=1  Nsemic=0  Cnfigmx=2
          n=1  nzeta=2  polorb=1
            splnorm:   0.15000    
               vcte:    0.0000    
               rinn:    0.0000    
                rcs:    0.0000      0.0000    
            lambdas:    1.0000      1.0000    
-------------------------------------------------------------------------------
L=0  Nkbl=1  erefs: 0.17977+309
L=1  Nkbl=1  erefs: 0.17977+309
L=2  Nkbl=1  erefs: 0.17977+309
L=3  Nkbl=1  erefs: 0.17977+309
===============================================================================
</basis_specs>

atom: Called for B                     (Z =   5)

read_vps: Pseudopotential generation method:
read_vps: ATM3      Troullier-Martins                       
Total valence charge:    3.00000

read_vps: Pseudopotential includes a core correction:
read_vps: Pseudo-core for xc-correction

xc_check: Exchange-correlation functional:
xc_check: GGA Perdew, Burke & Ernzerhof 1996
V l=0 = -2*Zval/r beyond r=  1.7165
V l=1 = -2*Zval/r beyond r=  1.7165
V l=2 = -2*Zval/r beyond r=  1.7165
V l=3 = -2*Zval/r beyond r=  1.6951
All V_l potentials equal beyond r=  1.7165
This should be close to max(r_c) in ps generation
All pots = -2*Zval/r beyond r=  1.7165

VLOCAL1: 99.0% of the norm of Vloc inside     14.733 Ry
VLOCAL1: 99.9% of the norm of Vloc inside     33.577 Ry
atom: Maximum radius for 4*pi*r*r*local-pseudopot. charge    2.04484
atom: Maximum radius for r*vlocal+2*Zval:    1.75994
GHOST: No ghost state for L =  0
GHOST: No ghost state for L =  1
GHOST: No ghost state for L =  2
GHOST: No ghost state for L =  3

KBgen: Kleinman-Bylander projectors: 
   l= 0   rc=  1.897051   el= -0.693730   Ekb=  4.595746   kbcos=  0.286105
   l= 1   rc=  1.920920   el= -0.265236   Ekb= -2.350715   kbcos= -0.315747
   l= 2   rc=  2.044840   el=  0.002055   Ekb= -0.690767   kbcos= -0.013822
   l= 3   rc=  2.149707   el=  0.003188   Ekb= -0.315358   kbcos= -0.002055

KBgen: Total number of  Kleinman-Bylander projectors:   16
atom: -------------------------------------------------------------------------

atom: SANKEY-TYPE ORBITALS:
atom: Selected multiple-zeta basis: split     

SPLIT: Orbitals with angular momentum L= 0

SPLIT: Basis orbitals for state 2s

SPLIT: PAO cut-off radius determined from an
SPLIT: energy shift=  0.007350 Ry

   izeta = 1
                 lambda =    1.000000
                     rc =    5.422032
                 energy =   -0.686029
                kinetic =    0.576707
    potential(screened) =   -1.262736
       potential(ionic) =   -3.271094

   izeta = 2
                 rmatch =    4.222573
              splitnorm =    0.150000
                 energy =   -0.602132
                kinetic =    0.858975
    potential(screened) =   -1.461107
       potential(ionic) =   -3.582536

SPLIT: Orbitals with angular momentum L= 1

SPLIT: Basis orbitals for state 2p

SPLIT: PAO cut-off radius determined from an
SPLIT: energy shift=  0.007350 Ry

   izeta = 1
                 lambda =    1.000000
                     rc =    6.790259
                 energy =   -0.258578
                kinetic =    1.481412
    potential(screened) =   -1.739989
       potential(ionic) =   -3.657461

   izeta = 2
                 rmatch =    4.608740
              splitnorm =    0.150000
                 energy =   -0.173757
                kinetic =    2.186690
    potential(screened) =   -2.360447
       potential(ionic) =   -4.464260

POLgen: Perturbative polarization orbital with L=  2

POLgen: Polarization orbital for state 2p

   izeta = 1
                     rc =    6.790259
                 energy =    0.684082
                kinetic =    1.471481
    potential(screened) =   -0.787399
       potential(ionic) =   -2.406985
atom: Total number of Sankey-type orbitals: 13

atm_pop: Valence configuration (for local Pseudopot. screening):
 2s( 2.00)                                                            
 2p( 1.00)                                                            
Vna: chval, zval:    3.00000   3.00000

Vna:  Cut-off radius for the neutral-atom potential:   6.790259
comcore: Pseudo-core radius Rcore=  2.122997

atom: _________________________________________________________________________

<basis_specs>
===============================================================================
C                    Z=   6    Mass=  12.010        Charge= 0.17977+309
Lmxo=1 Lmxkb= 3    BasisType=split      Semic=F
L=0  Nsemic=0  Cnfigmx=2
          n=1  nzeta=2  polorb=0
            splnorm:   0.15000    
               vcte:    0.0000    
               rinn:    0.0000    
                rcs:    0.0000      0.0000    
            lambdas:    1.0000      1.0000    
L=1  Nsemic=0  Cnfigmx=2
          n=1  nzeta=2  polorb=1
            splnorm:   0.15000    
               vcte:    0.0000    
               rinn:    0.0000    
                rcs:    0.0000      0.0000    
            lambdas:    1.0000      1.0000    
-------------------------------------------------------------------------------
L=0  Nkbl=1  erefs: 0.17977+309
L=1  Nkbl=1  erefs: 0.17977+309
L=2  Nkbl=1  erefs: 0.17977+309
L=3  Nkbl=1  erefs: 0.17977+309
===============================================================================
</basis_specs>

atom: Called for C                     (Z =   6)

read_vps: Pseudopotential generation method:
read_vps: ATM3      Troullier-Martins                       
Total valence charge:    4.00000

read_vps: Pseudopotential includes a core correction:
read_vps: Pseudo-core for xc-correction

xc_check: Exchange-correlation functional:
xc_check: GGA Perdew, Burke & Ernzerhof 1996
V l=0 = -2*Zval/r beyond r=  1.5227
V l=1 = -2*Zval/r beyond r=  1.5227
V l=2 = -2*Zval/r beyond r=  1.5227
V l=3 = -2*Zval/r beyond r=  1.5038
All V_l potentials equal beyond r=  1.5227
This should be close to max(r_c) in ps generation
All pots = -2*Zval/r beyond r=  1.5227

VLOCAL1: 99.0% of the norm of Vloc inside     18.722 Ry
VLOCAL1: 99.9% of the norm of Vloc inside     42.668 Ry
atom: Maximum radius for 4*pi*r*r*local-pseudopot. charge    1.83678
atom: Maximum radius for r*vlocal+2*Zval:    1.58088
GHOST: No ghost state for L =  0
GHOST: No ghost state for L =  1
GHOST: No ghost state for L =  2
GHOST: No ghost state for L =  3

KBgen: Kleinman-Bylander projectors: 
   l= 0   rc=  1.704034   el= -1.009801   Ekb=  5.335044   kbcos=  0.316824
   l= 1   rc=  1.704034   el= -0.388707   Ekb= -3.785862   kbcos= -0.366464
   l= 2   rc=  1.791422   el=  0.001971   Ekb= -0.970471   kbcos= -0.009212
   l= 3   rc=  1.859892   el=  0.003065   Ekb= -0.399525   kbcos= -0.001223

KBgen: Total number of  Kleinman-Bylander projectors:   16
atom: -------------------------------------------------------------------------

atom: SANKEY-TYPE ORBITALS:
atom: Selected multiple-zeta basis: split     

SPLIT: Orbitals with angular momentum L= 0

SPLIT: Basis orbitals for state 2s

SPLIT: PAO cut-off radius determined from an
SPLIT: energy shift=  0.007350 Ry

   izeta = 1
                 lambda =    1.000000
                     rc =    4.632753
                 energy =   -1.002270
                kinetic =    0.855760
    potential(screened) =   -1.858031
       potential(ionic) =   -5.417575

   izeta = 2
                 rmatch =    3.431921
              splitnorm =    0.150000
                 energy =   -0.867111
                kinetic =    1.300804
    potential(screened) =   -2.167915
       potential(ionic) =   -5.962684

SPLIT: Orbitals with angular momentum L= 1

SPLIT: Basis orbitals for state 2p

SPLIT: PAO cut-off radius determined from an
SPLIT: energy shift=  0.007350 Ry

   izeta = 1
                 lambda =    1.000000
                     rc =    5.658549
                 energy =   -0.381140
                kinetic =    2.399701
    potential(screened) =   -2.780841
       potential(ionic) =   -6.206085

   izeta = 2
                 rmatch =    3.653288
              splitnorm =    0.150000
                 energy =   -0.249149
                kinetic =    3.542762
    potential(screened) =   -3.791911
       potential(ionic) =   -7.581078

POLgen: Perturbative polarization orbital with L=  2

POLgen: Polarization orbital for state 2p

   izeta = 1
                     rc =    5.658549
                 energy =    1.109913
                kinetic =    2.304789
    potential(screened) =   -1.194876
       potential(ionic) =   -4.013592
atom: Total number of Sankey-type orbitals: 13

atm_pop: Valence configuration (for local Pseudopot. screening):
 2s( 2.00)                                                            
 2p( 2.00)                                                            
Vna: chval, zval:    4.00000   4.00000

Vna:  Cut-off radius for the neutral-atom potential:   5.658549
comcore: Pseudo-core radius Rcore=  1.791422

atom: _________________________________________________________________________

prinput: Basis input ----------------------------------------------------------

PAO.BasisType split     

%block ChemicalSpeciesLabel
    1    5 B                       # Species index, atomic number, species label
    2    6 C                       # Species index, atomic number, species label
%endblock ChemicalSpeciesLabel

%block PAO.Basis                 # Define Basis set
B                     2                    # Species label, number of l-shells
 n=2   0   2                         # n, l, Nzeta 
   5.422      4.223   
   1.000      1.000   
 n=2   1   2 P   1                   # n, l, Nzeta, Polarization, NzetaPol
   6.790      4.609   
   1.000      1.000   
C                     2                    # Species label, number of l-shells
 n=2   0   2                         # n, l, Nzeta 
   4.633      3.432   
   1.000      1.000   
 n=2   1   2 P   1                   # n, l, Nzeta, Polarization, NzetaPol
   5.659      3.653   
   1.000      1.000   
%endblock PAO.Basis

prinput: ----------------------------------------------------------------------

coor:   Atomic-coordinates input format  =     Fractional

siesta: Atomic coordinates (Bohr) and species
siesta:     -0.02582   2.59549   0.00000  1        1
siesta:      9.28770  18.72698   0.00000  1        2
siesta:     -4.68258  10.66124   0.00000  1        3
siesta:     -9.33934  18.72698   0.00000  1        4
siesta:      4.63094  26.79272   0.00000  1        5
siesta:     -0.02582  26.79272   0.00000  1        6
siesta:     -0.02582  34.85847   0.00000  1        7
siesta:     -0.02582   5.28395   0.00000  2        8
siesta:     -2.35420  38.89134   0.00000  2        9
siesta:     -2.35420  41.57980   0.00000  2       10
siesta:      2.30256  38.89134   0.00000  2       11
siesta:      2.30256  41.57980   0.00000  2       12
siesta:      4.63094  34.85847   0.00000  2       13
siesta:      4.63094  37.54693   0.00000  2       14
siesta:      6.95932  30.82560   0.00000  2       15
siesta:      6.95932  33.51406   0.00000  2       16
siesta:      9.28770  26.79272   0.00000  2       17
siesta:      9.28770  29.48119   0.00000  2       18
siesta:     -4.68258  34.85847   0.00000  2       19
siesta:     -4.68258  37.54693   0.00000  2       20
siesta:      2.30256   6.62836   0.00000  2       21
siesta:      2.30256   9.31683   0.00000  2       22
siesta:      4.63094  10.66124   0.00000  2       23
siesta:      4.63094  13.34970   0.00000  2       24
siesta:      6.95932  14.69411   0.00000  2       25
siesta:      6.95932  17.38257   0.00000  2       26
siesta:      9.28770  21.41544   0.00000  2       27
siesta:     11.61608  22.75985   0.00000  2       28
siesta:     11.61608  25.44831   0.00000  2       29
siesta:     -2.35420   6.62836   0.00000  2       30
siesta:     -2.35420   9.31683   0.00000  2       31
siesta:     -0.02582  10.66124   0.00000  2       32
siesta:     -0.02582  13.34970   0.00000  2       33
siesta:      2.30256  14.69411   0.00000  2       34
siesta:      2.30256  17.38257   0.00000  2       35
siesta:      4.63094  18.72698   0.00000  2       36
siesta:      4.63094  21.41544   0.00000  2       37
siesta:      6.95932  22.75985   0.00000  2       38
siesta:      6.95932  25.44831   0.00000  2       39
siesta:     -4.68258  13.34970   0.00000  2       40
siesta:     -2.35420  14.69411   0.00000  2       41
siesta:     -2.35420  17.38257   0.00000  2       42
siesta:     -0.02582  18.72698   0.00000  2       43
siesta:     -0.02582  21.41544   0.00000  2       44
siesta:      2.30256  22.75985   0.00000  2       45
siesta:      2.30256  25.44831   0.00000  2       46
siesta:     -7.01096  14.69411   0.00000  2       47
siesta:     -7.01096  17.38257   0.00000  2       48
siesta:     -4.68258  18.72698   0.00000  2       49
siesta:     -4.68258  21.41544   0.00000  2       50
siesta:     -2.35420  22.75985   0.00000  2       51
siesta:     -2.35420  25.44831   0.00000  2       52
siesta:     -9.33934  21.41544   0.00000  2       53
siesta:     -7.01096  22.75985   0.00000  2       54
siesta:     -7.01096  25.44831   0.00000  2       55
siesta:    -11.66772  22.75985   0.00000  2       56
siesta:    -11.66772  25.44831   0.00000  2       57
siesta:     -9.33934  26.79272   0.00000  2       58
siesta:     -9.33934  29.48119   0.00000  2       59
siesta:      4.63094  29.48119   0.00000  2       60
siesta:     -0.02582  29.48119   0.00000  2       61
siesta:     -4.68258  26.79272   0.00000  2       62
siesta:     -4.68258  29.48119   0.00000  2       63
siesta:      2.30256  30.82560   0.00000  2       64
siesta:      2.30256  33.51406   0.00000  2       65
siesta:     -2.35420  30.82560   0.00000  2       66
siesta:     -2.35420  33.51406   0.00000  2       67
siesta:     -7.01096  30.82560   0.00000  2       68
siesta:     -7.01096  33.51406   0.00000  2       69
siesta:     -0.02582  37.54693   0.00000  2       70
siesta:     -0.02582  42.92421   0.00000  2       71
siesta:     -0.02582  45.61267   0.00000  2       72

siesta: System type = slab      

initatomlists: Number of atoms, orbitals, and projectors:     72   936  1152

siesta: ******************** Simulation parameters ****************************
siesta:
siesta: The following are some of the parameters of the simulation.
siesta: A complete list of the parameters used, including default values,
siesta: can be found in file out.fdf
siesta:
redata: Non-Collinear-spin run           =     F
redata: SpinPolarized (Up/Down) run      =     F
redata: Number of spin components        =     1
redata: Long output                      =     F
redata: Number of Atomic Species         =        2
redata: Charge density info will appear in .RHO file
redata: Write Mulliken Pop.              =     NO
redata: Mesh Cutoff                      =   200.0000  Ry
redata: Net charge of the system         =     0.0000 |e|
redata: Max. number of SCF Iter          =      500
redata: SCF convergence failure will abort job
redata: Performing Pulay mixing using    =    10 iterations
redata: Mix DM in first SCF step ?       =     F
redata: Write Pulay info on disk?        =     F
redata: Discard 1st Pulay DM after  kick =     F
redata: New DM Mixing Weight             =     0.0500
redata: New DM Occupancy tolerance       = 0.000000000001
redata: No kicks to SCF
redata: DM Mixing Weight for Kicks       =     0.5000
redata: DM Tolerance for SCF             =     0.000100
redata: Require Energy convergence for SCF =     F
redata: DM Energy tolerance for SCF      =     0.000100 eV
redata: Require Harris convergence for SCF =     F
redata: DM Harris energy tolerance for SCF =     0.000100 eV
redata: Using Saved Data (generic)   =     F
redata: Use continuation files for DM    =     T
redata: Neglect nonoverlap interactions  =     F
redata: Method of Calculation            =     Diagonalization
redata: Divide and Conquer               =     T
redata: Electronic Temperature           =     0.0019  Ry
redata: Fix the spin of the system       =     F
redata: Dynamics option                  =     Verlet MD run
redata: Initial MD time step             =        1
redata:   Final MD time step             =        1
redata: Length of MD time step           =     1.0000  fs
redata: Initial Temperature of MD run    =     0.0000  K
redata: Perform a MD quench              =     F
redata: ***********************************************************************
Total number of electrons:   281.000000
Total ionic charge:   281.000000

* ProcessorY, Blocksize:    3  24

k-point displ. along   1 input, could be:     0.50    0.00
k-point displ. along   2 input, could be:     0.50    0.00
 Kpoints in:          231 . Kpoints trimmed:          231

siesta: k-grid: Number of k-points =   231
siesta: k-grid: Cutoff (effective) =     5.000 Ang
siesta: k-grid: Supercell and displacements
siesta: k-grid:   21   0   0      0.500
siesta: k-grid:    0  21   0      0.500
siesta: k-grid:    0   0   1      0.000
Naive supercell factors:     2    2    2

superc: Internal auxiliary supercell:     2 x     2 x     2  =       8
superc: Number of atoms, orbitals, and projectors:    576   7488   9216

* Maximum dynamic memory allocated =     4 MB

siesta:                 ==============================
                            Begin MD step =      1
                        ==============================

superc: Internal auxiliary supercell:     2 x     2 x     2  =       8
superc: Number of atoms, orbitals, and projectors:    576   7488   9216

outcell: Unit cell vectors (Ang):
       12.804619    7.392750    0.000000
        0.000000   14.785500    0.000000
        0.000000    0.000000   10.000000

outcell: Cell vector modules (Ang)   :   14.785500   14.785500   10.000000
outcell: Cell angles (23,13,12) (deg):     90.0000     90.0000     60.0000
outcell: Cell volume (Ang**3)        :   1893.2269
New_DM. Step:     1
Initializing Density Matrix...

iodm: Reading Density Matrix from files

InitMesh: MESH =   120 x   120 x    90 =     1296000
InitMesh: Mesh cutoff (required, used) =   200.000   223.865 Ry

* Maximum dynamic memory allocated =   151 MB

stepf: Fermi-Dirac step function

siesta: Program's energy decomposition (eV):
siesta: Ebs     =     -4436.071009
siesta: Eions   =     17506.614093
siesta: Ena     =      4543.556963
siesta: Ekin    =      8922.845781
siesta: Enl     =      -965.079786
siesta: DEna    =      -768.241208
siesta: DUscf   =       102.826327
siesta: DUext   =         0.000000
siesta: Exc     =     -4344.109871
siesta: eta*DQ  =         0.000000
siesta: Emadel  =         0.000000
siesta: Emeta   =         0.000000
siesta: Emolmec =         0.000000
siesta: Ekinion =         0.000000
siesta: Eharris =    -10014.811239
siesta: Etot    =    -10014.815886
siesta: FreeEng =    -10014.815886

siesta: iscf   Eharris(eV)      E_KS(eV)   FreeEng(eV)   dDmax  Ef(eV)
siesta:    1   -10014.8112   -10014.8159   -10014.8159  0.0000 -4.8379
timer: Routine,Calls,Time,% = IterSCF        1    3039.667  99.58
elaps: Routine,Calls,Wall,% = IterSCF        1     253.912  99.58

siesta: E_KS(eV) =           -10014.8112

siesta: E_KS - E_eggbox =    -10014.8112

siesta: Atomic forces (eV/Ang):
----------------------------------------
   Tot   -0.156347   -0.098486    0.000000
----------------------------------------
   Max  562.468706
   Res  152.820015    sqrt( Sum f_i^2 / 3N )
----------------------------------------
   Max  562.468706    constrained

Stress-tensor-Voigt (kbar):     -732.98    -2689.72       -0.32       -1.25        0.00        0.00
(Free)E + p*V (eV/cell)    -8666.6062
Target enthalpy (eV/cell)   -10014.8763

siesta: Stress tensor (static) (eV/Ang**3):
        -0.457486   -0.000778    0.000000
        -0.000778   -1.678775    0.000000
         0.000000    0.000000   -0.000202

siesta: Pressure (static):       1141.00966286  kBar

siesta: Stress tensor (total) (eV/Ang**3):
        -0.457486   -0.000778    0.000000
        -0.000778   -1.678775    0.000000
         0.000000    0.000000   -0.000202

siesta: Pressure (total):       1141.00966286  kBar

siesta: Temp_ion =       0.000 K

* Maximum dynamic memory allocated =   161 MB
Computing bands...

siesta: Program's energy decomposition (eV):
siesta: Ebs     =     -4436.071009
siesta: Eions   =     17506.614093
siesta: Ena     =      4543.556963
siesta: Ekin    =      8922.863743
siesta: Enl     =      -965.092527
siesta: DEna    =      -768.241438
siesta: DUscf   =       102.826567
siesta: DUext   =         0.000000
siesta: Exc     =     -4344.110455
siesta: eta*DQ  =         0.000000
siesta: Emadel  =         0.000000
siesta: Emeta   =         0.000000
siesta: Emolmec =         0.000000
siesta: Ekinion =         0.000000
siesta: Eharris =    -10014.811239
siesta: Etot    =    -10014.811238
siesta: FreeEng =    -10014.876253

siesta: Final energy (eV):
siesta:  Band Struct. =   -4436.071009
siesta:       Kinetic =    8922.863743
siesta:       Hartree =   29238.068628
siesta:    Ext. field =       0.000000
siesta:   Exch.-corr. =   -4344.110455
siesta:  Ion-electron =  -67087.697246
siesta:       Ion-ion =   23256.064091
siesta:       Ekinion =       0.000000
siesta:         Total =  -10014.811238

siesta: Atomic forces (eV/Ang):
siesta:      1    0.099180  407.942777    0.000000
siesta:      2    1.036014   -1.357285    0.000000
siesta:      3  -27.442496  397.350589    0.000000
siesta:      4   -1.048910   -1.381865    0.000000
siesta:      5   -0.325437   -0.876427    0.000000
siesta:      6    0.129792   -2.660040    0.000000
siesta:      7    0.102128  113.582807    0.000000
siesta:      8   -1.525154 -128.171335    0.000000
siesta:      9    2.629032  124.537558    0.000000
siesta:     10  -15.098796 -545.097633    0.000000
siesta:     11   -1.415721  127.631867    0.000000
siesta:     12   17.849032 -549.751207    0.000000
siesta:     13   27.132069    4.547078    0.000000
siesta:     14   32.571499 -547.917158    0.000000
siesta:     15    1.744965    0.154247    0.000000
siesta:     16   -2.444378    2.084464    0.000000
siesta:     17    1.987419    0.803695    0.000000
siesta:     18   -0.022191    1.619454    0.000000
siesta:     19  -26.364351   -0.866099    0.000000
siesta:     20  -33.646135 -399.411255    0.000000
siesta:     21   22.228178  550.196229    0.000000
siesta:     22   -3.184953 -130.722256    0.000000
siesta:     23   34.544040  548.325166    0.000000
siesta:     24   26.814754   -6.577808    0.000000
siesta:     25   -2.402718   -1.524516    0.000000
siesta:     26   -1.129103   -2.943955    0.000000
siesta:     27    3.665930    1.448488    0.000000
siesta:     28   -0.552803    6.595170    0.000000
siesta:     29   -0.316513   -6.491584    0.000000
siesta:     30  -23.044824  550.339730    0.000000
siesta:     31   -3.831812 -121.457668    0.000000
siesta:     32   -3.410239  551.489977    0.000000
siesta:     33   -0.007109 -130.941639    0.000000
siesta:     34   20.877064  556.893239    0.000000
siesta:     35   21.993062   -5.508219    0.000000
siesta:     36   -0.246680    2.642968    0.000000
siesta:     37    0.415595   -0.824470    0.000000
siesta:     38   -0.118403    1.009910    0.000000
siesta:     39    3.027520   -2.562549    0.000000
siesta:     40  -27.079347   -2.420230    0.000000
siesta:     41  -25.707913  556.012509    0.000000
siesta:     42  -21.215417   -6.102047    0.000000
siesta:     43    0.525920  562.468706    0.000000
siesta:     44    0.194686    1.323934    0.000000
siesta:     45   -0.899586   -0.289947    0.000000
siesta:     46   -0.557020   -2.798575    0.000000
siesta:     47    2.998405   -2.012495    0.000000
siesta:     48    0.876038   -2.612323    0.000000
siesta:     49    0.249034    1.946481    0.000000
siesta:     50   -0.365857   -0.517329    0.000000
siesta:     51    0.356964    0.009633    0.000000
siesta:     52   -2.253577   -1.465157    0.000000
siesta:     53   -3.342931    1.610420    0.000000
siesta:     54    0.411596    0.519434    0.000000
siesta:     55    0.136488   -0.545499    0.000000
siesta:     56    0.501588    6.755245    0.000000
siesta:     57    0.373417   -6.585964    0.000000
siesta:     58   -2.139386    1.486457    0.000000
siesta:     59    0.178593    1.325247    0.000000
siesta:     60   -1.527455    3.414127    0.000000
siesta:     61    0.123765 -410.001399    0.000000
siesta:     62   -0.405940   -0.146206    0.000000
siesta:     63    0.687202   -1.122476    0.000000
siesta:     64   23.771866    2.825230    0.000000
siesta:     65   17.402075 -551.626180    0.000000
siesta:     66  -22.731458    3.400863    0.000000
siesta:     67  -17.693395 -554.368186    0.000000
siesta:     68   -1.942202   -0.556736    0.000000
siesta:     69    2.937499    2.548336    0.000000
siesta:     70    5.782088 -543.812977    0.000000
siesta:     71   -0.485900  127.129674    0.000000
siesta:     72   -0.584737 -548.041498    0.000000
siesta: ----------------------------------------
siesta:    Tot   -0.156347   -0.098486    0.000000

siesta: Stress tensor (static) (eV/Ang**3):
siesta:    -0.457486   -0.000778    0.000000
siesta:    -0.000778   -1.678775    0.000000
siesta:     0.000000    0.000000   -0.000202

siesta: Cell volume =       1893.226884 Ang**3

siesta: Pressure (static):
siesta:                Solid            Molecule  Units
siesta:           0.00775627          0.11762443  Ry/Bohr**3
siesta:           0.71215452         10.79987549  eV/Ang**3
siesta:        1141.00966286      17303.49518870  kBar
(Free)E+ p_basis*V_orbitals  =       -9981.926961
(Free)Eharris+ p_basis*V_orbitals  =       -9981.922314

siesta: Electric dipole (a.u.)  =    0.000000    0.000000    0.000000
siesta: Electric dipole (Debye) =    0.000000    0.000000    0.000000

* Maximum dynamic memory allocated : Node    0 =   161 MB
* Maximum dynamic memory allocated : Node    1 =    63 MB
* Maximum dynamic memory allocated : Node    2 =    64 MB
* Maximum dynamic memory allocated : Node    3 =   147 MB
* Maximum dynamic memory allocated : Node    4 =   155 MB
* Maximum dynamic memory allocated : Node    5 =    56 MB
* Maximum dynamic memory allocated : Node    6 =    57 MB
* Maximum dynamic memory allocated : Node    7 =   146 MB
* Maximum dynamic memory allocated : Node    8 =   141 MB
* Maximum dynamic memory allocated : Node    9 =    55 MB
* Maximum dynamic memory allocated : Node   10 =    58 MB
* Maximum dynamic memory allocated : Node   11 =   135 MB

* Maximum memory occured during matrixMtoO                    

timer: CPU execution times:
timer:  Routine       Calls   Time/call    Tot.time        %
timer:  siesta            1    3874.219    3874.219   100.00
timer:  Setup             1       3.517       3.517     0.09
timer:  bands             3     225.975     677.926    17.50
timer:  writewave         1       0.024       0.024     0.00
timer:  KSV_init          1       0.003       0.003     0.00
timer:  IterMD            1    3185.728    3185.728    82.23
timer:  hsparse           1       0.280       0.280     0.01
timer:  overlap           1       5.765       5.765     0.15
timer:  IterSCF           1    3039.667    3039.667    78.46
timer:  kinefsm           2       2.935       5.869     0.15
timer:  nlefsm            2      19.982      39.964     1.03
timer:  DHSCF             2     102.942     205.885     5.31
timer:  DHSCF1            1       1.204       1.204     0.03
timer:  DHSCF2            1      32.155      32.155     0.83
timer:  REORD            18       0.003       0.054     0.00
timer:  POISON            3       0.473       1.420     0.04
timer:  DHSCF3            2      73.524     147.048     3.80
timer:  rhoofd            2      15.306      30.611     0.79
timer:  cellXC            2       2.411       4.822     0.12
timer:  vmat              2      36.593      73.187     1.89
timer:  MolMec            2       0.001       0.001     0.00
timer:  diagon            1    2890.831    2890.831    74.62
timer:  c-eigval        352       5.584    1965.732    50.74
timer:  c-buildHS       352       0.034      11.934     0.31
timer:  cdiag           583       5.704    3325.708    85.84
timer:  cdiag1          583       0.300     174.870     4.51
timer:  cdiag2          583       1.703     993.038    25.63
timer:  cdiag3          583       3.467    2021.223    52.17
timer:  cdiag4          583       0.108      63.139     1.63
timer:  c-eigvec        231       5.969    1378.769    35.59
timer:  c-buildD        231       0.965     222.872     5.75
timer:  DHSCF4            1      25.425      25.425     0.66
timer:  dfscf             1      23.373      23.373     0.60
timer:  overfsm           1       0.307       0.307     0.01
timer:  optical           1       6.431       6.431     0.17
  

elaps: ELAPSED times:
elaps:  Routine       Calls   Time/call    Tot.time        %
elaps:  siesta            1     323.625     323.625   100.00
elaps:  Setup             1       0.294       0.294     0.09
elaps:  bands             3      18.893      56.680    17.51
elaps:  writewave         1       0.002       0.002     0.00
elaps:  KSV_init          1       0.000       0.000     0.00
elaps:  IterMD            1     266.113     266.113    82.23
elaps:  hsparse           1       0.027       0.027     0.01
elaps:  overlap           1       0.715       0.715     0.22
elaps:  IterSCF           1     253.912     253.912    78.46
elaps:  kinefsm           2       0.366       0.733     0.23
elaps:  nlefsm            2       1.838       3.675     1.14
elaps:  DHSCF             2       9.627      19.255     5.95
elaps:  DHSCF1            1       0.102       0.102     0.03
elaps:  DHSCF2            1       2.685       2.685     0.83
elaps:  REORD            18       0.000       0.005     0.00
elaps:  POISON            3       0.040       0.120     0.04
elaps:  DHSCF3            2       6.141      12.281     3.79
elaps:  rhoofd            2       2.755       5.510     1.70
elaps:  cellXC            2       0.201       0.402     0.12
elaps:  vmat              2       3.055       6.110     1.89
elaps:  MolMec            2       0.000       0.000     0.00
elaps:  diagon            1     241.490     241.490    74.62
elaps:  c-eigval        352       0.466     164.204    50.74
elaps:  c-buildHS       352       0.004       1.320     0.41
elaps:  cdiag           583       0.472     274.919    84.95
elaps:  cdiag1          583       0.025      14.423     4.46
elaps:  cdiag2          583       0.142      83.002    25.65
elaps:  cdiag3          583       0.290     169.209    52.29
elaps:  cdiag4          583       0.009       5.121     1.58
elaps:  c-eigvec        231       0.488     112.791    34.85
elaps:  c-buildD        231       0.091      20.997     6.49
elaps:  DHSCF4            1       4.182       4.182     1.29
elaps:  dfscf             1       3.929       3.929     1.21
elaps:  overfsm           1       0.034       0.034     0.01
elaps:  optical           1       0.000       0.000     0.00
  
>> End of run:  14-APR-2016  14:43:17
