Siesta Version:                                        siesta-3.2-pl-3
Architecture  : x86_64-unknown-linux-gnu--unknown
Compiler flags: mpiifort -g -O2 -fPIC -xSSE4.1 -fp-model source -shared-intel 
PARALLEL version

* Running on   12 nodes in parallel
>> Start of run:  29-APR-2016   7:22:44

                           ***********************       
                           *  WELCOME TO SIESTA  *       
                           ***********************       

reinit: Reading from standard input
************************** Dump of input data file ****************************
#(1) General system descriptors
SystemName            GRP_doping    # Descriptive name of the system
SystemLabel           GRP_doping    # Short name for naming files
%include STRUCT.fdf
%include KPT.fdf
%include BASIS.fdf
#%include TS.fdf # for transiesta calculation
#(4) DFT, Grid, SCF
XC.functional         GGA           # LDA or GGA (default = LDA)
XC.authors            PBE           # CA (Ceperley-Aldr) = PZ
                                    #    (Perdew-Zunger) - LDA - Default
                                    # PW92 (Perdew-Wang-92) - LDA
                                    # PBE (Perdew-Burke-Ernzerhof) - GGA
MeshCutoff            200.000000    Ry      # Default: 50.0 Ry ~ 0.444 Bohr
                                    #         100.0 Ry ~ 0.314 Bohr
MaxSCFIterations      500           # Default: 50
DM.MixingWeight       0.05          # Default: 0.25
DM.NumberPulay        10            # Default: 0
DM.PulayOnFile        F             # SystemLabel.P1, SystemLabel.P2
DM.Tolerance          1.d-4         # Default: 1.d-4
DM.UseSaveDM          .true.        # because of the bug
SCFMustConverge       .true.
NeglNonOverlapInt     F             # Default: F
#(5) Eigenvalue problem: order-N or diagonalization
SolutionMethod        Diagon        # or Transiesta
ElectronicTemperature 300.0 K       # Default: 300.0 K
#(6) Molecular dynamics and relaxations
#MD.TypeOfRun          CG            # Type of dynamics:
#MD.VariableCell       F
#MD.NumCGsteps         0           # 0 for single-point / 100 for gopt
#MD.MaxCGDispl         0.2 Bohr      # Default: 0.2 Bohr
#MD.MaxForceTol        0.02 eV/Ang   # Default: 0.04 eV/Ang
#MD.MaxStressTol       1.0 GPa       # Default: 1.0 GPa
# Geometry Constraints
#%block GeometryConstraints
#	position from 1 to 44
#%endblock GeometryConstraints
BandLinesScale   pi/a
%block BandLines
 1   0.00000000  0.00000000  0.00000000
50   0.00000000  0.07809418  0.00000000
50   0.04509075  0.07809242  0.00000000
20   0.00000000  0.00000000  0.00000000
%endblock BandLines
************************** End of input data file *****************************

reinit: -----------------------------------------------------------------------
reinit: System Name: GRP_doping
reinit: -----------------------------------------------------------------------
reinit: System Label: GRP_doping                                                  
reinit: -----------------------------------------------------------------------

initatom: Reading input for the pseudopotentials and atomic orbitals ----------
 Species number:            1  Label: N Atomic number:           7
 Species number:            2  Label: C Atomic number:           6
Ground state valence configuration:   2s02  2p03
Reading pseudopotential information in formatted form from N.psf

Valence configuration for pseudopotential generation:
2s( 2.00) rc: 1.48
2p( 3.00) rc: 1.48
3d( 0.00) rc: 1.48
4f( 0.00) rc: 1.48
Ground state valence configuration:   2s02  2p02
Reading pseudopotential information in formatted form from C.psf

Valence configuration for pseudopotential generation:
2s( 2.00) rc: 1.54
2p( 2.00) rc: 1.54
3d( 0.00) rc: 1.54
4f( 0.00) rc: 1.54
For N, standard SIESTA heuristics set lmxkb to 3
 (one more than the basis l, including polarization orbitals).
Use PS.lmax or PS.KBprojectors blocks to override.
For C, standard SIESTA heuristics set lmxkb to 3
 (one more than the basis l, including polarization orbitals).
Use PS.lmax or PS.KBprojectors blocks to override.

<basis_specs>
===============================================================================
N                    Z=   7    Mass=  14.010        Charge= 0.17977+309
Lmxo=1 Lmxkb= 3    BasisType=split      Semic=F
L=0  Nsemic=0  Cnfigmx=2
          n=1  nzeta=2  polorb=0
            splnorm:   0.15000    
               vcte:    0.0000    
               rinn:    0.0000    
                rcs:    0.0000      0.0000    
            lambdas:    1.0000      1.0000    
L=1  Nsemic=0  Cnfigmx=2
          n=1  nzeta=2  polorb=1
            splnorm:   0.15000    
               vcte:    0.0000    
               rinn:    0.0000    
                rcs:    0.0000      0.0000    
            lambdas:    1.0000      1.0000    
-------------------------------------------------------------------------------
L=0  Nkbl=1  erefs: 0.17977+309
L=1  Nkbl=1  erefs: 0.17977+309
L=2  Nkbl=1  erefs: 0.17977+309
L=3  Nkbl=1  erefs: 0.17977+309
===============================================================================
</basis_specs>

atom: Called for N                     (Z =   7)

read_vps: Pseudopotential generation method:
read_vps: ATM3      Troullier-Martins                       
Total valence charge:    5.00000

read_vps: Pseudopotential includes a core correction:
read_vps: Pseudo-core for xc-correction

xc_check: Exchange-correlation functional:
xc_check: GGA Perdew, Burke & Ernzerhof 1996
V l=0 = -2*Zval/r beyond r=  1.4606
V l=1 = -2*Zval/r beyond r=  1.4606
V l=2 = -2*Zval/r beyond r=  1.4606
V l=3 = -2*Zval/r beyond r=  1.4606
All V_l potentials equal beyond r=  1.4606
This should be close to max(r_c) in ps generation
All pots = -2*Zval/r beyond r=  1.4606

VLOCAL1: 99.0% of the norm of Vloc inside     20.347 Ry
VLOCAL1: 99.9% of the norm of Vloc inside     46.372 Ry
atom: Maximum radius for 4*pi*r*r*local-pseudopot. charge    1.76189
atom: Maximum radius for r*vlocal+2*Zval:    1.53550
GHOST: No ghost state for L =  0
GHOST: No ghost state for L =  1
GHOST: No ghost state for L =  2
GHOST: No ghost state for L =  3

KBgen: Kleinman-Bylander projectors: 
   l= 0   rc=  1.634559   el= -1.363963   Ekb=  5.296955   kbcos=  0.335621
   l= 1   rc=  1.614250   el= -0.521451   Ekb= -5.259161   kbcos= -0.433408
   l= 2   rc=  1.718383   el=  0.001991   Ekb= -1.271464   kbcos= -0.007566
   l= 3   rc=  1.761893   el=  0.003093   Ekb= -0.494769   kbcos= -0.001015

KBgen: Total number of  Kleinman-Bylander projectors:   16
atom: -------------------------------------------------------------------------

atom: SANKEY-TYPE ORBITALS:
atom: Selected multiple-zeta basis: split     

SPLIT: Orbitals with angular momentum L= 0

SPLIT: Basis orbitals for state 2s

SPLIT: PAO cut-off radius determined from an
SPLIT: energy shift=  0.007350 Ry

   izeta = 1
                 lambda =    1.000000
                     rc =    4.071465
                 energy =   -1.356470
                kinetic =    1.176977
    potential(screened) =   -2.533447
       potential(ionic) =   -8.057990

   izeta = 2
                 rmatch =    2.905100
              splitnorm =    0.150000
                 energy =   -1.158343
                kinetic =    1.813009
    potential(screened) =   -2.971352
       potential(ionic) =   -8.901931

SPLIT: Orbitals with angular momentum L= 1

SPLIT: Basis orbitals for state 2p

SPLIT: PAO cut-off radius determined from an
SPLIT: energy shift=  0.007350 Ry

   izeta = 1
                 lambda =    1.000000
                     rc =    4.972977
                 energy =   -0.513884
                kinetic =    3.441732
    potential(screened) =   -3.955616
       potential(ionic) =   -9.287901

   izeta = 2
                 rmatch =    3.054066
              splitnorm =    0.150000
                 energy =   -0.318226
                kinetic =    5.125348
    potential(screened) =   -5.443573
       potential(ionic) =  -11.380999

POLgen: Perturbative polarization orbital with L=  2

POLgen: Polarization orbital for state 2p

   izeta = 1
                     rc =    4.972977
                 energy =    1.607437
                kinetic =    3.268125
    potential(screened) =   -1.660688
       potential(ionic) =   -5.973652
atom: Total number of Sankey-type orbitals: 13

atm_pop: Valence configuration (for local Pseudopot. screening):
 2s( 2.00)                                                            
 2p( 3.00)                                                            
Vna: chval, zval:    5.00000   5.00000

Vna:  Cut-off radius for the neutral-atom potential:   4.972977
comcore: Pseudo-core radius Rcore=  1.554824

atom: _________________________________________________________________________

<basis_specs>
===============================================================================
C                    Z=   6    Mass=  12.010        Charge= 0.17977+309
Lmxo=1 Lmxkb= 3    BasisType=split      Semic=F
L=0  Nsemic=0  Cnfigmx=2
          n=1  nzeta=2  polorb=0
            splnorm:   0.15000    
               vcte:    0.0000    
               rinn:    0.0000    
                rcs:    0.0000      0.0000    
            lambdas:    1.0000      1.0000    
L=1  Nsemic=0  Cnfigmx=2
          n=1  nzeta=2  polorb=1
            splnorm:   0.15000    
               vcte:    0.0000    
               rinn:    0.0000    
                rcs:    0.0000      0.0000    
            lambdas:    1.0000      1.0000    
-------------------------------------------------------------------------------
L=0  Nkbl=1  erefs: 0.17977+309
L=1  Nkbl=1  erefs: 0.17977+309
L=2  Nkbl=1  erefs: 0.17977+309
L=3  Nkbl=1  erefs: 0.17977+309
===============================================================================
</basis_specs>

atom: Called for C                     (Z =   6)

read_vps: Pseudopotential generation method:
read_vps: ATM3      Troullier-Martins                       
Total valence charge:    4.00000

read_vps: Pseudopotential includes a core correction:
read_vps: Pseudo-core for xc-correction

xc_check: Exchange-correlation functional:
xc_check: GGA Perdew, Burke & Ernzerhof 1996
V l=0 = -2*Zval/r beyond r=  1.5227
V l=1 = -2*Zval/r beyond r=  1.5227
V l=2 = -2*Zval/r beyond r=  1.5227
V l=3 = -2*Zval/r beyond r=  1.5038
All V_l potentials equal beyond r=  1.5227
This should be close to max(r_c) in ps generation
All pots = -2*Zval/r beyond r=  1.5227

VLOCAL1: 99.0% of the norm of Vloc inside     18.722 Ry
VLOCAL1: 99.9% of the norm of Vloc inside     42.668 Ry
atom: Maximum radius for 4*pi*r*r*local-pseudopot. charge    1.83678
atom: Maximum radius for r*vlocal+2*Zval:    1.58088
GHOST: No ghost state for L =  0
GHOST: No ghost state for L =  1
GHOST: No ghost state for L =  2
GHOST: No ghost state for L =  3

KBgen: Kleinman-Bylander projectors: 
   l= 0   rc=  1.704034   el= -1.009801   Ekb=  5.335044   kbcos=  0.316824
   l= 1   rc=  1.704034   el= -0.388707   Ekb= -3.785862   kbcos= -0.366464
   l= 2   rc=  1.791422   el=  0.001971   Ekb= -0.970471   kbcos= -0.009212
   l= 3   rc=  1.859892   el=  0.003065   Ekb= -0.399525   kbcos= -0.001223

KBgen: Total number of  Kleinman-Bylander projectors:   16
atom: -------------------------------------------------------------------------

atom: SANKEY-TYPE ORBITALS:
atom: Selected multiple-zeta basis: split     

SPLIT: Orbitals with angular momentum L= 0

SPLIT: Basis orbitals for state 2s

SPLIT: PAO cut-off radius determined from an
SPLIT: energy shift=  0.007350 Ry

   izeta = 1
                 lambda =    1.000000
                     rc =    4.632753
                 energy =   -1.002270
                kinetic =    0.855760
    potential(screened) =   -1.858031
       potential(ionic) =   -5.417575

   izeta = 2
                 rmatch =    3.431921
              splitnorm =    0.150000
                 energy =   -0.867111
                kinetic =    1.300804
    potential(screened) =   -2.167915
       potential(ionic) =   -5.962684

SPLIT: Orbitals with angular momentum L= 1

SPLIT: Basis orbitals for state 2p

SPLIT: PAO cut-off radius determined from an
SPLIT: energy shift=  0.007350 Ry

   izeta = 1
                 lambda =    1.000000
                     rc =    5.658549
                 energy =   -0.381140
                kinetic =    2.399701
    potential(screened) =   -2.780841
       potential(ionic) =   -6.206085

   izeta = 2
                 rmatch =    3.653288
              splitnorm =    0.150000
                 energy =   -0.249149
                kinetic =    3.542762
    potential(screened) =   -3.791911
       potential(ionic) =   -7.581078

POLgen: Perturbative polarization orbital with L=  2

POLgen: Polarization orbital for state 2p

   izeta = 1
                     rc =    5.658549
                 energy =    1.109913
                kinetic =    2.304789
    potential(screened) =   -1.194876
       potential(ionic) =   -4.013592
atom: Total number of Sankey-type orbitals: 13

atm_pop: Valence configuration (for local Pseudopot. screening):
 2s( 2.00)                                                            
 2p( 2.00)                                                            
Vna: chval, zval:    4.00000   4.00000

Vna:  Cut-off radius for the neutral-atom potential:   5.658549
comcore: Pseudo-core radius Rcore=  1.791422

atom: _________________________________________________________________________

prinput: Basis input ----------------------------------------------------------

PAO.BasisType split     

%block ChemicalSpeciesLabel
    1    7 N                       # Species index, atomic number, species label
    2    6 C                       # Species index, atomic number, species label
%endblock ChemicalSpeciesLabel

%block PAO.Basis                 # Define Basis set
N                     2                    # Species label, number of l-shells
 n=2   0   2                         # n, l, Nzeta 
   4.071      2.905   
   1.000      1.000   
 n=2   1   2 P   1                   # n, l, Nzeta, Polarization, NzetaPol
   4.973      3.054   
   1.000      1.000   
C                     2                    # Species label, number of l-shells
 n=2   0   2                         # n, l, Nzeta 
   4.633      3.432   
   1.000      1.000   
 n=2   1   2 P   1                   # n, l, Nzeta, Polarization, NzetaPol
   5.659      3.653   
   1.000      1.000   
%endblock PAO.Basis

prinput: ----------------------------------------------------------------------

coor:   Atomic-coordinates input format  =     Fractional

siesta: Atomic coordinates (Bohr) and species
siesta:      2.30256   9.31683   0.00000  1        1
siesta:     -0.02582  10.66124   0.00000  1        2
siesta:     -0.02582  13.34970   0.00000  1        3
siesta:      2.30256  14.69411   0.00000  1        4
siesta:      2.30256  17.38257   0.00000  1        5
siesta:      4.63094  18.72698   0.00000  1        6
siesta:     -2.35420  14.69411   0.00000  1        7
siesta:     -2.35420  17.38257   0.00000  1        8
siesta:     -0.02582  18.72698   0.00000  1        9
siesta:     -0.02582  21.41544   0.00000  1       10
siesta:     -4.68258  18.72698   0.00000  1       11
siesta:     -4.68258  21.41544   0.00000  1       12
siesta:     -2.35420  22.75985   0.00000  1       13
siesta:     -2.35420  25.44831   0.00000  1       14
siesta:     -7.01096  22.75985   0.00000  1       15
siesta:     -7.01096  25.44831   0.00000  1       16
siesta:     -0.02582  26.79272   0.00000  1       17
siesta:     -4.68258  26.79272   0.00000  1       18
siesta:     -4.68258  29.48119   0.00000  1       19
siesta:     -7.01096  30.82560   0.00000  1       20
siesta:     -7.01096  33.51406   0.00000  1       21
siesta:     -0.02582   2.59549   0.00000  2       22
siesta:     -0.02582   5.28395   0.00000  2       23
siesta:     -2.35420  38.89134   0.00000  2       24
siesta:     -2.35420  41.57980   0.00000  2       25
siesta:      2.30256  38.89134   0.00000  2       26
siesta:      2.30256  41.57980   0.00000  2       27
siesta:      4.63094  34.85847   0.00000  2       28
siesta:      4.63094  37.54693   0.00000  2       29
siesta:      6.95932  30.82560   0.00000  2       30
siesta:      6.95932  33.51406   0.00000  2       31
siesta:      9.28770  26.79272   0.00000  2       32
siesta:      9.28770  29.48119   0.00000  2       33
siesta:     -4.68258  34.85847   0.00000  2       34
siesta:     -4.68258  37.54693   0.00000  2       35
siesta:      2.30256   6.62836   0.00000  2       36
siesta:      4.63094  10.66124   0.00000  2       37
siesta:      4.63094  13.34970   0.00000  2       38
siesta:      6.95932  14.69411   0.00000  2       39
siesta:      6.95932  17.38257   0.00000  2       40
siesta:      9.28770  18.72698   0.00000  2       41
siesta:      9.28770  21.41544   0.00000  2       42
siesta:     11.61608  22.75985   0.00000  2       43
siesta:     11.61608  25.44831   0.00000  2       44
siesta:     -2.35420   6.62836   0.00000  2       45
siesta:     -2.35420   9.31683   0.00000  2       46
siesta:      4.63094  21.41544   0.00000  2       47
siesta:      6.95932  22.75985   0.00000  2       48
siesta:      6.95932  25.44831   0.00000  2       49
siesta:     -4.68258  10.66124   0.00000  2       50
siesta:     -4.68258  13.34970   0.00000  2       51
siesta:      2.30256  22.75985   0.00000  2       52
siesta:      2.30256  25.44831   0.00000  2       53
siesta:     -7.01096  14.69411   0.00000  2       54
siesta:     -7.01096  17.38257   0.00000  2       55
siesta:     -9.33934  18.72698   0.00000  2       56
siesta:     -9.33934  21.41544   0.00000  2       57
siesta:    -11.66772  22.75985   0.00000  2       58
siesta:    -11.66772  25.44831   0.00000  2       59
siesta:     -9.33934  26.79272   0.00000  2       60
siesta:     -9.33934  29.48119   0.00000  2       61
siesta:      4.63094  26.79272   0.00000  2       62
siesta:      4.63094  29.48119   0.00000  2       63
siesta:     -0.02582  29.48119   0.00000  2       64
siesta:      2.30256  30.82560   0.00000  2       65
siesta:      2.30256  33.51406   0.00000  2       66
siesta:     -2.35420  30.82560   0.00000  2       67
siesta:     -2.35420  33.51406   0.00000  2       68
siesta:     -0.02582  34.85847   0.00000  2       69
siesta:     -0.02582  37.54693   0.00000  2       70
siesta:     -0.02582  42.92421   0.00000  2       71
siesta:     -0.02582  45.61267   0.00000  2       72

siesta: System type = slab      

initatomlists: Number of atoms, orbitals, and projectors:     72   936  1152

siesta: ******************** Simulation parameters ****************************
siesta:
siesta: The following are some of the parameters of the simulation.
siesta: A complete list of the parameters used, including default values,
siesta: can be found in file out.fdf
siesta:
redata: Non-Collinear-spin run           =     F
redata: SpinPolarized (Up/Down) run      =     F
redata: Number of spin components        =     1
redata: Long output                      =     F
redata: Number of Atomic Species         =        2
redata: Charge density info will appear in .RHO file
redata: Write Mulliken Pop.              =     NO
redata: Mesh Cutoff                      =   200.0000  Ry
redata: Net charge of the system         =     0.0000 |e|
redata: Max. number of SCF Iter          =      500
redata: SCF convergence failure will abort job
redata: Performing Pulay mixing using    =    10 iterations
redata: Mix DM in first SCF step ?       =     F
redata: Write Pulay info on disk?        =     F
redata: Discard 1st Pulay DM after  kick =     F
redata: New DM Mixing Weight             =     0.0500
redata: New DM Occupancy tolerance       = 0.000000000001
redata: No kicks to SCF
redata: DM Mixing Weight for Kicks       =     0.5000
redata: DM Tolerance for SCF             =     0.000100
redata: Require Energy convergence for SCF =     F
redata: DM Energy tolerance for SCF      =     0.000100 eV
redata: Require Harris convergence for SCF =     F
redata: DM Harris energy tolerance for SCF =     0.000100 eV
redata: Using Saved Data (generic)   =     F
redata: Use continuation files for DM    =     T
redata: Neglect nonoverlap interactions  =     F
redata: Method of Calculation            =     Diagonalization
redata: Divide and Conquer               =     T
redata: Electronic Temperature           =     0.0019  Ry
redata: Fix the spin of the system       =     F
redata: Dynamics option                  =     Verlet MD run
redata: Initial MD time step             =        1
redata:   Final MD time step             =        1
redata: Length of MD time step           =     1.0000  fs
redata: Initial Temperature of MD run    =     0.0000  K
redata: Perform a MD quench              =     F
redata: ***********************************************************************
Total number of electrons:   309.000000
Total ionic charge:   309.000000

* ProcessorY, Blocksize:    3  24

k-point displ. along   1 input, could be:     0.50    0.00
k-point displ. along   2 input, could be:     0.50    0.00
 Kpoints in:          231 . Kpoints trimmed:          231

siesta: k-grid: Number of k-points =   231
siesta: k-grid: Cutoff (effective) =     5.000 Ang
siesta: k-grid: Supercell and displacements
siesta: k-grid:   21   0   0      0.500
siesta: k-grid:    0  21   0      0.500
siesta: k-grid:    0   0   1      0.000
Naive supercell factors:     2    2    2

superc: Internal auxiliary supercell:     2 x     2 x     2  =       8
superc: Number of atoms, orbitals, and projectors:    576   7488   9216

* Maximum dynamic memory allocated =     4 MB

siesta:                 ==============================
                            Begin MD step =      1
                        ==============================

superc: Internal auxiliary supercell:     2 x     2 x     2  =       8
superc: Number of atoms, orbitals, and projectors:    576   7488   9216

outcell: Unit cell vectors (Ang):
       12.804619    7.392750    0.000000
        0.000000   14.785500    0.000000
        0.000000    0.000000   10.000000

outcell: Cell vector modules (Ang)   :   14.785500   14.785500   10.000000
outcell: Cell angles (23,13,12) (deg):     90.0000     90.0000     60.0000
outcell: Cell volume (Ang**3)        :   1893.2269
New_DM. Step:     1
Initializing Density Matrix...

InitMesh: MESH =   120 x   120 x    90 =     1296000
InitMesh: Mesh cutoff (required, used) =   200.000   223.865 Ry

* Maximum dynamic memory allocated =   133 MB

stepf: Fermi-Dirac step function

siesta: Program's energy decomposition (eV):
siesta: Ebs     =     -6278.216479
siesta: Eions   =     21778.694799
siesta: Ena     =      4942.339224
siesta: Ekin    =      8140.553599
siesta: Enl     =        23.515753
siesta: DEna    =        -0.000015
siesta: DUscf   =         0.000000
siesta: DUext   =         0.000000
siesta: Exc     =     -4696.224971
siesta: eta*DQ  =         0.000000
siesta: Emadel  =         0.000000
siesta: Emeta   =         0.000000
siesta: Emolmec =         0.000000
siesta: Ekinion =         0.000000
siesta: Eharris =    -12998.462037
siesta: Etot    =    -13368.511208
siesta: FreeEng =    -13368.511208

siesta: iscf   Eharris(eV)      E_KS(eV)   FreeEng(eV)   dDmax  Ef(eV)
siesta:    1   -12998.4620   -13368.5112   -13368.5112  5.1922 -6.7671
timer: Routine,Calls,Time,% = IterSCF        1    3006.384  99.59
elaps: Routine,Calls,Wall,% = IterSCF        1     251.130  99.59
siesta:    2   -18242.2506   -12278.9398   -12278.9802 18.6212 -5.2158
siesta:    3   -12897.4315   -13207.1623   -13207.2038  2.7588 -5.4268
siesta:    4   -12871.1153   -13022.4357   -13022.5084  1.1644 -4.4515
siesta:    5   -12838.4301   -12924.6308   -12924.6776  0.8746 -3.7177
siesta:    6   -12833.5829   -12907.3083   -12907.3579  0.9166 -3.6841
siesta:    7   -12826.9013   -12891.5843   -12891.6322  0.8409 -3.8229
siesta:    8   -12824.9784   -12879.1976   -12879.2409  0.7682 -3.8288
siesta:    9   -12824.0679   -12867.8326   -12867.8794  0.6593 -3.7808
siesta:   10   -12823.5221   -12833.0215   -12833.0610  0.4260 -3.8166
siesta:   11   -12823.9317   -12816.5780   -12816.5995  0.3241 -3.7700
siesta:   12   -12823.1551   -12810.3930   -12810.4410  0.2305 -3.7486
siesta:   13   -12822.8823   -12807.2214   -12807.2641  0.1956 -3.7175
siesta:   14   -12822.6959   -12808.7804   -12808.8374  0.1083 -3.7485
siesta:   15   -12822.5577   -12809.6231   -12809.6821  0.0916 -3.7747
siesta:   16   -12822.4574   -12811.6527   -12811.7095  0.0726 -3.7731
siesta:   17   -12822.4202   -12812.3451   -12812.3999  0.0460 -3.7802
siesta:   18   -12822.4098   -12813.4604   -12813.5151  0.0375 -3.7789
siesta:   19   -12822.4048   -12815.6393   -12815.6935  0.0265 -3.7730
siesta:   20   -12822.4034   -12818.8599   -12818.9155  0.0109 -3.7767
siesta:   21   -12822.4000   -12820.5818   -12820.6368  0.0085 -3.7803
siesta:   22   -12822.3985   -12821.0706   -12821.1252  0.0073 -3.7774
siesta:   23   -12822.3983   -12821.1736   -12821.2282  0.0078 -3.7776
siesta:   24   -12822.3982   -12821.5207   -12821.5751  0.0066 -3.7772
siesta:   25   -12822.3981   -12821.9601   -12822.0145  0.0028 -3.7767
siesta:   26   -12822.3979   -12822.2195   -12822.2740  0.0012 -3.7757
siesta:   27   -12822.3978   -12822.3766   -12822.4311  0.0014 -3.7750
siesta:   28   -12822.3978   -12822.3690   -12822.4236  0.0008 -3.7751
siesta:   29   -12822.3978   -12822.3861   -12822.4406  0.0006 -3.7750
siesta:   30   -12822.3978   -12822.3938   -12822.4484  0.0006 -3.7752
siesta:   31   -12822.3978   -12822.3869   -12822.4414  0.0002 -3.7752
siesta:   32   -12822.3978   -12822.3919   -12822.4465  0.0001 -3.7753
siesta:   33   -12822.3978   -12822.3894   -12822.4440  0.0001 -3.7754

siesta: E_KS(eV) =           -12822.3917

siesta: E_KS - E_eggbox =    -12822.3917

siesta: Atomic forces (eV/Ang):
----------------------------------------
   Tot   -0.215082   -0.023805    0.000000
----------------------------------------
   Max  691.749509
   Res  176.396952    sqrt( Sum f_i^2 / 3N )
----------------------------------------
   Max  691.749509    constrained

Stress-tensor-Voigt (kbar):     -667.89    -3170.33       -0.08        8.43        0.00        0.00
(Free)E + p*V (eV/cell)   -11310.6101
Target enthalpy (eV/cell)   -12822.4462

siesta: Stress tensor (static) (eV/Ang**3):
        -0.416858    0.005264    0.000000
         0.005264   -1.978744    0.000000
         0.000000    0.000000   -0.000048

siesta: Pressure (static):       1279.43179100  kBar

siesta: Stress tensor (total) (eV/Ang**3):
        -0.416858    0.005264    0.000000
         0.005264   -1.978744    0.000000
         0.000000    0.000000   -0.000048

siesta: Pressure (total):       1279.43179100  kBar

siesta: Temp_ion =       0.000 K

* Maximum dynamic memory allocated =   145 MB
Computing bands...

siesta: Program's energy decomposition (eV):
siesta: Ebs     =     -5045.220138
siesta: Eions   =     21778.694799
siesta: Ena     =      4942.339224
siesta: Ekin    =     11240.380404
siesta: Enl     =     -1667.213729
siesta: DEna    =      -798.861483
siesta: DUscf   =       111.552789
siesta: DUext   =         0.000000
siesta: Exc     =     -4871.894103
siesta: eta*DQ  =         0.000000
siesta: Emadel  =         0.000000
siesta: Emeta   =         0.000000
siesta: Emolmec =         0.000000
siesta: Ekinion =         0.000000
siesta: Eharris =    -12822.397822
siesta: Etot    =    -12822.391697
siesta: FreeEng =    -12822.446237

siesta: Final energy (eV):
siesta:  Band Struct. =   -5045.220138
siesta:       Kinetic =   11240.380404
siesta:       Hartree =   36589.691568
siesta:    Ext. field =       0.000000
siesta:   Exch.-corr. =   -4871.894103
siesta:  Ion-electron =  -83922.679184
siesta:       Ion-ion =   28142.109617
siesta:       Ekinion =       0.000000
siesta:         Total =  -12822.391697

siesta: Atomic forces (eV/Ang):
siesta:      1   -5.030527 -118.065868    0.000000
siesta:      2   -1.854218  658.927401    0.000000
siesta:      3   -0.119219 -105.856499    0.000000
siesta:      4   12.874841  674.881289    0.000000
siesta:      5   32.081356  -10.912550    0.000000
siesta:      6    1.127448    4.419686    0.000000
siesta:      7  -11.701874  674.532002    0.000000
siesta:      8  -32.163126  -11.389129    0.000000
siesta:      9    2.726941  691.749509    0.000000
siesta:     10    1.512999   -6.186227    0.000000
siesta:     11   -1.496016    1.765374    0.000000
siesta:     12   -0.779766    1.528002    0.000000
siesta:     13   -1.957522    0.825479    0.000000
siesta:     14   -1.271224    0.490970    0.000000
siesta:     15    1.175100    0.996422    0.000000
siesta:     16    1.058538   -1.505920    0.000000
siesta:     17    0.867695    1.953618    0.000000
siesta:     18   -1.205025   -1.196762    0.000000
siesta:     19    2.208969   -0.140632    0.000000
siesta:     20   -2.739131    0.649185    0.000000
siesta:     21    2.989763   -2.162879    0.000000
siesta:     22    2.482481  544.833657    0.000000
siesta:     23   -1.830692 -126.343504    0.000000
siesta:     24    2.483437  117.631940    0.000000
siesta:     25   -9.180330 -656.829465    0.000000
siesta:     26    1.618645  116.827811    0.000000
siesta:     27    8.292396 -658.139562    0.000000
siesta:     28   28.994794    1.994636    0.000000
siesta:     29   27.476432 -550.490605    0.000000
siesta:     30    1.920724   -0.103419    0.000000
siesta:     31   -3.253609    1.717275    0.000000
siesta:     32    1.960917    2.620608    0.000000
siesta:     33   -1.273622   -0.150516    0.000000
siesta:     34  -24.813378    7.584998    0.000000
siesta:     35  -35.756879 -553.815454    0.000000
siesta:     36    1.379311  540.725608    0.000000
siesta:     37   28.907947  550.255648    0.000000
siesta:     38   28.032920   -8.115943    0.000000
siesta:     39   -2.479269   -0.812847    0.000000
siesta:     40    1.740789   -0.192166    0.000000
siesta:     41   -1.778148   -0.273343    0.000000
siesta:     42    1.999792   -2.552635    0.000000
siesta:     43   -0.202632    7.379859    0.000000
siesta:     44   -0.251293   -7.545974    0.000000
siesta:     45  -15.851344  546.816788    0.000000
siesta:     46    0.873401 -126.577507    0.000000
siesta:     47   -0.376730   -1.621997    0.000000
siesta:     48   -0.339091    0.753224    0.000000
siesta:     49   -0.431556   -0.922936    0.000000
siesta:     50  -27.936285  550.172525    0.000000
siesta:     51  -27.238235   -9.120306    0.000000
siesta:     52   -0.587727    0.791547    0.000000
siesta:     53   -0.357162   -1.129637    0.000000
siesta:     54    2.350863    0.045397    0.000000
siesta:     55   -1.484597   -0.854301    0.000000
siesta:     56    1.076727    0.666658    0.000000
siesta:     57   -2.240460   -2.488235    0.000000
siesta:     58    0.894268    4.968491    0.000000
siesta:     59    0.886112   -4.568096    0.000000
siesta:     60   -1.453429    2.594616    0.000000
siesta:     61    1.491671    0.952057    0.000000
siesta:     62   -0.159355    0.525713    0.000000
siesta:     63   -1.175146   -2.449165    0.000000
siesta:     64   -1.417902 -567.500271    0.000000
siesta:     65   22.439369    5.953113    0.000000
siesta:     66   30.887152 -558.460368    0.000000
siesta:     67  -23.114123    7.250491    0.000000
siesta:     68  -20.284211 -561.156682    0.000000
siesta:     69    2.148340  123.389985    0.000000
siesta:     70    7.836253 -668.387579    0.000000
siesta:     71   -0.563189  117.403423    0.000000
siesta:     72   -0.865429 -638.579829    0.000000
siesta: ----------------------------------------
siesta:    Tot   -0.215082   -0.023805    0.000000

siesta: Stress tensor (static) (eV/Ang**3):
siesta:    -0.416858    0.005264    0.000000
siesta:     0.005264   -1.978744    0.000000
siesta:     0.000000    0.000000   -0.000048

siesta: Cell volume =       1893.226884 Ang**3

siesta: Pressure (static):
siesta:                Solid            Molecule  Units
siesta:           0.00869723          0.13935819  Ry/Bohr**3
siesta:           0.79854988         12.79539495  eV/Ang**3
siesta:        1279.43179100      20500.70440006  kBar
(Free)E+ p_basis*V_orbitals  =      -12794.710855
(Free)Eharris+ p_basis*V_orbitals  =      -12794.719242

siesta: Electric dipole (a.u.)  =    0.000000    0.000000    0.000000
siesta: Electric dipole (Debye) =    0.000000    0.000000    0.000000

* Maximum dynamic memory allocated : Node    0 =   145 MB
* Maximum dynamic memory allocated : Node    1 =    58 MB
* Maximum dynamic memory allocated : Node    2 =    59 MB
* Maximum dynamic memory allocated : Node    3 =   133 MB
* Maximum dynamic memory allocated : Node    4 =   141 MB
* Maximum dynamic memory allocated : Node    5 =    52 MB
* Maximum dynamic memory allocated : Node    6 =    53 MB
* Maximum dynamic memory allocated : Node    7 =   133 MB
* Maximum dynamic memory allocated : Node    8 =   125 MB
* Maximum dynamic memory allocated : Node    9 =    51 MB
* Maximum dynamic memory allocated : Node   10 =    52 MB
* Maximum dynamic memory allocated : Node   11 =   119 MB

* Maximum memory occured during matrixMtoO                    

timer: CPU execution times:
timer:  Routine       Calls   Time/call    Tot.time        %
timer:  siesta            1   97452.387   97452.387   100.00
timer:  Setup             1       3.399       3.399     0.00
timer:  bands             3     226.844     680.533     0.70
timer:  writewave         1       0.024       0.024     0.00
timer:  KSV_init          1       0.002       0.002     0.00
timer:  IterMD            1   96761.367   96761.367    99.29
timer:  hsparse           1       0.164       0.164     0.00
timer:  overlap           1       8.295       8.295     0.01
timer:  IterSCF          33    2928.612   96644.207    99.17
timer:  kinefsm           2       4.188       8.377     0.01
timer:  nlefsm            2      18.018      36.037     0.04
timer:  DHSCF            34      57.253    1946.606     2.00
timer:  DHSCF1            1       0.900       0.900     0.00
timer:  DHSCF2            1      23.931      23.931     0.02
timer:  REORD           274       0.002       0.592     0.00
timer:  POISON           35       0.450      15.765     0.02
timer:  DHSCF3           34      55.926    1901.501     1.95
timer:  rhoofd           34      11.646     395.974     0.41
timer:  cellXC           34       2.434      82.768     0.08
timer:  vmat             34      26.243     892.265     0.92
timer:  MolMec            2       0.000       0.000     0.00
timer:  diagon           33    2870.020   94710.644    97.19
timer:  c-eigval       7744       5.599   43356.058    44.49
timer:  c-buildHS      7744       0.032     249.215     0.26
timer:  cdiag         15367       5.709   87731.467    90.02
timer:  cdiag1        15367       0.260    4001.668     4.11
timer:  cdiag2        15367       1.835   28201.163    28.94
timer:  cdiag3        15367       3.394   52160.352    53.52
timer:  cdiag4        15367       0.088    1355.858     1.39
timer:  c-eigvec       7623       5.881   44831.960    46.00
timer:  c-buildD       7623       0.939    7161.191     7.35
timer:  DHSCF4            1      20.014      20.014     0.02
timer:  dfscf             1      18.610      18.610     0.02
timer:  overfsm           1       0.278       0.278     0.00
timer:  optical           1       6.466       6.466     0.01
  

elaps: ELAPSED times:
elaps:  Routine       Calls   Time/call    Tot.time        %
elaps:  siesta            1    8140.097    8140.097   100.00
elaps:  Setup             1       0.284       0.284     0.00
elaps:  bands             3      18.964      56.893     0.70
elaps:  writewave         1       0.002       0.002     0.00
elaps:  KSV_init          1       0.000       0.000     0.00
elaps:  IterMD            1    8082.376    8082.376    99.29
elaps:  hsparse           1       0.018       0.018     0.00
elaps:  overlap           1       0.713       0.713     0.01
elaps:  IterSCF          33     244.624    8072.590    99.17
elaps:  kinefsm           2       0.366       0.733     0.01
elaps:  nlefsm            2       1.701       3.401     0.04
elaps:  DHSCF            34       4.834     164.370     2.02
elaps:  DHSCF1            1       0.077       0.077     0.00
elaps:  DHSCF2            1       1.998       1.998     0.02
elaps:  REORD           274       0.000       0.080     0.00
elaps:  POISON           35       0.038       1.326     0.02
elaps:  DHSCF3           34       4.672     158.840     1.95
elaps:  rhoofd           34       2.135      72.597     0.89
elaps:  cellXC           34       0.203       6.897     0.08
elaps:  vmat             34       2.192      74.544     0.92
elaps:  MolMec            2       0.000       0.000     0.00
elaps:  diagon           33     239.738    7911.360    97.19
elaps:  c-eigval       7744       0.468    3621.441    44.49
elaps:  c-buildHS      7744       0.004      27.934     0.34
elaps:  cdiag         15367       0.471    7238.160    88.92
elaps:  cdiag1        15367       0.021     326.314     4.01
elaps:  cdiag2        15367       0.153    2357.690    28.96
elaps:  cdiag3        15367       0.284    4362.744    53.60
elaps:  cdiag4        15367       0.007     108.964     1.34
elaps:  c-eigvec       7623       0.481    3668.253    45.06
elaps:  c-buildD       7623       0.088     674.425     8.29
elaps:  DHSCF4            1       3.410       3.410     0.04
elaps:  dfscf             1       3.223       3.223     0.04
elaps:  overfsm           1       0.033       0.033     0.00
elaps:  optical           1       0.000       0.000     0.00
  
>> End of run:  29-APR-2016   9:38:24
