Siesta Version:                                        siesta-3.2-pl-3
Architecture  : x86_64-unknown-linux-gnu--unknown
Compiler flags: mpiifort -g -O2 -fPIC -xSSE4.1 -fp-model source -shared-intel 
PARALLEL version

* Running on    8 nodes in parallel
>> Start of run:  29-APR-2016  23:25:16

                           ***********************       
                           *  WELCOME TO SIESTA  *       
                           ***********************       

reinit: Reading from standard input
************************** Dump of input data file ****************************
#(1) General system descriptors
SystemName            GRP_doping    # Descriptive name of the system
SystemLabel           GRP_doping    # Short name for naming files
%include STRUCT.fdf
%include KPT.fdf
%include BASIS.fdf
#%include TS.fdf # for transiesta calculation
#(4) DFT, Grid, SCF
XC.functional         GGA           # LDA or GGA (default = LDA)
XC.authors            PBE           # CA (Ceperley-Aldr) = PZ
                                    #    (Perdew-Zunger) - LDA - Default
                                    # PW92 (Perdew-Wang-92) - LDA
                                    # PBE (Perdew-Burke-Ernzerhof) - GGA
MeshCutoff            200.000000    Ry      # Default: 50.0 Ry ~ 0.444 Bohr
                                    #         100.0 Ry ~ 0.314 Bohr
MaxSCFIterations      500           # Default: 50
DM.MixingWeight       0.05          # Default: 0.25
DM.NumberPulay        10            # Default: 0
DM.PulayOnFile        F             # SystemLabel.P1, SystemLabel.P2
DM.Tolerance          1.d-4         # Default: 1.d-4
DM.UseSaveDM          .true.        # because of the bug
SCFMustConverge       .true.
NeglNonOverlapInt     F             # Default: F
#(5) Eigenvalue problem: order-N or diagonalization
SolutionMethod        Diagon        # or Transiesta
ElectronicTemperature 300.0 K       # Default: 300.0 K
#(6) Molecular dynamics and relaxations
#MD.TypeOfRun          CG            # Type of dynamics:
#MD.VariableCell       F
#MD.NumCGsteps         0           # 0 for single-point / 100 for gopt
#MD.MaxCGDispl         0.2 Bohr      # Default: 0.2 Bohr
#MD.MaxForceTol        0.02 eV/Ang   # Default: 0.04 eV/Ang
#MD.MaxStressTol       1.0 GPa       # Default: 1.0 GPa
# Geometry Constraints
#%block GeometryConstraints
#	position from 1 to 44
#%endblock GeometryConstraints
BandLinesScale   pi/a
%block BandLines
 1   0.00000000  0.00000000  0.00000000
50   0.00000000  0.07809418  0.00000000
50   0.04509075  0.07809242  0.00000000
20   0.00000000  0.00000000  0.00000000
%endblock BandLines
************************** End of input data file *****************************

reinit: -----------------------------------------------------------------------
reinit: System Name: GRP_doping
reinit: -----------------------------------------------------------------------
reinit: System Label: GRP_doping                                                  
reinit: -----------------------------------------------------------------------

initatom: Reading input for the pseudopotentials and atomic orbitals ----------
 Species number:            1  Label: B Atomic number:           5
 Species number:            2  Label: C Atomic number:           6
Ground state valence configuration:   2s02  2p01
Reading pseudopotential information in formatted form from B.psf

Valence configuration for pseudopotential generation:
2s( 2.00) rc: 1.74
2p( 1.00) rc: 1.74
3d( 0.00) rc: 1.74
4f( 0.00) rc: 1.74
Ground state valence configuration:   2s02  2p02
Reading pseudopotential information in formatted form from C.psf

Valence configuration for pseudopotential generation:
2s( 2.00) rc: 1.54
2p( 2.00) rc: 1.54
3d( 0.00) rc: 1.54
4f( 0.00) rc: 1.54
For B, standard SIESTA heuristics set lmxkb to 3
 (one more than the basis l, including polarization orbitals).
Use PS.lmax or PS.KBprojectors blocks to override.
For C, standard SIESTA heuristics set lmxkb to 3
 (one more than the basis l, including polarization orbitals).
Use PS.lmax or PS.KBprojectors blocks to override.

<basis_specs>
===============================================================================
B                    Z=   5    Mass=  10.810        Charge= 0.17977+309
Lmxo=1 Lmxkb= 3    BasisType=split      Semic=F
L=0  Nsemic=0  Cnfigmx=2
          n=1  nzeta=2  polorb=0
            splnorm:   0.15000    
               vcte:    0.0000    
               rinn:    0.0000    
                rcs:    0.0000      0.0000    
            lambdas:    1.0000      1.0000    
L=1  Nsemic=0  Cnfigmx=2
          n=1  nzeta=2  polorb=1
            splnorm:   0.15000    
               vcte:    0.0000    
               rinn:    0.0000    
                rcs:    0.0000      0.0000    
            lambdas:    1.0000      1.0000    
-------------------------------------------------------------------------------
L=0  Nkbl=1  erefs: 0.17977+309
L=1  Nkbl=1  erefs: 0.17977+309
L=2  Nkbl=1  erefs: 0.17977+309
L=3  Nkbl=1  erefs: 0.17977+309
===============================================================================
</basis_specs>

atom: Called for B                     (Z =   5)

read_vps: Pseudopotential generation method:
read_vps: ATM3      Troullier-Martins                       
Total valence charge:    3.00000

read_vps: Pseudopotential includes a core correction:
read_vps: Pseudo-core for xc-correction

xc_check: Exchange-correlation functional:
xc_check: GGA Perdew, Burke & Ernzerhof 1996
V l=0 = -2*Zval/r beyond r=  1.7165
V l=1 = -2*Zval/r beyond r=  1.7165
V l=2 = -2*Zval/r beyond r=  1.7165
V l=3 = -2*Zval/r beyond r=  1.6951
All V_l potentials equal beyond r=  1.7165
This should be close to max(r_c) in ps generation
All pots = -2*Zval/r beyond r=  1.7165

VLOCAL1: 99.0% of the norm of Vloc inside     14.733 Ry
VLOCAL1: 99.9% of the norm of Vloc inside     33.577 Ry
atom: Maximum radius for 4*pi*r*r*local-pseudopot. charge    2.04484
atom: Maximum radius for r*vlocal+2*Zval:    1.75994
GHOST: No ghost state for L =  0
GHOST: No ghost state for L =  1
GHOST: No ghost state for L =  2
GHOST: No ghost state for L =  3

KBgen: Kleinman-Bylander projectors: 
   l= 0   rc=  1.897051   el= -0.693730   Ekb=  4.595746   kbcos=  0.286105
   l= 1   rc=  1.920920   el= -0.265236   Ekb= -2.350715   kbcos= -0.315747
   l= 2   rc=  2.044840   el=  0.002055   Ekb= -0.690767   kbcos= -0.013822
   l= 3   rc=  2.149707   el=  0.003188   Ekb= -0.315358   kbcos= -0.002055

KBgen: Total number of  Kleinman-Bylander projectors:   16
atom: -------------------------------------------------------------------------

atom: SANKEY-TYPE ORBITALS:
atom: Selected multiple-zeta basis: split     

SPLIT: Orbitals with angular momentum L= 0

SPLIT: Basis orbitals for state 2s

SPLIT: PAO cut-off radius determined from an
SPLIT: energy shift=  0.007350 Ry

   izeta = 1
                 lambda =    1.000000
                     rc =    5.422032
                 energy =   -0.686029
                kinetic =    0.576707
    potential(screened) =   -1.262736
       potential(ionic) =   -3.271094

   izeta = 2
                 rmatch =    4.222573
              splitnorm =    0.150000
                 energy =   -0.602132
                kinetic =    0.858975
    potential(screened) =   -1.461107
       potential(ionic) =   -3.582536

SPLIT: Orbitals with angular momentum L= 1

SPLIT: Basis orbitals for state 2p

SPLIT: PAO cut-off radius determined from an
SPLIT: energy shift=  0.007350 Ry

   izeta = 1
                 lambda =    1.000000
                     rc =    6.790259
                 energy =   -0.258578
                kinetic =    1.481412
    potential(screened) =   -1.739989
       potential(ionic) =   -3.657461

   izeta = 2
                 rmatch =    4.608740
              splitnorm =    0.150000
                 energy =   -0.173757
                kinetic =    2.186690
    potential(screened) =   -2.360447
       potential(ionic) =   -4.464260

POLgen: Perturbative polarization orbital with L=  2

POLgen: Polarization orbital for state 2p

   izeta = 1
                     rc =    6.790259
                 energy =    0.684082
                kinetic =    1.471481
    potential(screened) =   -0.787399
       potential(ionic) =   -2.406985
atom: Total number of Sankey-type orbitals: 13

atm_pop: Valence configuration (for local Pseudopot. screening):
 2s( 2.00)                                                            
 2p( 1.00)                                                            
Vna: chval, zval:    3.00000   3.00000

Vna:  Cut-off radius for the neutral-atom potential:   6.790259
comcore: Pseudo-core radius Rcore=  2.122997

atom: _________________________________________________________________________

<basis_specs>
===============================================================================
C                    Z=   6    Mass=  12.010        Charge= 0.17977+309
Lmxo=1 Lmxkb= 3    BasisType=split      Semic=F
L=0  Nsemic=0  Cnfigmx=2
          n=1  nzeta=2  polorb=0
            splnorm:   0.15000    
               vcte:    0.0000    
               rinn:    0.0000    
                rcs:    0.0000      0.0000    
            lambdas:    1.0000      1.0000    
L=1  Nsemic=0  Cnfigmx=2
          n=1  nzeta=2  polorb=1
            splnorm:   0.15000    
               vcte:    0.0000    
               rinn:    0.0000    
                rcs:    0.0000      0.0000    
            lambdas:    1.0000      1.0000    
-------------------------------------------------------------------------------
L=0  Nkbl=1  erefs: 0.17977+309
L=1  Nkbl=1  erefs: 0.17977+309
L=2  Nkbl=1  erefs: 0.17977+309
L=3  Nkbl=1  erefs: 0.17977+309
===============================================================================
</basis_specs>

atom: Called for C                     (Z =   6)

read_vps: Pseudopotential generation method:
read_vps: ATM3      Troullier-Martins                       
Total valence charge:    4.00000

read_vps: Pseudopotential includes a core correction:
read_vps: Pseudo-core for xc-correction

xc_check: Exchange-correlation functional:
xc_check: GGA Perdew, Burke & Ernzerhof 1996
V l=0 = -2*Zval/r beyond r=  1.5227
V l=1 = -2*Zval/r beyond r=  1.5227
V l=2 = -2*Zval/r beyond r=  1.5227
V l=3 = -2*Zval/r beyond r=  1.5038
All V_l potentials equal beyond r=  1.5227
This should be close to max(r_c) in ps generation
All pots = -2*Zval/r beyond r=  1.5227

VLOCAL1: 99.0% of the norm of Vloc inside     18.722 Ry
VLOCAL1: 99.9% of the norm of Vloc inside     42.668 Ry
atom: Maximum radius for 4*pi*r*r*local-pseudopot. charge    1.83678
atom: Maximum radius for r*vlocal+2*Zval:    1.58088
GHOST: No ghost state for L =  0
GHOST: No ghost state for L =  1
GHOST: No ghost state for L =  2
GHOST: No ghost state for L =  3

KBgen: Kleinman-Bylander projectors: 
   l= 0   rc=  1.704034   el= -1.009801   Ekb=  5.335044   kbcos=  0.316824
   l= 1   rc=  1.704034   el= -0.388707   Ekb= -3.785862   kbcos= -0.366464
   l= 2   rc=  1.791422   el=  0.001971   Ekb= -0.970471   kbcos= -0.009212
   l= 3   rc=  1.859892   el=  0.003065   Ekb= -0.399525   kbcos= -0.001223

KBgen: Total number of  Kleinman-Bylander projectors:   16
atom: -------------------------------------------------------------------------

atom: SANKEY-TYPE ORBITALS:
atom: Selected multiple-zeta basis: split     

SPLIT: Orbitals with angular momentum L= 0

SPLIT: Basis orbitals for state 2s

SPLIT: PAO cut-off radius determined from an
SPLIT: energy shift=  0.007350 Ry

   izeta = 1
                 lambda =    1.000000
                     rc =    4.632753
                 energy =   -1.002270
                kinetic =    0.855760
    potential(screened) =   -1.858031
       potential(ionic) =   -5.417575

   izeta = 2
                 rmatch =    3.431921
              splitnorm =    0.150000
                 energy =   -0.867111
                kinetic =    1.300804
    potential(screened) =   -2.167915
       potential(ionic) =   -5.962684

SPLIT: Orbitals with angular momentum L= 1

SPLIT: Basis orbitals for state 2p

SPLIT: PAO cut-off radius determined from an
SPLIT: energy shift=  0.007350 Ry

   izeta = 1
                 lambda =    1.000000
                     rc =    5.658549
                 energy =   -0.381140
                kinetic =    2.399701
    potential(screened) =   -2.780841
       potential(ionic) =   -6.206085

   izeta = 2
                 rmatch =    3.653288
              splitnorm =    0.150000
                 energy =   -0.249149
                kinetic =    3.542762
    potential(screened) =   -3.791911
       potential(ionic) =   -7.581078

POLgen: Perturbative polarization orbital with L=  2

POLgen: Polarization orbital for state 2p

   izeta = 1
                     rc =    5.658549
                 energy =    1.109913
                kinetic =    2.304789
    potential(screened) =   -1.194876
       potential(ionic) =   -4.013592
atom: Total number of Sankey-type orbitals: 13

atm_pop: Valence configuration (for local Pseudopot. screening):
 2s( 2.00)                                                            
 2p( 2.00)                                                            
Vna: chval, zval:    4.00000   4.00000

Vna:  Cut-off radius for the neutral-atom potential:   5.658549
comcore: Pseudo-core radius Rcore=  1.791422

atom: _________________________________________________________________________

prinput: Basis input ----------------------------------------------------------

PAO.BasisType split     

%block ChemicalSpeciesLabel
    1    5 B                       # Species index, atomic number, species label
    2    6 C                       # Species index, atomic number, species label
%endblock ChemicalSpeciesLabel

%block PAO.Basis                 # Define Basis set
B                     2                    # Species label, number of l-shells
 n=2   0   2                         # n, l, Nzeta 
   5.422      4.223   
   1.000      1.000   
 n=2   1   2 P   1                   # n, l, Nzeta, Polarization, NzetaPol
   6.790      4.609   
   1.000      1.000   
C                     2                    # Species label, number of l-shells
 n=2   0   2                         # n, l, Nzeta 
   4.633      3.432   
   1.000      1.000   
 n=2   1   2 P   1                   # n, l, Nzeta, Polarization, NzetaPol
   5.659      3.653   
   1.000      1.000   
%endblock PAO.Basis

prinput: ----------------------------------------------------------------------

coor:   Atomic-coordinates input format  =     Fractional

siesta: Atomic coordinates (Bohr) and species
siesta:      6.95932  30.82560   0.00000  1        1
siesta:      9.28770  26.79272   0.00000  1        2
siesta:      9.28770  29.48119   0.00000  1        3
siesta:      4.63094  10.66124   0.00000  1        4
siesta:      4.63094  13.34970   0.00000  1        5
siesta:     11.61608  25.44831   0.00000  1        6
siesta:      2.30256  14.69411   0.00000  1        7
siesta:      2.30256  17.38257   0.00000  1        8
siesta:      4.63094  18.72698   0.00000  1        9
siesta:      4.63094  21.41544   0.00000  1       10
siesta:     -0.02582  18.72698   0.00000  1       11
siesta:      2.30256  22.75985   0.00000  1       12
siesta:      2.30256  25.44831   0.00000  1       13
siesta:     -9.33934  18.72698   0.00000  1       14
siesta:     -9.33934  21.41544   0.00000  1       15
siesta:    -11.66772  22.75985   0.00000  1       16
siesta:    -11.66772  25.44831   0.00000  1       17
siesta:      4.63094  26.79272   0.00000  1       18
siesta:      4.63094  29.48119   0.00000  1       19
siesta:     -0.02582   2.59549   0.00000  2       20
siesta:     -0.02582   5.28395   0.00000  2       21
siesta:     -2.35420  38.89134   0.00000  2       22
siesta:     -2.35420  41.57980   0.00000  2       23
siesta:      2.30256  38.89134   0.00000  2       24
siesta:      2.30256  41.57980   0.00000  2       25
siesta:      4.63094  34.85847   0.00000  2       26
siesta:      4.63094  37.54693   0.00000  2       27
siesta:      6.95932  33.51406   0.00000  2       28
siesta:     -4.68258  34.85847   0.00000  2       29
siesta:     -4.68258  37.54693   0.00000  2       30
siesta:      2.30256   6.62836   0.00000  2       31
siesta:      2.30256   9.31683   0.00000  2       32
siesta:      6.95932  14.69411   0.00000  2       33
siesta:      6.95932  17.38257   0.00000  2       34
siesta:      9.28770  18.72698   0.00000  2       35
siesta:      9.28770  21.41544   0.00000  2       36
siesta:     11.61608  22.75985   0.00000  2       37
siesta:     -2.35420   6.62836   0.00000  2       38
siesta:     -2.35420   9.31683   0.00000  2       39
siesta:     -0.02582  10.66124   0.00000  2       40
siesta:     -0.02582  13.34970   0.00000  2       41
siesta:      6.95932  22.75985   0.00000  2       42
siesta:      6.95932  25.44831   0.00000  2       43
siesta:     -4.68258  10.66124   0.00000  2       44
siesta:     -4.68258  13.34970   0.00000  2       45
siesta:     -2.35420  14.69411   0.00000  2       46
siesta:     -2.35420  17.38257   0.00000  2       47
siesta:     -0.02582  21.41544   0.00000  2       48
siesta:     -7.01096  14.69411   0.00000  2       49
siesta:     -7.01096  17.38257   0.00000  2       50
siesta:     -4.68258  18.72698   0.00000  2       51
siesta:     -4.68258  21.41544   0.00000  2       52
siesta:     -2.35420  22.75985   0.00000  2       53
siesta:     -2.35420  25.44831   0.00000  2       54
siesta:     -7.01096  22.75985   0.00000  2       55
siesta:     -7.01096  25.44831   0.00000  2       56
siesta:     -9.33934  26.79272   0.00000  2       57
siesta:     -9.33934  29.48119   0.00000  2       58
siesta:     -0.02582  26.79272   0.00000  2       59
siesta:     -0.02582  29.48119   0.00000  2       60
siesta:     -4.68258  26.79272   0.00000  2       61
siesta:     -4.68258  29.48119   0.00000  2       62
siesta:      2.30256  30.82560   0.00000  2       63
siesta:      2.30256  33.51406   0.00000  2       64
siesta:     -2.35420  30.82560   0.00000  2       65
siesta:     -2.35420  33.51406   0.00000  2       66
siesta:     -7.01096  30.82560   0.00000  2       67
siesta:     -7.01096  33.51406   0.00000  2       68
siesta:     -0.02582  34.85847   0.00000  2       69
siesta:     -0.02582  37.54693   0.00000  2       70
siesta:     -0.02582  42.92421   0.00000  2       71
siesta:     -0.02582  45.61267   0.00000  2       72

siesta: System type = slab      

initatomlists: Number of atoms, orbitals, and projectors:     72   936  1152

siesta: ******************** Simulation parameters ****************************
siesta:
siesta: The following are some of the parameters of the simulation.
siesta: A complete list of the parameters used, including default values,
siesta: can be found in file out.fdf
siesta:
redata: Non-Collinear-spin run           =     F
redata: SpinPolarized (Up/Down) run      =     F
redata: Number of spin components        =     1
redata: Long output                      =     F
redata: Number of Atomic Species         =        2
redata: Charge density info will appear in .RHO file
redata: Write Mulliken Pop.              =     NO
redata: Mesh Cutoff                      =   200.0000  Ry
redata: Net charge of the system         =     0.0000 |e|
redata: Max. number of SCF Iter          =      500
redata: SCF convergence failure will abort job
redata: Performing Pulay mixing using    =    10 iterations
redata: Mix DM in first SCF step ?       =     F
redata: Write Pulay info on disk?        =     F
redata: Discard 1st Pulay DM after  kick =     F
redata: New DM Mixing Weight             =     0.0500
redata: New DM Occupancy tolerance       = 0.000000000001
redata: No kicks to SCF
redata: DM Mixing Weight for Kicks       =     0.5000
redata: DM Tolerance for SCF             =     0.000100
redata: Require Energy convergence for SCF =     F
redata: DM Energy tolerance for SCF      =     0.000100 eV
redata: Require Harris convergence for SCF =     F
redata: DM Harris energy tolerance for SCF =     0.000100 eV
redata: Using Saved Data (generic)   =     F
redata: Use continuation files for DM    =     T
redata: Neglect nonoverlap interactions  =     F
redata: Method of Calculation            =     Diagonalization
redata: Divide and Conquer               =     T
redata: Electronic Temperature           =     0.0019  Ry
redata: Fix the spin of the system       =     F
redata: Dynamics option                  =     Verlet MD run
redata: Initial MD time step             =        1
redata:   Final MD time step             =        1
redata: Length of MD time step           =     1.0000  fs
redata: Initial Temperature of MD run    =     0.0000  K
redata: Perform a MD quench              =     F
redata: ***********************************************************************
Total number of electrons:   269.000000
Total ionic charge:   269.000000

* ProcessorY, Blocksize:    2  24

k-point displ. along   1 input, could be:     0.50    0.00
k-point displ. along   2 input, could be:     0.50    0.00
 Kpoints in:          231 . Kpoints trimmed:          231

siesta: k-grid: Number of k-points =   231
siesta: k-grid: Cutoff (effective) =     5.000 Ang
siesta: k-grid: Supercell and displacements
siesta: k-grid:   21   0   0      0.500
siesta: k-grid:    0  21   0      0.500
siesta: k-grid:    0   0   1      0.000
Naive supercell factors:     2    2    2

superc: Internal auxiliary supercell:     2 x     2 x     2  =       8
superc: Number of atoms, orbitals, and projectors:    576   7488   9216

* Maximum dynamic memory allocated =     4 MB

siesta:                 ==============================
                            Begin MD step =      1
                        ==============================

superc: Internal auxiliary supercell:     2 x     2 x     2  =       8
superc: Number of atoms, orbitals, and projectors:    576   7488   9216

outcell: Unit cell vectors (Ang):
       12.804619    7.392750    0.000000
        0.000000   14.785500    0.000000
        0.000000    0.000000   10.000000

outcell: Cell vector modules (Ang)   :   14.785500   14.785500   10.000000
outcell: Cell angles (23,13,12) (deg):     90.0000     90.0000     60.0000
outcell: Cell volume (Ang**3)        :   1893.2269
New_DM. Step:     1
Initializing Density Matrix...

InitMesh: MESH =   120 x   120 x    90 =     1296000
InitMesh: Mesh cutoff (required, used) =   200.000   223.865 Ry

* Maximum dynamic memory allocated =   220 MB

stepf: Fermi-Dirac step function

siesta: Program's energy decomposition (eV):
siesta: Ebs     =     -5551.135767
siesta: Eions   =     15969.933558
siesta: Ena     =      4258.019457
siesta: Ekin    =      5376.155659
siesta: Enl     =       788.347643
siesta: DEna    =        -0.000009
siesta: DUscf   =         0.000000
siesta: DUext   =         0.000000
siesta: Exc     =     -4202.473488
siesta: eta*DQ  =         0.000000
siesta: Emadel  =         0.000000
siesta: Emeta   =         0.000000
siesta: Emolmec =         0.000000
siesta: Ekinion =         0.000000
siesta: Eharris =     -9463.876334
siesta: Etot    =     -9749.884296
siesta: FreeEng =     -9749.884296

siesta: iscf   Eharris(eV)      E_KS(eV)   FreeEng(eV)   dDmax  Ef(eV)
siesta:    1    -9463.8763    -9749.8843    -9749.8843  6.4033 -8.3557
timer: Routine,Calls,Time,% = IterSCF        1    4503.974  99.74
elaps: Routine,Calls,Wall,% = IterSCF        1     563.710  99.74
siesta:    2   -13210.0590    -8822.0606    -8822.1188 18.2984 -2.6866
siesta:    3    -9400.4974    -9583.9876    -9584.0362  2.8394 -6.4241
siesta:    4    -9374.2099    -9475.3275    -9475.3993  1.3793 -5.5482
siesta:    5    -9335.8864    -9406.6592    -9406.6926  0.8449 -5.4073
siesta:    6    -9327.3830    -9369.8242    -9369.8744  0.7613 -5.1713
siesta:    7    -9315.9773    -9349.4188    -9349.4835  0.6930 -5.1010
siesta:    8    -9313.9388    -9334.9053    -9334.9544  0.6322 -5.1103
siesta:    9    -9314.4428    -9322.5159    -9322.5557  0.4971 -5.0537
siesta:   10    -9313.6448    -9314.1129    -9314.1554  0.4128 -5.0335
siesta:   11    -9312.1618    -9300.5931    -9300.6450  0.2189 -4.9479
siesta:   12    -9312.4381    -9295.0032    -9295.0460  0.1767 -4.9468
siesta:   13    -9312.1239    -9293.9740    -9294.0264  0.1490 -4.9370
siesta:   14    -9311.5091    -9296.9301    -9296.9886  0.1301 -4.9388
siesta:   15    -9311.2394    -9300.3867    -9300.4389  0.1035 -4.9824
siesta:   16    -9311.2233    -9303.4735    -9303.5280  0.0783 -4.9902
siesta:   17    -9311.1356    -9306.0616    -9306.1166  0.0580 -5.0162
siesta:   18    -9311.1079    -9307.1780    -9307.2310  0.0244 -5.0063
siesta:   19    -9311.1014    -9308.6718    -9308.7275  0.0210 -5.0023
siesta:   20    -9311.0962    -9309.4456    -9309.5020  0.0185 -4.9963
siesta:   21    -9311.0937    -9310.1826    -9310.2385  0.0110 -4.9999
siesta:   22    -9311.0915    -9310.9438    -9310.9983  0.0091 -4.9993
siesta:   23    -9311.0908    -9311.2070    -9311.2622  0.0081 -4.9968
siesta:   24    -9311.0905    -9311.3338    -9311.3891  0.0071 -4.9950
siesta:   25    -9311.0902    -9311.4407    -9311.4959  0.0043 -4.9938
siesta:   26    -9311.0902    -9311.4097    -9311.4651  0.0033 -4.9942
siesta:   27    -9311.0901    -9311.2588    -9311.3141  0.0014 -4.9936
siesta:   28    -9311.0901    -9311.1984    -9311.2537  0.0009 -4.9932
siesta:   29    -9311.0901    -9311.1665    -9311.2217  0.0006 -4.9934
siesta:   30    -9311.0901    -9311.1506    -9311.2059  0.0004 -4.9934
siesta:   31    -9311.0901    -9311.1409    -9311.1962  0.0003 -4.9934
siesta:   32    -9311.0901    -9311.1305    -9311.1857  0.0002 -4.9935
siesta:   33    -9311.0901    -9311.1249    -9311.1801  0.0002 -4.9936
siesta:   34    -9311.0901    -9311.1157    -9311.1710  0.0001 -4.9935
siesta:   35    -9311.0901    -9311.1018    -9311.1570  0.0000 -4.9936

siesta: E_KS(eV) =            -9311.0960

siesta: E_KS - E_eggbox =     -9311.0960

siesta: Atomic forces (eV/Ang):
----------------------------------------
   Tot   -0.226610   -0.030490    0.000000
----------------------------------------
   Max  564.664784
   Res  148.681166    sqrt( Sum f_i^2 / 3N )
----------------------------------------
   Max  564.664784    constrained

Stress-tensor-Voigt (kbar):     -798.14    -2728.62       -0.63       17.33        0.00        0.00
(Free)E + p*V (eV/cell)    -7921.7749
Target enthalpy (eV/cell)    -9311.1513

siesta: Stress tensor (static) (eV/Ang**3):
        -0.498156    0.010815    0.000000
         0.010815   -1.703054    0.000000
         0.000000    0.000000   -0.000391

siesta: Pressure (static):       1175.79704676  kBar

siesta: Stress tensor (total) (eV/Ang**3):
        -0.498156    0.010815    0.000000
         0.010815   -1.703054    0.000000
         0.000000    0.000000   -0.000391

siesta: Pressure (total):       1175.79704676  kBar

siesta: Temp_ion =       0.000 K

* Maximum dynamic memory allocated =   236 MB
Computing bands...

siesta: Program's energy decomposition (eV):
siesta: Ebs     =     -4193.899497
siesta: Eions   =     15969.933558
siesta: Ena     =      4258.019457
siesta: Ekin    =      8282.679163
siesta: Enl     =      -819.555087
siesta: DEna    =      -793.889206
siesta: DUscf   =       107.287025
siesta: DUext   =         0.000000
siesta: Exc     =     -4375.703840
siesta: eta*DQ  =         0.000000
siesta: Emadel  =         0.000000
siesta: Emeta   =         0.000000
siesta: Emolmec =         0.000000
siesta: Ekinion =         0.000000
siesta: Eharris =     -9311.090056
siesta: Etot    =     -9311.096047
siesta: FreeEng =     -9311.151335

siesta: Final energy (eV):
siesta:  Band Struct. =   -4193.899497
siesta:       Kinetic =    8282.679163
siesta:       Hartree =   27705.634591
siesta:    Ext. field =       0.000000
siesta:   Exch.-corr. =   -4375.703840
siesta:  Ion-electron =  -63404.202247
siesta:       Ion-ion =   22480.496286
siesta:       Ekinion =       0.000000
siesta:         Total =   -9311.096047

siesta: Atomic forces (eV/Ang):
siesta:      1    3.745570    5.352186    0.000000
siesta:      2   -0.122989   -1.721612    0.000000
siesta:      3    4.484582    1.609893    0.000000
siesta:      4   20.602674  397.576307    0.000000
siesta:      5   19.729065    2.578260    0.000000
siesta:      6    7.039270   -3.342087    0.000000
siesta:      7   20.656896  401.055348    0.000000
siesta:      8   14.743337   -1.192368    0.000000
siesta:      9    0.815421   -2.875458    0.000000
siesta:     10    4.504342    3.010124    0.000000
siesta:     11    0.106835  411.592748    0.000000
siesta:     12   -4.750462   -4.567410    0.000000
siesta:     13   -4.506489    4.482748    0.000000
siesta:     14    0.711459   -4.157132    0.000000
siesta:     15   -1.868297    1.710075    0.000000
siesta:     16   -5.762864   -2.787555    0.000000
siesta:     17   -2.710944    4.083182    0.000000
siesta:     18    4.123983   -3.443752    0.000000
siesta:     19   -5.820921    3.303893    0.000000
siesta:     20   -2.327654  549.839788    0.000000
siesta:     21    1.018119 -127.958713    0.000000
siesta:     22    0.009637  127.169463    0.000000
siesta:     23  -18.271964 -551.180995    0.000000
siesta:     24    4.605145  123.348612    0.000000
siesta:     25   16.135084 -405.349151    0.000000
siesta:     26   26.654309   -0.066361    0.000000
siesta:     27   36.733371 -406.454409    0.000000
siesta:     28   -4.305333    5.228535    0.000000
siesta:     29  -27.089436    4.749622    0.000000
siesta:     30  -34.660492 -549.726523    0.000000
siesta:     31   20.463816  549.377010    0.000000
siesta:     32    7.201774 -115.566321    0.000000
siesta:     33   -0.031725    0.350796    0.000000
siesta:     34    7.458021   -3.420809    0.000000
siesta:     35   -0.808279    1.004915    0.000000
siesta:     36    3.583731   -1.751184    0.000000
siesta:     37   -0.260303    0.414706    0.000000
siesta:     38  -12.543088  546.985788    0.000000
siesta:     39    1.634563 -125.367679    0.000000
siesta:     40    2.646845  544.782230    0.000000
siesta:     41    7.449580 -117.224909    0.000000
siesta:     42    1.190437    2.938246    0.000000
siesta:     43    0.130270   -4.062803    0.000000
siesta:     44  -31.690343  548.659536    0.000000
siesta:     45  -25.658834   -4.687571    0.000000
siesta:     46  -26.019240  559.375509    0.000000
siesta:     47  -23.237394   -3.094567    0.000000
siesta:     48   -3.157840    1.547810    0.000000
siesta:     49    2.006566   -1.990457    0.000000
siesta:     50    0.480582   -2.992407    0.000000
siesta:     51    0.941076    1.421062    0.000000
siesta:     52   -0.620436    1.271748    0.000000
siesta:     53    0.614193   -0.368779    0.000000
siesta:     54   -0.063956    0.807896    0.000000
siesta:     55    3.533128    1.009113    0.000000
siesta:     56    1.089764    0.131698    0.000000
siesta:     57    0.996361    3.525919    0.000000
siesta:     58    0.084833   -0.921648    0.000000
siesta:     59   -2.522218    0.239759    0.000000
siesta:     60    0.637827 -564.664784    0.000000
siesta:     61   -0.673200   -0.457644    0.000000
siesta:     62    0.855641   -1.660528    0.000000
siesta:     63   19.958301    5.386751    0.000000
siesta:     64   20.094580 -559.034742    0.000000
siesta:     65  -21.956415    5.288219    0.000000
siesta:     66  -24.711126 -556.363894    0.000000
siesta:     67   -1.389185    0.553650    0.000000
siesta:     68    2.915486    2.052026    0.000000
siesta:     69   -0.714105  127.113118    0.000000
siesta:     70   -7.931943 -545.782299    0.000000
siesta:     71    6.005664  126.967720    0.000000
siesta:     72   -2.431274 -403.689952    0.000000
siesta: ----------------------------------------
siesta:    Tot   -0.226610   -0.030490    0.000000

siesta: Stress tensor (static) (eV/Ang**3):
siesta:    -0.498156    0.010815    0.000000
siesta:     0.010815   -1.703054    0.000000
siesta:     0.000000    0.000000   -0.000391

siesta: Cell volume =       1893.226884 Ang**3

siesta: Pressure (static):
siesta:                Solid            Molecule  Units
siesta:           0.00799275          0.11402754  Ry/Bohr**3
siesta:           0.73386686         10.46962122  eV/Ang**3
siesta:        1175.79704676      16774.36379935  kBar
(Free)E+ p_basis*V_orbitals  =       -9274.410603
(Free)Eharris+ p_basis*V_orbitals  =       -9274.398903

siesta: Electric dipole (a.u.)  =    0.000000    0.000000    0.000000
siesta: Electric dipole (Debye) =    0.000000    0.000000    0.000000

* Maximum dynamic memory allocated : Node    0 =   236 MB
* Maximum dynamic memory allocated : Node    1 =    83 MB
* Maximum dynamic memory allocated : Node    2 =    84 MB
* Maximum dynamic memory allocated : Node    3 =   223 MB
* Maximum dynamic memory allocated : Node    4 =   231 MB
* Maximum dynamic memory allocated : Node    5 =    84 MB
* Maximum dynamic memory allocated : Node    6 =    86 MB
* Maximum dynamic memory allocated : Node    7 =   212 MB

* Maximum memory occured during matrixMtoO                    

timer: CPU execution times:
timer:  Routine       Calls   Time/call    Tot.time        %
timer:  siesta            1  155851.578  155851.578   100.00
timer:  Setup             1       3.040       3.040     0.00
timer:  bands             3     269.247     807.741     0.52
timer:  writewave         1       0.022       0.022     0.00
timer:  KSV_init          1       0.001       0.001     0.00
timer:  IterMD            1  155034.941  155034.941    99.48
timer:  hsparse           1       0.390       0.390     0.00
timer:  overlap           1       7.775       7.775     0.00
timer:  IterSCF          35    4423.067  154807.330    99.33
timer:  kinefsm           2       4.036       8.072     0.01
timer:  nlefsm            2      21.763      43.526     0.03
timer:  DHSCF            36     117.443    4227.941     2.71
timer:  DHSCF1            1       0.998       0.998     0.00
timer:  DHSCF2            1      44.032      44.032     0.03
timer:  REORD           290       0.010       2.872     0.00
timer:  POISON           37       2.241      82.933     0.05
timer:  DHSCF3           36     114.951    4138.228     2.66
timer:  rhoofd           36      24.921     897.161     0.58
timer:  cellXC           36       3.487     125.516     0.08
timer:  vmat             36      56.498    2033.933     1.31
timer:  MolMec            2       0.000       0.000     0.00
timer:  diagon           35    4304.578  150660.230    96.67
timer:  c-eigval       8206       6.674   54770.466    35.14
timer:  c-buildHS      8206       0.123    1006.129     0.65
timer:  cdiag         16291       6.878  112049.920    71.90
timer:  cdiag1        16291       0.428    6967.482     4.47
timer:  cdiag2        16291       1.905   31030.106    19.91
timer:  cdiag3        16291       3.939   64174.242    41.18
timer:  cdiag4        16291       0.225    3663.610     2.35
timer:  c-eigvec       8085       7.285   58896.788    37.79
timer:  c-buildD       8085       4.670   37753.614    24.22
timer:  DHSCF4            1      42.764      42.764     0.03
timer:  dfscf             1      40.068      40.068     0.03
timer:  overfsm           1       0.479       0.479     0.00
timer:  optical           1       5.113       5.113     0.00
  

elaps: ELAPSED times:
elaps:  Routine       Calls   Time/call    Tot.time        %
elaps:  siesta            1   19504.475   19504.475   100.00
elaps:  Setup             1       0.379       0.379     0.00
elaps:  bands             3      33.707     101.120     0.52
elaps:  writewave         1       0.002       0.002     0.00
elaps:  KSV_init          1       0.000       0.000     0.00
elaps:  IterMD            1   19402.300   19402.300    99.48
elaps:  hsparse           1       0.049       0.049     0.00
elaps:  overlap           1       0.978       0.978     0.01
elaps:  IterSCF          35     553.538   19373.827    99.33
elaps:  kinefsm           2       0.508       1.017     0.01
elaps:  nlefsm            2       2.862       5.723     0.03
elaps:  DHSCF            36      14.833     534.005     2.74
elaps:  DHSCF1            1       0.128       0.128     0.00
elaps:  DHSCF2            1       5.504       5.504     0.03
elaps:  REORD           290       0.001       0.386     0.00
elaps:  POISON           37       0.280      10.378     0.05
elaps:  DHSCF3           36      14.381     517.732     2.65
elaps:  rhoofd           36       6.448     232.116     1.19
elaps:  cellXC           36       0.435      15.670     0.08
elaps:  vmat             36       7.068     254.447     1.30
elaps:  MolMec            2       0.000       0.000     0.00
elaps:  diagon           35     538.739   18855.866    96.67
elaps:  c-eigval       8206       0.835    6852.784    35.13
elaps:  c-buildHS      8206       0.017     137.625     0.71
elaps:  cdiag         16291       0.847   13798.839    70.75
elaps:  cdiag1        16291       0.053     865.921     4.44
elaps:  cdiag2        16291       0.238    3882.570    19.91
elaps:  cdiag3        16291       0.494    8040.473    41.22
elaps:  cdiag4        16291       0.029     466.395     2.39
elaps:  c-eigvec       8085       0.887    7174.756    36.79
elaps:  c-buildD       8085       0.609    4922.932    25.24
elaps:  DHSCF4            1      10.384      10.384     0.05
elaps:  dfscf             1       9.868       9.868     0.05
elaps:  overfsm           1       0.062       0.062     0.00
elaps:  optical           1       0.000       0.000     0.00
  
>> End of run:  30-APR-2016   4:50:21
