Siesta Version:                                        siesta-3.2-pl-3
Architecture  : x86_64-unknown-linux-gnu--unknown
Compiler flags: mpiifort -g -O2 -fPIC -xSSE4.1 -fp-model source -shared-intel 
PARALLEL version

* Running on   12 nodes in parallel
>> Start of run:  30-APR-2016  23:51:01

                           ***********************       
                           *  WELCOME TO SIESTA  *       
                           ***********************       

reinit: Reading from standard input
************************** Dump of input data file ****************************
#(1) General system descriptors
SystemName            GRP_doping    # Descriptive name of the system
SystemLabel           GRP_doping    # Short name for naming files
%include STRUCT.fdf
%include KPT.fdf
%include BASIS.fdf
#%include TS.fdf # for transiesta calculation
#(4) DFT, Grid, SCF
XC.functional         GGA           # LDA or GGA (default = LDA)
XC.authors            PBE           # CA (Ceperley-Aldr) = PZ
                                    #    (Perdew-Zunger) - LDA - Default
                                    # PW92 (Perdew-Wang-92) - LDA
                                    # PBE (Perdew-Burke-Ernzerhof) - GGA
MeshCutoff            200.000000    Ry      # Default: 50.0 Ry ~ 0.444 Bohr
                                    #         100.0 Ry ~ 0.314 Bohr
MaxSCFIterations      500           # Default: 50
DM.MixingWeight       0.05          # Default: 0.25
DM.NumberPulay        10            # Default: 0
DM.PulayOnFile        F             # SystemLabel.P1, SystemLabel.P2
DM.Tolerance          1.d-4         # Default: 1.d-4
DM.UseSaveDM          .true.        # because of the bug
SCFMustConverge       .true.
NeglNonOverlapInt     F             # Default: F
#(5) Eigenvalue problem: order-N or diagonalization
SolutionMethod        Diagon        # or Transiesta
ElectronicTemperature 300.0 K       # Default: 300.0 K
#(6) Molecular dynamics and relaxations
#MD.TypeOfRun          CG            # Type of dynamics:
#MD.VariableCell       F
#MD.NumCGsteps         0           # 0 for single-point / 100 for gopt
#MD.MaxCGDispl         0.2 Bohr      # Default: 0.2 Bohr
#MD.MaxForceTol        0.02 eV/Ang   # Default: 0.04 eV/Ang
#MD.MaxStressTol       1.0 GPa       # Default: 1.0 GPa
# Geometry Constraints
#%block GeometryConstraints
#	position from 1 to 44
#%endblock GeometryConstraints
BandLinesScale   pi/a
%block BandLines
 1   0.00000000  0.00000000  0.00000000
50   0.00000000  0.07809418  0.00000000
50   0.04509075  0.07809242  0.00000000
20   0.00000000  0.00000000  0.00000000
%endblock BandLines
************************** End of input data file *****************************

reinit: -----------------------------------------------------------------------
reinit: System Name: GRP_doping
reinit: -----------------------------------------------------------------------
reinit: System Label: GRP_doping                                                  
reinit: -----------------------------------------------------------------------

initatom: Reading input for the pseudopotentials and atomic orbitals ----------
 Species number:            1  Label: B Atomic number:           5
 Species number:            2  Label: C Atomic number:           6
Ground state valence configuration:   2s02  2p01
Reading pseudopotential information in formatted form from B.psf

Valence configuration for pseudopotential generation:
2s( 2.00) rc: 1.74
2p( 1.00) rc: 1.74
3d( 0.00) rc: 1.74
4f( 0.00) rc: 1.74
Ground state valence configuration:   2s02  2p02
Reading pseudopotential information in formatted form from C.psf

Valence configuration for pseudopotential generation:
2s( 2.00) rc: 1.54
2p( 2.00) rc: 1.54
3d( 0.00) rc: 1.54
4f( 0.00) rc: 1.54
For B, standard SIESTA heuristics set lmxkb to 3
 (one more than the basis l, including polarization orbitals).
Use PS.lmax or PS.KBprojectors blocks to override.
For C, standard SIESTA heuristics set lmxkb to 3
 (one more than the basis l, including polarization orbitals).
Use PS.lmax or PS.KBprojectors blocks to override.

<basis_specs>
===============================================================================
B                    Z=   5    Mass=  10.810        Charge= 0.17977+309
Lmxo=1 Lmxkb= 3    BasisType=split      Semic=F
L=0  Nsemic=0  Cnfigmx=2
          n=1  nzeta=2  polorb=0
            splnorm:   0.15000    
               vcte:    0.0000    
               rinn:    0.0000    
                rcs:    0.0000      0.0000    
            lambdas:    1.0000      1.0000    
L=1  Nsemic=0  Cnfigmx=2
          n=1  nzeta=2  polorb=1
            splnorm:   0.15000    
               vcte:    0.0000    
               rinn:    0.0000    
                rcs:    0.0000      0.0000    
            lambdas:    1.0000      1.0000    
-------------------------------------------------------------------------------
L=0  Nkbl=1  erefs: 0.17977+309
L=1  Nkbl=1  erefs: 0.17977+309
L=2  Nkbl=1  erefs: 0.17977+309
L=3  Nkbl=1  erefs: 0.17977+309
===============================================================================
</basis_specs>

atom: Called for B                     (Z =   5)

read_vps: Pseudopotential generation method:
read_vps: ATM3      Troullier-Martins                       
Total valence charge:    3.00000

read_vps: Pseudopotential includes a core correction:
read_vps: Pseudo-core for xc-correction

xc_check: Exchange-correlation functional:
xc_check: GGA Perdew, Burke & Ernzerhof 1996
V l=0 = -2*Zval/r beyond r=  1.7165
V l=1 = -2*Zval/r beyond r=  1.7165
V l=2 = -2*Zval/r beyond r=  1.7165
V l=3 = -2*Zval/r beyond r=  1.6951
All V_l potentials equal beyond r=  1.7165
This should be close to max(r_c) in ps generation
All pots = -2*Zval/r beyond r=  1.7165

VLOCAL1: 99.0% of the norm of Vloc inside     14.733 Ry
VLOCAL1: 99.9% of the norm of Vloc inside     33.577 Ry
atom: Maximum radius for 4*pi*r*r*local-pseudopot. charge    2.04484
atom: Maximum radius for r*vlocal+2*Zval:    1.75994
GHOST: No ghost state for L =  0
GHOST: No ghost state for L =  1
GHOST: No ghost state for L =  2
GHOST: No ghost state for L =  3

KBgen: Kleinman-Bylander projectors: 
   l= 0   rc=  1.897051   el= -0.693730   Ekb=  4.595746   kbcos=  0.286105
   l= 1   rc=  1.920920   el= -0.265236   Ekb= -2.350715   kbcos= -0.315747
   l= 2   rc=  2.044840   el=  0.002055   Ekb= -0.690767   kbcos= -0.013822
   l= 3   rc=  2.149707   el=  0.003188   Ekb= -0.315358   kbcos= -0.002055

KBgen: Total number of  Kleinman-Bylander projectors:   16
atom: -------------------------------------------------------------------------

atom: SANKEY-TYPE ORBITALS:
atom: Selected multiple-zeta basis: split     

SPLIT: Orbitals with angular momentum L= 0

SPLIT: Basis orbitals for state 2s

SPLIT: PAO cut-off radius determined from an
SPLIT: energy shift=  0.007350 Ry

   izeta = 1
                 lambda =    1.000000
                     rc =    5.422032
                 energy =   -0.686029
                kinetic =    0.576707
    potential(screened) =   -1.262736
       potential(ionic) =   -3.271094

   izeta = 2
                 rmatch =    4.222573
              splitnorm =    0.150000
                 energy =   -0.602132
                kinetic =    0.858975
    potential(screened) =   -1.461107
       potential(ionic) =   -3.582536

SPLIT: Orbitals with angular momentum L= 1

SPLIT: Basis orbitals for state 2p

SPLIT: PAO cut-off radius determined from an
SPLIT: energy shift=  0.007350 Ry

   izeta = 1
                 lambda =    1.000000
                     rc =    6.790259
                 energy =   -0.258578
                kinetic =    1.481412
    potential(screened) =   -1.739989
       potential(ionic) =   -3.657461

   izeta = 2
                 rmatch =    4.608740
              splitnorm =    0.150000
                 energy =   -0.173757
                kinetic =    2.186690
    potential(screened) =   -2.360447
       potential(ionic) =   -4.464260

POLgen: Perturbative polarization orbital with L=  2

POLgen: Polarization orbital for state 2p

   izeta = 1
                     rc =    6.790259
                 energy =    0.684082
                kinetic =    1.471481
    potential(screened) =   -0.787399
       potential(ionic) =   -2.406985
atom: Total number of Sankey-type orbitals: 13

atm_pop: Valence configuration (for local Pseudopot. screening):
 2s( 2.00)                                                            
 2p( 1.00)                                                            
Vna: chval, zval:    3.00000   3.00000

Vna:  Cut-off radius for the neutral-atom potential:   6.790259
comcore: Pseudo-core radius Rcore=  2.122997

atom: _________________________________________________________________________

<basis_specs>
===============================================================================
C                    Z=   6    Mass=  12.010        Charge= 0.17977+309
Lmxo=1 Lmxkb= 3    BasisType=split      Semic=F
L=0  Nsemic=0  Cnfigmx=2
          n=1  nzeta=2  polorb=0
            splnorm:   0.15000    
               vcte:    0.0000    
               rinn:    0.0000    
                rcs:    0.0000      0.0000    
            lambdas:    1.0000      1.0000    
L=1  Nsemic=0  Cnfigmx=2
          n=1  nzeta=2  polorb=1
            splnorm:   0.15000    
               vcte:    0.0000    
               rinn:    0.0000    
                rcs:    0.0000      0.0000    
            lambdas:    1.0000      1.0000    
-------------------------------------------------------------------------------
L=0  Nkbl=1  erefs: 0.17977+309
L=1  Nkbl=1  erefs: 0.17977+309
L=2  Nkbl=1  erefs: 0.17977+309
L=3  Nkbl=1  erefs: 0.17977+309
===============================================================================
</basis_specs>

atom: Called for C                     (Z =   6)

read_vps: Pseudopotential generation method:
read_vps: ATM3      Troullier-Martins                       
Total valence charge:    4.00000

read_vps: Pseudopotential includes a core correction:
read_vps: Pseudo-core for xc-correction

xc_check: Exchange-correlation functional:
xc_check: GGA Perdew, Burke & Ernzerhof 1996
V l=0 = -2*Zval/r beyond r=  1.5227
V l=1 = -2*Zval/r beyond r=  1.5227
V l=2 = -2*Zval/r beyond r=  1.5227
V l=3 = -2*Zval/r beyond r=  1.5038
All V_l potentials equal beyond r=  1.5227
This should be close to max(r_c) in ps generation
All pots = -2*Zval/r beyond r=  1.5227

VLOCAL1: 99.0% of the norm of Vloc inside     18.722 Ry
VLOCAL1: 99.9% of the norm of Vloc inside     42.668 Ry
atom: Maximum radius for 4*pi*r*r*local-pseudopot. charge    1.83678
atom: Maximum radius for r*vlocal+2*Zval:    1.58088
GHOST: No ghost state for L =  0
GHOST: No ghost state for L =  1
GHOST: No ghost state for L =  2
GHOST: No ghost state for L =  3

KBgen: Kleinman-Bylander projectors: 
   l= 0   rc=  1.704034   el= -1.009801   Ekb=  5.335044   kbcos=  0.316824
   l= 1   rc=  1.704034   el= -0.388707   Ekb= -3.785862   kbcos= -0.366464
   l= 2   rc=  1.791422   el=  0.001971   Ekb= -0.970471   kbcos= -0.009212
   l= 3   rc=  1.859892   el=  0.003065   Ekb= -0.399525   kbcos= -0.001223

KBgen: Total number of  Kleinman-Bylander projectors:   16
atom: -------------------------------------------------------------------------

atom: SANKEY-TYPE ORBITALS:
atom: Selected multiple-zeta basis: split     

SPLIT: Orbitals with angular momentum L= 0

SPLIT: Basis orbitals for state 2s

SPLIT: PAO cut-off radius determined from an
SPLIT: energy shift=  0.007350 Ry

   izeta = 1
                 lambda =    1.000000
                     rc =    4.632753
                 energy =   -1.002270
                kinetic =    0.855760
    potential(screened) =   -1.858031
       potential(ionic) =   -5.417575

   izeta = 2
                 rmatch =    3.431921
              splitnorm =    0.150000
                 energy =   -0.867111
                kinetic =    1.300804
    potential(screened) =   -2.167915
       potential(ionic) =   -5.962684

SPLIT: Orbitals with angular momentum L= 1

SPLIT: Basis orbitals for state 2p

SPLIT: PAO cut-off radius determined from an
SPLIT: energy shift=  0.007350 Ry

   izeta = 1
                 lambda =    1.000000
                     rc =    5.658549
                 energy =   -0.381140
                kinetic =    2.399701
    potential(screened) =   -2.780841
       potential(ionic) =   -6.206085

   izeta = 2
                 rmatch =    3.653288
              splitnorm =    0.150000
                 energy =   -0.249149
                kinetic =    3.542762
    potential(screened) =   -3.791911
       potential(ionic) =   -7.581078

POLgen: Perturbative polarization orbital with L=  2

POLgen: Polarization orbital for state 2p

   izeta = 1
                     rc =    5.658549
                 energy =    1.109913
                kinetic =    2.304789
    potential(screened) =   -1.194876
       potential(ionic) =   -4.013592
atom: Total number of Sankey-type orbitals: 13

atm_pop: Valence configuration (for local Pseudopot. screening):
 2s( 2.00)                                                            
 2p( 2.00)                                                            
Vna: chval, zval:    4.00000   4.00000

Vna:  Cut-off radius for the neutral-atom potential:   5.658549
comcore: Pseudo-core radius Rcore=  1.791422

atom: _________________________________________________________________________

prinput: Basis input ----------------------------------------------------------

PAO.BasisType split     

%block ChemicalSpeciesLabel
    1    5 B                       # Species index, atomic number, species label
    2    6 C                       # Species index, atomic number, species label
%endblock ChemicalSpeciesLabel

%block PAO.Basis                 # Define Basis set
B                     2                    # Species label, number of l-shells
 n=2   0   2                         # n, l, Nzeta 
   5.422      4.223   
   1.000      1.000   
 n=2   1   2 P   1                   # n, l, Nzeta, Polarization, NzetaPol
   6.790      4.609   
   1.000      1.000   
C                     2                    # Species label, number of l-shells
 n=2   0   2                         # n, l, Nzeta 
   4.633      3.432   
   1.000      1.000   
 n=2   1   2 P   1                   # n, l, Nzeta, Polarization, NzetaPol
   5.659      3.653   
   1.000      1.000   
%endblock PAO.Basis

prinput: ----------------------------------------------------------------------

coor:   Atomic-coordinates input format  =     Fractional

siesta: Atomic coordinates (Bohr) and species
siesta:      2.30256   6.62836   0.00000  1        1
siesta:      2.30256   9.31683   0.00000  1        2
siesta:      4.63094  10.66124   0.00000  1        3
siesta:      9.28770  21.41544   0.00000  1        4
siesta:     11.61608  22.75985   0.00000  1        5
siesta:     11.61608  25.44831   0.00000  1        6
siesta:     -0.02582  10.66124   0.00000  1        7
siesta:      6.95932  22.75985   0.00000  1        8
siesta:      6.95932  25.44831   0.00000  1        9
siesta:     -2.35420  25.44831   0.00000  1       10
siesta:     -7.01096  25.44831   0.00000  1       11
siesta:      4.63094  26.79272   0.00000  1       12
siesta:     -0.02582  26.79272   0.00000  1       13
siesta:     -0.02582  29.48119   0.00000  1       14
siesta:     -4.68258  26.79272   0.00000  1       15
siesta:     -4.68258  29.48119   0.00000  1       16
siesta:     -2.35420  30.82560   0.00000  1       17
siesta:     -0.02582   2.59549   0.00000  2       18
siesta:     -0.02582   5.28395   0.00000  2       19
siesta:     -2.35420  38.89134   0.00000  2       20
siesta:     -2.35420  41.57980   0.00000  2       21
siesta:      2.30256  38.89134   0.00000  2       22
siesta:      2.30256  41.57980   0.00000  2       23
siesta:      4.63094  34.85847   0.00000  2       24
siesta:      4.63094  37.54693   0.00000  2       25
siesta:      6.95932  30.82560   0.00000  2       26
siesta:      6.95932  33.51406   0.00000  2       27
siesta:      9.28770  26.79272   0.00000  2       28
siesta:      9.28770  29.48119   0.00000  2       29
siesta:     -4.68258  34.85847   0.00000  2       30
siesta:     -4.68258  37.54693   0.00000  2       31
siesta:      4.63094  13.34970   0.00000  2       32
siesta:      6.95932  14.69411   0.00000  2       33
siesta:      6.95932  17.38257   0.00000  2       34
siesta:      9.28770  18.72698   0.00000  2       35
siesta:     -2.35420   6.62836   0.00000  2       36
siesta:     -2.35420   9.31683   0.00000  2       37
siesta:     -0.02582  13.34970   0.00000  2       38
siesta:      2.30256  14.69411   0.00000  2       39
siesta:      2.30256  17.38257   0.00000  2       40
siesta:      4.63094  18.72698   0.00000  2       41
siesta:      4.63094  21.41544   0.00000  2       42
siesta:     -4.68258  10.66124   0.00000  2       43
siesta:     -4.68258  13.34970   0.00000  2       44
siesta:     -2.35420  14.69411   0.00000  2       45
siesta:     -2.35420  17.38257   0.00000  2       46
siesta:     -0.02582  18.72698   0.00000  2       47
siesta:     -0.02582  21.41544   0.00000  2       48
siesta:      2.30256  22.75985   0.00000  2       49
siesta:      2.30256  25.44831   0.00000  2       50
siesta:     -7.01096  14.69411   0.00000  2       51
siesta:     -7.01096  17.38257   0.00000  2       52
siesta:     -4.68258  18.72698   0.00000  2       53
siesta:     -4.68258  21.41544   0.00000  2       54
siesta:     -2.35420  22.75985   0.00000  2       55
siesta:     -9.33934  18.72698   0.00000  2       56
siesta:     -9.33934  21.41544   0.00000  2       57
siesta:     -7.01096  22.75985   0.00000  2       58
siesta:    -11.66772  22.75985   0.00000  2       59
siesta:    -11.66772  25.44831   0.00000  2       60
siesta:     -9.33934  26.79272   0.00000  2       61
siesta:     -9.33934  29.48119   0.00000  2       62
siesta:      4.63094  29.48119   0.00000  2       63
siesta:      2.30256  30.82560   0.00000  2       64
siesta:      2.30256  33.51406   0.00000  2       65
siesta:     -2.35420  33.51406   0.00000  2       66
siesta:     -7.01096  30.82560   0.00000  2       67
siesta:     -7.01096  33.51406   0.00000  2       68
siesta:     -0.02582  34.85847   0.00000  2       69
siesta:     -0.02582  37.54693   0.00000  2       70
siesta:     -0.02582  42.92421   0.00000  2       71
siesta:     -0.02582  45.61267   0.00000  2       72

siesta: System type = slab      

initatomlists: Number of atoms, orbitals, and projectors:     72   936  1152

siesta: ******************** Simulation parameters ****************************
siesta:
siesta: The following are some of the parameters of the simulation.
siesta: A complete list of the parameters used, including default values,
siesta: can be found in file out.fdf
siesta:
redata: Non-Collinear-spin run           =     F
redata: SpinPolarized (Up/Down) run      =     F
redata: Number of spin components        =     1
redata: Long output                      =     F
redata: Number of Atomic Species         =        2
redata: Charge density info will appear in .RHO file
redata: Write Mulliken Pop.              =     NO
redata: Mesh Cutoff                      =   200.0000  Ry
redata: Net charge of the system         =     0.0000 |e|
redata: Max. number of SCF Iter          =      500
redata: SCF convergence failure will abort job
redata: Performing Pulay mixing using    =    10 iterations
redata: Mix DM in first SCF step ?       =     F
redata: Write Pulay info on disk?        =     F
redata: Discard 1st Pulay DM after  kick =     F
redata: New DM Mixing Weight             =     0.0500
redata: New DM Occupancy tolerance       = 0.000000000001
redata: No kicks to SCF
redata: DM Mixing Weight for Kicks       =     0.5000
redata: DM Tolerance for SCF             =     0.000100
redata: Require Energy convergence for SCF =     F
redata: DM Energy tolerance for SCF      =     0.000100 eV
redata: Require Harris convergence for SCF =     F
redata: DM Harris energy tolerance for SCF =     0.000100 eV
redata: Using Saved Data (generic)   =     F
redata: Use continuation files for DM    =     T
redata: Neglect nonoverlap interactions  =     F
redata: Method of Calculation            =     Diagonalization
redata: Divide and Conquer               =     T
redata: Electronic Temperature           =     0.0019  Ry
redata: Fix the spin of the system       =     F
redata: Dynamics option                  =     Verlet MD run
redata: Initial MD time step             =        1
redata:   Final MD time step             =        1
redata: Length of MD time step           =     1.0000  fs
redata: Initial Temperature of MD run    =     0.0000  K
redata: Perform a MD quench              =     F
redata: ***********************************************************************
Total number of electrons:   271.000000
Total ionic charge:   271.000000

* ProcessorY, Blocksize:    3  24

k-point displ. along   1 input, could be:     0.50    0.00
k-point displ. along   2 input, could be:     0.50    0.00
 Kpoints in:          231 . Kpoints trimmed:          231

siesta: k-grid: Number of k-points =   231
siesta: k-grid: Cutoff (effective) =     5.000 Ang
siesta: k-grid: Supercell and displacements
siesta: k-grid:   21   0   0      0.500
siesta: k-grid:    0  21   0      0.500
siesta: k-grid:    0   0   1      0.000
Naive supercell factors:     2    2    2

superc: Internal auxiliary supercell:     2 x     2 x     2  =       8
superc: Number of atoms, orbitals, and projectors:    576   7488   9216

* Maximum dynamic memory allocated =     4 MB

siesta:                 ==============================
                            Begin MD step =      1
                        ==============================

superc: Internal auxiliary supercell:     2 x     2 x     2  =       8
superc: Number of atoms, orbitals, and projectors:    576   7488   9216

outcell: Unit cell vectors (Ang):
       12.804619    7.392750    0.000000
        0.000000   14.785500    0.000000
        0.000000    0.000000   10.000000

outcell: Cell vector modules (Ang)   :   14.785500   14.785500   10.000000
outcell: Cell angles (23,13,12) (deg):     90.0000     90.0000     60.0000
outcell: Cell volume (Ang**3)        :   1893.2269
New_DM. Step:     1
Initializing Density Matrix...

InitMesh: MESH =   120 x   120 x    90 =     1296000
InitMesh: Mesh cutoff (required, used) =   200.000   223.865 Ry

* Maximum dynamic memory allocated =   159 MB

stepf: Fermi-Dirac step function

siesta: Program's energy decomposition (eV):
siesta: Ebs     =     -5567.526116
siesta: Eions   =     16226.046981
siesta: Ena     =      4302.695742
siesta: Ekin    =      5481.631332
siesta: Enl     =       776.688996
siesta: DEna    =        -0.000009
siesta: DUscf   =         0.000000
siesta: DUext   =         0.000000
siesta: Exc     =     -4192.958122
siesta: eta*DQ  =         0.000000
siesta: Emadel  =         0.000000
siesta: Emeta   =         0.000000
siesta: Emolmec =         0.000000
siesta: Ekinion =         0.000000
siesta: Eharris =     -9601.908751
siesta: Etot    =     -9857.989043
siesta: FreeEng =     -9857.989043

siesta: iscf   Eharris(eV)      E_KS(eV)   FreeEng(eV)   dDmax  Ef(eV)
siesta:    1    -9601.9088    -9857.9890    -9857.9890  7.1874 -8.2789
timer: Routine,Calls,Time,% = IterSCF        1    3053.501  99.59
elaps: Routine,Calls,Wall,% = IterSCF        1     255.059  99.59
siesta:    2   -14293.2726    -8809.2704    -8809.3366 18.6799 -3.9255
siesta:    3    -9594.1750    -9688.6181    -9688.6510  2.5975 -6.1612
siesta:    4    -9541.6707    -9603.5392    -9603.5556  1.5759 -5.5672
siesta:    5    -9494.5180    -9535.8931    -9535.9416  1.3190 -5.4451
siesta:    6    -9472.8609    -9495.9877    -9496.0534  1.2746 -5.2232
siesta:    7    -9456.1824    -9475.5154    -9475.5573  1.0801 -5.1049
siesta:    8    -9449.4319    -9458.7221    -9458.7630  0.7605 -5.0651
siesta:    9    -9447.6033    -9451.6330    -9451.6836  0.6785 -5.1022
siesta:   10    -9446.9592    -9446.9716    -9447.0245  0.6257 -5.0834
siesta:   11    -9448.6287    -9430.8387    -9430.8938  0.7375 -5.0961
siesta:   12    -9446.4055    -9426.1440    -9426.2274  0.2842 -5.0215
siesta:   13    -9446.0380    -9424.8064    -9424.8849  0.2422 -5.0189
siesta:   14    -9445.8395    -9426.1198    -9426.1767  0.2612 -5.0053
siesta:   15    -9445.5646    -9429.8344    -9429.8912  0.4192 -5.0436
siesta:   16    -9445.4066    -9432.7083    -9432.7690  0.3322 -5.0545
siesta:   17    -9445.2147    -9438.3100    -9438.3844  0.2468 -5.0817
siesta:   18    -9445.1019    -9440.2452    -9440.3226  0.0737 -5.0818
siesta:   19    -9445.0757    -9442.1723    -9442.2455  0.0414 -5.0871
siesta:   20    -9445.0654    -9442.6838    -9442.7535  0.0325 -5.0845
siesta:   21    -9445.0568    -9443.2778    -9443.3432  0.0182 -5.0820
siesta:   22    -9445.0494    -9443.1373    -9443.2017  0.0271 -5.0783
siesta:   23    -9445.0478    -9443.3991    -9443.4645  0.0286 -5.0755
siesta:   24    -9445.0468    -9444.0939    -9444.1592  0.0194 -5.0734
siesta:   25    -9445.0467    -9444.6294    -9444.6946  0.0069 -5.0727
siesta:   26    -9445.0460    -9444.7611    -9444.8262  0.0064 -5.0741
siesta:   27    -9445.0459    -9445.0036    -9445.0690  0.0056 -5.0746
siesta:   28    -9445.0459    -9444.9518    -9445.0173  0.0056 -5.0748
siesta:   29    -9445.0460    -9445.0768    -9445.1422  0.0033 -5.0749
siesta:   30    -9445.0460    -9445.1489    -9445.2142  0.0016 -5.0751
siesta:   31    -9445.0460    -9445.0991    -9445.1644  0.0009 -5.0749
siesta:   32    -9445.0460    -9445.0813    -9445.1466  0.0009 -5.0748
siesta:   33    -9445.0460    -9445.0955    -9445.1607  0.0004 -5.0747
siesta:   34    -9445.0460    -9445.0853    -9445.1505  0.0003 -5.0747
siesta:   35    -9445.0460    -9445.0762    -9445.1415  0.0002 -5.0745
siesta:   36    -9445.0460    -9445.0682    -9445.1334  0.0001 -5.0745

siesta: E_KS(eV) =            -9445.0591

siesta: E_KS - E_eggbox =     -9445.0591

siesta: Atomic forces (eV/Ang):
----------------------------------------
   Tot   -0.113271    0.008457    0.000000
----------------------------------------
   Max  561.403202
   Res  143.874829    sqrt( Sum f_i^2 / 3N )
----------------------------------------
   Max  561.403202    constrained

Stress-tensor-Voigt (kbar):     -769.18    -2608.36       -0.59        8.45        0.00        0.00
(Free)E + p*V (eV/cell)    -8114.5395
Target enthalpy (eV/cell)    -9445.1243

siesta: Stress tensor (static) (eV/Ang**3):
        -0.480080    0.005275    0.000000
         0.005275   -1.627993    0.000000
         0.000000    0.000000   -0.000367

siesta: Pressure (static):       1126.04306548  kBar

siesta: Stress tensor (total) (eV/Ang**3):
        -0.480080    0.005275    0.000000
         0.005275   -1.627993    0.000000
         0.000000    0.000000   -0.000367

siesta: Pressure (total):       1126.04306548  kBar

siesta: Temp_ion =       0.000 K

* Maximum dynamic memory allocated =   172 MB
Computing bands...

siesta: Program's energy decomposition (eV):
siesta: Ebs     =     -4237.283468
siesta: Eions   =     16226.046981
siesta: Ena     =      4302.695742
siesta: Ekin    =      8337.458852
siesta: Enl     =      -842.842002
siesta: DEna    =      -758.646079
siesta: DUscf   =       101.146281
siesta: DUext   =         0.000000
siesta: Exc     =     -4358.824880
siesta: eta*DQ  =         0.000000
siesta: Emadel  =         0.000000
siesta: Emeta   =         0.000000
siesta: Emolmec =         0.000000
siesta: Ekinion =         0.000000
siesta: Eharris =     -9445.045977
siesta: Etot    =     -9445.059067
siesta: FreeEng =     -9445.124312

siesta: Final energy (eV):
siesta:  Band Struct. =   -4237.283468
siesta:       Kinetic =    8337.458852
siesta:       Hartree =   27331.321946
siesta:    Ext. field =       0.000000
siesta:   Exch.-corr. =   -4358.824880
siesta:  Ion-electron =  -62725.245305
siesta:       Ion-ion =   21970.230320
siesta:       Ekinion =       0.000000
siesta:         Total =   -9445.059067

siesta: Atomic forces (eV/Ang):
siesta:      1    6.122008  397.046518    0.000000
siesta:      2   -1.486267 -103.262547    0.000000
siesta:      3   22.960082  393.965777    0.000000
siesta:      4    5.674117   -5.603864    0.000000
siesta:      5    6.033001   -3.307911    0.000000
siesta:      6    1.859509    5.377730    0.000000
siesta:      7   10.294664  392.335474    0.000000
siesta:      8   -5.584154   -3.616538    0.000000
siesta:      9    4.260613    1.803512    0.000000
siesta:     10   -1.116713   -5.410492    0.000000
siesta:     11   -2.309481   -3.350005    0.000000
siesta:     12   -4.232202    1.084740    0.000000
siesta:     13    4.017807   -0.474810    0.000000
siesta:     14    0.859525 -411.746331    0.000000
siesta:     15    1.905715    1.320912    0.000000
siesta:     16   -2.328582    2.222757    0.000000
siesta:     17  -16.466430    2.828310    0.000000
siesta:     18    3.689523  407.997249    0.000000
siesta:     19    7.149414 -119.207927    0.000000
siesta:     20   -0.806306  124.542891    0.000000
siesta:     21  -16.963931 -548.415642    0.000000
siesta:     22    4.306961  125.704058    0.000000
siesta:     23   16.642391 -550.144472    0.000000
siesta:     24   23.938518   -2.807924    0.000000
siesta:     25   29.542288 -396.833085    0.000000
siesta:     26    2.636919    1.641281    0.000000
siesta:     27   -2.825520    2.594234    0.000000
siesta:     28    4.207451    5.631814    0.000000
siesta:     29   -1.320672   -0.913698    0.000000
siesta:     30  -25.703115    3.754921    0.000000
siesta:     31  -34.173184 -548.623012    0.000000
siesta:     32   28.096650   -3.060013    0.000000
siesta:     33   -3.159741   -1.880570    0.000000
siesta:     34    2.432485   -1.465243    0.000000
siesta:     35   -3.064232   -1.284379    0.000000
siesta:     36  -18.431396  553.168071    0.000000
siesta:     37    5.586096 -120.041394    0.000000
siesta:     38   -0.899717 -130.435692    0.000000
siesta:     39   23.041324  554.247622    0.000000
siesta:     40   22.005320   -6.471104    0.000000
siesta:     41   -0.905380    2.335832    0.000000
siesta:     42   -1.660898   -2.204375    0.000000
siesta:     43  -35.140274  548.276584    0.000000
siesta:     44  -26.762541   -5.924841    0.000000
siesta:     45  -21.739631  556.222333    0.000000
siesta:     46  -22.502756   -5.932679    0.000000
siesta:     47    0.347346  561.403202    0.000000
siesta:     48   -0.211334    1.251466    0.000000
siesta:     49   -0.819097   -0.348523    0.000000
siesta:     50   -0.936757   -3.682508    0.000000
siesta:     51    2.205066   -1.884980    0.000000
siesta:     52   -1.702304   -0.453990    0.000000
siesta:     53    0.979421    2.397611    0.000000
siesta:     54   -0.755995   -1.025729    0.000000
siesta:     55    0.774476   -3.520528    0.000000
siesta:     56    0.891657   -0.298268    0.000000
siesta:     57   -2.504462   -1.984275    0.000000
siesta:     58    0.618350   -3.283820    0.000000
siesta:     59   -0.143623    6.344259    0.000000
siesta:     60    0.884106   -6.751136    0.000000
siesta:     61   -6.599841    4.566930    0.000000
siesta:     62    2.182424    0.291336    0.000000
siesta:     63   -1.957782    3.090595    0.000000
siesta:     64   21.862986   -0.900680    0.000000
siesta:     65   30.858074 -410.167960    0.000000
siesta:     66  -27.912748 -554.585167    0.000000
siesta:     67   -7.342823    2.515206    0.000000
siesta:     68    2.616948    2.030701    0.000000
siesta:     69    2.180996  121.179247    0.000000
siesta:     70   -2.851371 -398.443207    0.000000
siesta:     71   -0.062364  129.617136    0.000000
siesta:     72   -0.393875 -549.032526    0.000000
siesta: ----------------------------------------
siesta:    Tot   -0.113271    0.008457    0.000000

siesta: Stress tensor (static) (eV/Ang**3):
siesta:    -0.480080    0.005275    0.000000
siesta:     0.005275   -1.627993    0.000000
siesta:     0.000000    0.000000   -0.000367

siesta: Cell volume =       1893.226884 Ang**3

siesta: Pressure (static):
siesta:                Solid            Molecule  Units
siesta:           0.00765453          0.10972542  Ry/Bohr**3
siesta:           0.70281320         10.07461483  eV/Ang**3
siesta:        1126.04306548      16141.48695028  kBar
(Free)E+ p_basis*V_orbitals  =       -9409.015487
(Free)Eharris+ p_basis*V_orbitals  =       -9408.993282

siesta: Electric dipole (a.u.)  =    0.000000    0.000000    0.000000
siesta: Electric dipole (Debye) =    0.000000    0.000000    0.000000

* Maximum dynamic memory allocated : Node    0 =   172 MB
* Maximum dynamic memory allocated : Node    1 =    68 MB
* Maximum dynamic memory allocated : Node    2 =    70 MB
* Maximum dynamic memory allocated : Node    3 =   157 MB
* Maximum dynamic memory allocated : Node    4 =   165 MB
* Maximum dynamic memory allocated : Node    5 =    61 MB
* Maximum dynamic memory allocated : Node    6 =    62 MB
* Maximum dynamic memory allocated : Node    7 =   157 MB
* Maximum dynamic memory allocated : Node    8 =   152 MB
* Maximum dynamic memory allocated : Node    9 =    60 MB
* Maximum dynamic memory allocated : Node   10 =    62 MB
* Maximum dynamic memory allocated : Node   11 =   145 MB

* Maximum memory occured during matrixMtoO                    

timer: CPU execution times:
timer:  Routine       Calls   Time/call    Tot.time        %
timer:  siesta            1  106991.985  106991.985   100.00
timer:  Setup             1       3.405       3.405     0.00
timer:  bands             3     226.318     678.955     0.63
timer:  writewave         1       0.024       0.024     0.00
timer:  KSV_init          1       0.005       0.005     0.00
timer:  IterMD            1  106302.743  106302.743    99.36
timer:  hsparse           1       0.285       0.285     0.00
timer:  overlap           1       7.619       7.619     0.01
timer:  IterSCF          36    2948.536  106147.285    99.21
timer:  kinefsm           2       3.879       7.759     0.01
timer:  nlefsm            2      20.453      40.906     0.04
timer:  DHSCF            37      83.076    3073.803     2.87
timer:  DHSCF1            1       1.190       1.190     0.00
timer:  DHSCF2            1      32.894      32.894     0.03
timer:  REORD           298       0.002       0.702     0.00
timer:  POISON           38       0.449      17.047     0.02
timer:  DHSCF3           37      81.385    3011.233     2.81
timer:  rhoofd           37      17.575     650.268     0.61
timer:  cellXC           37       2.446      90.491     0.08
timer:  vmat             37      37.254    1378.405     1.29
timer:  MolMec            2       0.000       0.000     0.00
timer:  diagon           36    2864.200  103111.201    96.37
timer:  c-eigval       8437       5.577   47055.372    43.98
timer:  c-buildHS      8437       0.037     307.952     0.29
timer:  cdiag         16753       5.676   95090.646    88.88
timer:  cdiag1        16753       0.262    4395.770     4.11
timer:  cdiag2        16753       1.833   30700.454    28.69
timer:  cdiag3        16753       3.369   56436.734    52.75
timer:  cdiag4        16753       0.087    1462.026     1.37
timer:  c-eigvec       8316       5.844   48600.989    45.42
timer:  c-buildD       8316       0.973    8087.629     7.56
timer:  DHSCF4            1      28.240      28.240     0.03
timer:  dfscf             1      26.128      26.128     0.02
timer:  overfsm           1       0.331       0.331     0.00
timer:  optical           1       6.289       6.289     0.01
  

elaps: ELAPSED times:
elaps:  Routine       Calls   Time/call    Tot.time        %
elaps:  siesta            1    8936.950    8936.950   100.00
elaps:  Setup             1       0.283       0.283     0.00
elaps:  bands             3      18.919      56.758     0.64
elaps:  writewave         1       0.002       0.002     0.00
elaps:  KSV_init          1       0.000       0.000     0.00
elaps:  IterMD            1    8879.379    8879.379    99.36
elaps:  hsparse           1       0.028       0.028     0.00
elaps:  overlap           1       0.717       0.717     0.01
elaps:  IterSCF          36     246.289    8866.394    99.21
elaps:  kinefsm           2       0.370       0.739     0.01
elaps:  nlefsm            2       1.837       3.675     0.04
elaps:  DHSCF            37       7.002     259.072     2.90
elaps:  DHSCF1            1       0.101       0.101     0.00
elaps:  DHSCF2            1       2.746       2.746     0.03
elaps:  REORD           298       0.000       0.089     0.00
elaps:  POISON           38       0.038       1.436     0.02
elaps:  DHSCF3           37       6.798     251.544     2.81
elaps:  rhoofd           37       3.435     127.086     1.42
elaps:  cellXC           37       0.204       7.543     0.08
elaps:  vmat             37       3.112     115.159     1.29
elaps:  MolMec            2       0.000       0.000     0.00
elaps:  diagon           36     239.251    8613.047    96.38
elaps:  c-eigval       8437       0.466    3930.440    43.98
elaps:  c-buildHS      8437       0.004      33.217     0.37
elaps:  cdiag         16753       0.469    7855.326    87.90
elaps:  cdiag1        16753       0.021     358.759     4.01
elaps:  cdiag2        16753       0.153    2566.690    28.72
elaps:  cdiag3        16753       0.282    4721.012    52.83
elaps:  cdiag4        16753       0.007     118.076     1.32
elaps:  c-eigvec       8316       0.479    3985.762    44.60
elaps:  c-buildD       8316       0.090     749.274     8.38
elaps:  DHSCF4            1       4.635       4.635     0.05
elaps:  dfscf             1       4.374       4.374     0.05
elaps:  overfsm           1       0.036       0.036     0.00
elaps:  optical           1       0.000       0.000     0.00
  
>> End of run:   1-MAY-2016   2:19:58
