Siesta Version:                                        siesta-3.2-pl-3
Architecture  : x86_64-unknown-linux-gnu--unknown
Compiler flags: mpiifort -g -O2 -fPIC -xSSE4.1 -fp-model source -shared-intel 
PARALLEL version

* Running on   12 nodes in parallel
>> Start of run:   4-MAY-2016   7:59:16

                           ***********************       
                           *  WELCOME TO SIESTA  *       
                           ***********************       

reinit: Reading from standard input
************************** Dump of input data file ****************************
#(1) General system descriptors
SystemName            GRP_doping    # Descriptive name of the system
SystemLabel           GRP_doping    # Short name for naming files
%include STRUCT.fdf
%include KPT.fdf
%include BASIS.fdf
#%include TS.fdf # for transiesta calculation
#(4) DFT, Grid, SCF
XC.functional         GGA           # LDA or GGA (default = LDA)
XC.authors            PBE           # CA (Ceperley-Aldr) = PZ
                                    #    (Perdew-Zunger) - LDA - Default
                                    # PW92 (Perdew-Wang-92) - LDA
                                    # PBE (Perdew-Burke-Ernzerhof) - GGA
MeshCutoff            200.000000    Ry      # Default: 50.0 Ry ~ 0.444 Bohr
                                    #         100.0 Ry ~ 0.314 Bohr
MaxSCFIterations      500           # Default: 50
DM.MixingWeight       0.05          # Default: 0.25
DM.NumberPulay        10            # Default: 0
DM.PulayOnFile        F             # SystemLabel.P1, SystemLabel.P2
DM.Tolerance          1.d-4         # Default: 1.d-4
DM.UseSaveDM          .true.        # because of the bug
SCFMustConverge       .true.
NeglNonOverlapInt     F             # Default: F
#(5) Eigenvalue problem: order-N or diagonalization
SolutionMethod        Diagon        # or Transiesta
ElectronicTemperature 300.0 K       # Default: 300.0 K
#(6) Molecular dynamics and relaxations
#MD.TypeOfRun          CG            # Type of dynamics:
#MD.VariableCell       F
#MD.NumCGsteps         0           # 0 for single-point / 100 for gopt
#MD.MaxCGDispl         0.2 Bohr      # Default: 0.2 Bohr
#MD.MaxForceTol        0.02 eV/Ang   # Default: 0.04 eV/Ang
#MD.MaxStressTol       1.0 GPa       # Default: 1.0 GPa
# Geometry Constraints
#%block GeometryConstraints
#	position from 1 to 44
#%endblock GeometryConstraints
BandLinesScale   pi/a
%block BandLines
 1   0.00000000  0.00000000  0.00000000
50   0.00000000  0.07809418  0.00000000
50   0.04509075  0.07809242  0.00000000
20   0.00000000  0.00000000  0.00000000
%endblock BandLines
************************** End of input data file *****************************

reinit: -----------------------------------------------------------------------
reinit: System Name: GRP_doping
reinit: -----------------------------------------------------------------------
reinit: System Label: GRP_doping                                                  
reinit: -----------------------------------------------------------------------

initatom: Reading input for the pseudopotentials and atomic orbitals ----------
 Species number:            1  Label: B Atomic number:           5
 Species number:            2  Label: C Atomic number:           6
Ground state valence configuration:   2s02  2p01
Reading pseudopotential information in formatted form from B.psf

Valence configuration for pseudopotential generation:
2s( 2.00) rc: 1.74
2p( 1.00) rc: 1.74
3d( 0.00) rc: 1.74
4f( 0.00) rc: 1.74
Ground state valence configuration:   2s02  2p02
Reading pseudopotential information in formatted form from C.psf

Valence configuration for pseudopotential generation:
2s( 2.00) rc: 1.54
2p( 2.00) rc: 1.54
3d( 0.00) rc: 1.54
4f( 0.00) rc: 1.54
For B, standard SIESTA heuristics set lmxkb to 3
 (one more than the basis l, including polarization orbitals).
Use PS.lmax or PS.KBprojectors blocks to override.
For C, standard SIESTA heuristics set lmxkb to 3
 (one more than the basis l, including polarization orbitals).
Use PS.lmax or PS.KBprojectors blocks to override.

<basis_specs>
===============================================================================
B                    Z=   5    Mass=  10.810        Charge= 0.17977+309
Lmxo=1 Lmxkb= 3    BasisType=split      Semic=F
L=0  Nsemic=0  Cnfigmx=2
          n=1  nzeta=2  polorb=0
            splnorm:   0.15000    
               vcte:    0.0000    
               rinn:    0.0000    
                rcs:    0.0000      0.0000    
            lambdas:    1.0000      1.0000    
L=1  Nsemic=0  Cnfigmx=2
          n=1  nzeta=2  polorb=1
            splnorm:   0.15000    
               vcte:    0.0000    
               rinn:    0.0000    
                rcs:    0.0000      0.0000    
            lambdas:    1.0000      1.0000    
-------------------------------------------------------------------------------
L=0  Nkbl=1  erefs: 0.17977+309
L=1  Nkbl=1  erefs: 0.17977+309
L=2  Nkbl=1  erefs: 0.17977+309
L=3  Nkbl=1  erefs: 0.17977+309
===============================================================================
</basis_specs>

atom: Called for B                     (Z =   5)

read_vps: Pseudopotential generation method:
read_vps: ATM3      Troullier-Martins                       
Total valence charge:    3.00000

read_vps: Pseudopotential includes a core correction:
read_vps: Pseudo-core for xc-correction

xc_check: Exchange-correlation functional:
xc_check: GGA Perdew, Burke & Ernzerhof 1996
V l=0 = -2*Zval/r beyond r=  1.7165
V l=1 = -2*Zval/r beyond r=  1.7165
V l=2 = -2*Zval/r beyond r=  1.7165
V l=3 = -2*Zval/r beyond r=  1.6951
All V_l potentials equal beyond r=  1.7165
This should be close to max(r_c) in ps generation
All pots = -2*Zval/r beyond r=  1.7165

VLOCAL1: 99.0% of the norm of Vloc inside     14.733 Ry
VLOCAL1: 99.9% of the norm of Vloc inside     33.577 Ry
atom: Maximum radius for 4*pi*r*r*local-pseudopot. charge    2.04484
atom: Maximum radius for r*vlocal+2*Zval:    1.75994
GHOST: No ghost state for L =  0
GHOST: No ghost state for L =  1
GHOST: No ghost state for L =  2
GHOST: No ghost state for L =  3

KBgen: Kleinman-Bylander projectors: 
   l= 0   rc=  1.897051   el= -0.693730   Ekb=  4.595746   kbcos=  0.286105
   l= 1   rc=  1.920920   el= -0.265236   Ekb= -2.350715   kbcos= -0.315747
   l= 2   rc=  2.044840   el=  0.002055   Ekb= -0.690767   kbcos= -0.013822
   l= 3   rc=  2.149707   el=  0.003188   Ekb= -0.315358   kbcos= -0.002055

KBgen: Total number of  Kleinman-Bylander projectors:   16
atom: -------------------------------------------------------------------------

atom: SANKEY-TYPE ORBITALS:
atom: Selected multiple-zeta basis: split     

SPLIT: Orbitals with angular momentum L= 0

SPLIT: Basis orbitals for state 2s

SPLIT: PAO cut-off radius determined from an
SPLIT: energy shift=  0.007350 Ry

   izeta = 1
                 lambda =    1.000000
                     rc =    5.422032
                 energy =   -0.686029
                kinetic =    0.576707
    potential(screened) =   -1.262736
       potential(ionic) =   -3.271094

   izeta = 2
                 rmatch =    4.222573
              splitnorm =    0.150000
                 energy =   -0.602132
                kinetic =    0.858975
    potential(screened) =   -1.461107
       potential(ionic) =   -3.582536

SPLIT: Orbitals with angular momentum L= 1

SPLIT: Basis orbitals for state 2p

SPLIT: PAO cut-off radius determined from an
SPLIT: energy shift=  0.007350 Ry

   izeta = 1
                 lambda =    1.000000
                     rc =    6.790259
                 energy =   -0.258578
                kinetic =    1.481412
    potential(screened) =   -1.739989
       potential(ionic) =   -3.657461

   izeta = 2
                 rmatch =    4.608740
              splitnorm =    0.150000
                 energy =   -0.173757
                kinetic =    2.186690
    potential(screened) =   -2.360447
       potential(ionic) =   -4.464260

POLgen: Perturbative polarization orbital with L=  2

POLgen: Polarization orbital for state 2p

   izeta = 1
                     rc =    6.790259
                 energy =    0.684082
                kinetic =    1.471481
    potential(screened) =   -0.787399
       potential(ionic) =   -2.406985
atom: Total number of Sankey-type orbitals: 13

atm_pop: Valence configuration (for local Pseudopot. screening):
 2s( 2.00)                                                            
 2p( 1.00)                                                            
Vna: chval, zval:    3.00000   3.00000

Vna:  Cut-off radius for the neutral-atom potential:   6.790259
comcore: Pseudo-core radius Rcore=  2.122997

atom: _________________________________________________________________________

<basis_specs>
===============================================================================
C                    Z=   6    Mass=  12.010        Charge= 0.17977+309
Lmxo=1 Lmxkb= 3    BasisType=split      Semic=F
L=0  Nsemic=0  Cnfigmx=2
          n=1  nzeta=2  polorb=0
            splnorm:   0.15000    
               vcte:    0.0000    
               rinn:    0.0000    
                rcs:    0.0000      0.0000    
            lambdas:    1.0000      1.0000    
L=1  Nsemic=0  Cnfigmx=2
          n=1  nzeta=2  polorb=1
            splnorm:   0.15000    
               vcte:    0.0000    
               rinn:    0.0000    
                rcs:    0.0000      0.0000    
            lambdas:    1.0000      1.0000    
-------------------------------------------------------------------------------
L=0  Nkbl=1  erefs: 0.17977+309
L=1  Nkbl=1  erefs: 0.17977+309
L=2  Nkbl=1  erefs: 0.17977+309
L=3  Nkbl=1  erefs: 0.17977+309
===============================================================================
</basis_specs>

atom: Called for C                     (Z =   6)

read_vps: Pseudopotential generation method:
read_vps: ATM3      Troullier-Martins                       
Total valence charge:    4.00000

read_vps: Pseudopotential includes a core correction:
read_vps: Pseudo-core for xc-correction

xc_check: Exchange-correlation functional:
xc_check: GGA Perdew, Burke & Ernzerhof 1996
V l=0 = -2*Zval/r beyond r=  1.5227
V l=1 = -2*Zval/r beyond r=  1.5227
V l=2 = -2*Zval/r beyond r=  1.5227
V l=3 = -2*Zval/r beyond r=  1.5038
All V_l potentials equal beyond r=  1.5227
This should be close to max(r_c) in ps generation
All pots = -2*Zval/r beyond r=  1.5227

VLOCAL1: 99.0% of the norm of Vloc inside     18.722 Ry
VLOCAL1: 99.9% of the norm of Vloc inside     42.668 Ry
atom: Maximum radius for 4*pi*r*r*local-pseudopot. charge    1.83678
atom: Maximum radius for r*vlocal+2*Zval:    1.58088
GHOST: No ghost state for L =  0
GHOST: No ghost state for L =  1
GHOST: No ghost state for L =  2
GHOST: No ghost state for L =  3

KBgen: Kleinman-Bylander projectors: 
   l= 0   rc=  1.704034   el= -1.009801   Ekb=  5.335044   kbcos=  0.316824
   l= 1   rc=  1.704034   el= -0.388707   Ekb= -3.785862   kbcos= -0.366464
   l= 2   rc=  1.791422   el=  0.001971   Ekb= -0.970471   kbcos= -0.009212
   l= 3   rc=  1.859892   el=  0.003065   Ekb= -0.399525   kbcos= -0.001223

KBgen: Total number of  Kleinman-Bylander projectors:   16
atom: -------------------------------------------------------------------------

atom: SANKEY-TYPE ORBITALS:
atom: Selected multiple-zeta basis: split     

SPLIT: Orbitals with angular momentum L= 0

SPLIT: Basis orbitals for state 2s

SPLIT: PAO cut-off radius determined from an
SPLIT: energy shift=  0.007350 Ry

   izeta = 1
                 lambda =    1.000000
                     rc =    4.632753
                 energy =   -1.002270
                kinetic =    0.855760
    potential(screened) =   -1.858031
       potential(ionic) =   -5.417575

   izeta = 2
                 rmatch =    3.431921
              splitnorm =    0.150000
                 energy =   -0.867111
                kinetic =    1.300804
    potential(screened) =   -2.167915
       potential(ionic) =   -5.962684

SPLIT: Orbitals with angular momentum L= 1

SPLIT: Basis orbitals for state 2p

SPLIT: PAO cut-off radius determined from an
SPLIT: energy shift=  0.007350 Ry

   izeta = 1
                 lambda =    1.000000
                     rc =    5.658549
                 energy =   -0.381140
                kinetic =    2.399701
    potential(screened) =   -2.780841
       potential(ionic) =   -6.206085

   izeta = 2
                 rmatch =    3.653288
              splitnorm =    0.150000
                 energy =   -0.249149
                kinetic =    3.542762
    potential(screened) =   -3.791911
       potential(ionic) =   -7.581078

POLgen: Perturbative polarization orbital with L=  2

POLgen: Polarization orbital for state 2p

   izeta = 1
                     rc =    5.658549
                 energy =    1.109913
                kinetic =    2.304789
    potential(screened) =   -1.194876
       potential(ionic) =   -4.013592
atom: Total number of Sankey-type orbitals: 13

atm_pop: Valence configuration (for local Pseudopot. screening):
 2s( 2.00)                                                            
 2p( 2.00)                                                            
Vna: chval, zval:    4.00000   4.00000

Vna:  Cut-off radius for the neutral-atom potential:   5.658549
comcore: Pseudo-core radius Rcore=  1.791422

atom: _________________________________________________________________________

prinput: Basis input ----------------------------------------------------------

PAO.BasisType split     

%block ChemicalSpeciesLabel
    1    5 B                       # Species index, atomic number, species label
    2    6 C                       # Species index, atomic number, species label
%endblock ChemicalSpeciesLabel

%block PAO.Basis                 # Define Basis set
B                     2                    # Species label, number of l-shells
 n=2   0   2                         # n, l, Nzeta 
   5.422      4.223   
   1.000      1.000   
 n=2   1   2 P   1                   # n, l, Nzeta, Polarization, NzetaPol
   6.790      4.609   
   1.000      1.000   
C                     2                    # Species label, number of l-shells
 n=2   0   2                         # n, l, Nzeta 
   4.633      3.432   
   1.000      1.000   
 n=2   1   2 P   1                   # n, l, Nzeta, Polarization, NzetaPol
   5.659      3.653   
   1.000      1.000   
%endblock PAO.Basis

prinput: ----------------------------------------------------------------------

coor:   Atomic-coordinates input format  =     Fractional

siesta: Atomic coordinates (Bohr) and species
siesta:     -0.02582   5.28395   0.00000  1        1
siesta:      2.30256  38.89134   0.00000  1        2
siesta:     -4.68258  34.85847   0.00000  1        3
siesta:      2.30256  17.38257   0.00000  1        4
siesta:     -4.68258  21.41544   0.00000  1        5
siesta:     -9.33934  26.79272   0.00000  1        6
siesta:      2.30256  30.82560   0.00000  1        7
siesta:     -0.02582   2.59549   0.00000  2        8
siesta:     -2.35420  38.89134   0.00000  2        9
siesta:     -2.35420  41.57980   0.00000  2       10
siesta:      2.30256  41.57980   0.00000  2       11
siesta:      4.63094  34.85847   0.00000  2       12
siesta:      4.63094  37.54693   0.00000  2       13
siesta:      6.95932  30.82560   0.00000  2       14
siesta:      6.95932  33.51406   0.00000  2       15
siesta:      9.28770  26.79272   0.00000  2       16
siesta:      9.28770  29.48119   0.00000  2       17
siesta:     -4.68258  37.54693   0.00000  2       18
siesta:      2.30256   6.62836   0.00000  2       19
siesta:      2.30256   9.31683   0.00000  2       20
siesta:      4.63094  10.66124   0.00000  2       21
siesta:      4.63094  13.34970   0.00000  2       22
siesta:      6.95932  14.69411   0.00000  2       23
siesta:      6.95932  17.38257   0.00000  2       24
siesta:      9.28770  18.72698   0.00000  2       25
siesta:      9.28770  21.41544   0.00000  2       26
siesta:     11.61608  22.75985   0.00000  2       27
siesta:     11.61608  25.44831   0.00000  2       28
siesta:     -2.35420   6.62836   0.00000  2       29
siesta:     -2.35420   9.31683   0.00000  2       30
siesta:     -0.02582  10.66124   0.00000  2       31
siesta:     -0.02582  13.34970   0.00000  2       32
siesta:      2.30256  14.69411   0.00000  2       33
siesta:      4.63094  18.72698   0.00000  2       34
siesta:      4.63094  21.41544   0.00000  2       35
siesta:      6.95932  22.75985   0.00000  2       36
siesta:      6.95932  25.44831   0.00000  2       37
siesta:     -4.68258  10.66124   0.00000  2       38
siesta:     -4.68258  13.34970   0.00000  2       39
siesta:     -2.35420  14.69411   0.00000  2       40
siesta:     -2.35420  17.38257   0.00000  2       41
siesta:     -0.02582  18.72698   0.00000  2       42
siesta:     -0.02582  21.41544   0.00000  2       43
siesta:      2.30256  22.75985   0.00000  2       44
siesta:      2.30256  25.44831   0.00000  2       45
siesta:     -7.01096  14.69411   0.00000  2       46
siesta:     -7.01096  17.38257   0.00000  2       47
siesta:     -4.68258  18.72698   0.00000  2       48
siesta:     -2.35420  22.75985   0.00000  2       49
siesta:     -2.35420  25.44831   0.00000  2       50
siesta:     -9.33934  18.72698   0.00000  2       51
siesta:     -9.33934  21.41544   0.00000  2       52
siesta:     -7.01096  22.75985   0.00000  2       53
siesta:     -7.01096  25.44831   0.00000  2       54
siesta:    -11.66772  22.75985   0.00000  2       55
siesta:    -11.66772  25.44831   0.00000  2       56
siesta:     -9.33934  29.48119   0.00000  2       57
siesta:      4.63094  26.79272   0.00000  2       58
siesta:      4.63094  29.48119   0.00000  2       59
siesta:     -0.02582  26.79272   0.00000  2       60
siesta:     -0.02582  29.48119   0.00000  2       61
siesta:     -4.68258  26.79272   0.00000  2       62
siesta:     -4.68258  29.48119   0.00000  2       63
siesta:      2.30256  33.51406   0.00000  2       64
siesta:     -2.35420  30.82560   0.00000  2       65
siesta:     -2.35420  33.51406   0.00000  2       66
siesta:     -7.01096  30.82560   0.00000  2       67
siesta:     -7.01096  33.51406   0.00000  2       68
siesta:     -0.02582  34.85847   0.00000  2       69
siesta:     -0.02582  37.54693   0.00000  2       70
siesta:     -0.02582  42.92421   0.00000  2       71
siesta:     -0.02582  45.61267   0.00000  2       72

siesta: System type = slab      

initatomlists: Number of atoms, orbitals, and projectors:     72   936  1152

siesta: ******************** Simulation parameters ****************************
siesta:
siesta: The following are some of the parameters of the simulation.
siesta: A complete list of the parameters used, including default values,
siesta: can be found in file out.fdf
siesta:
redata: Non-Collinear-spin run           =     F
redata: SpinPolarized (Up/Down) run      =     F
redata: Number of spin components        =     1
redata: Long output                      =     F
redata: Number of Atomic Species         =        2
redata: Charge density info will appear in .RHO file
redata: Write Mulliken Pop.              =     NO
redata: Mesh Cutoff                      =   200.0000  Ry
redata: Net charge of the system         =     0.0000 |e|
redata: Max. number of SCF Iter          =      500
redata: SCF convergence failure will abort job
redata: Performing Pulay mixing using    =    10 iterations
redata: Mix DM in first SCF step ?       =     F
redata: Write Pulay info on disk?        =     F
redata: Discard 1st Pulay DM after  kick =     F
redata: New DM Mixing Weight             =     0.0500
redata: New DM Occupancy tolerance       = 0.000000000001
redata: No kicks to SCF
redata: DM Mixing Weight for Kicks       =     0.5000
redata: DM Tolerance for SCF             =     0.000100
redata: Require Energy convergence for SCF =     F
redata: DM Energy tolerance for SCF      =     0.000100 eV
redata: Require Harris convergence for SCF =     F
redata: DM Harris energy tolerance for SCF =     0.000100 eV
redata: Using Saved Data (generic)   =     F
redata: Use continuation files for DM    =     T
redata: Neglect nonoverlap interactions  =     F
redata: Method of Calculation            =     Diagonalization
redata: Divide and Conquer               =     T
redata: Electronic Temperature           =     0.0019  Ry
redata: Fix the spin of the system       =     F
redata: Dynamics option                  =     Verlet MD run
redata: Initial MD time step             =        1
redata:   Final MD time step             =        1
redata: Length of MD time step           =     1.0000  fs
redata: Initial Temperature of MD run    =     0.0000  K
redata: Perform a MD quench              =     F
redata: ***********************************************************************
Total number of electrons:   281.000000
Total ionic charge:   281.000000

* ProcessorY, Blocksize:    3  24

k-point displ. along   1 input, could be:     0.50    0.00
k-point displ. along   2 input, could be:     0.50    0.00
 Kpoints in:          231 . Kpoints trimmed:          231

siesta: k-grid: Number of k-points =   231
siesta: k-grid: Cutoff (effective) =     5.000 Ang
siesta: k-grid: Supercell and displacements
siesta: k-grid:   21   0   0      0.500
siesta: k-grid:    0  21   0      0.500
siesta: k-grid:    0   0   1      0.000
Naive supercell factors:     2    2    2

superc: Internal auxiliary supercell:     2 x     2 x     2  =       8
superc: Number of atoms, orbitals, and projectors:    576   7488   9216

* Maximum dynamic memory allocated =     4 MB

siesta:                 ==============================
                            Begin MD step =      1
                        ==============================

superc: Internal auxiliary supercell:     2 x     2 x     2  =       8
superc: Number of atoms, orbitals, and projectors:    576   7488   9216

outcell: Unit cell vectors (Ang):
       12.804619    7.392750    0.000000
        0.000000   14.785500    0.000000
        0.000000    0.000000   10.000000

outcell: Cell vector modules (Ang)   :   14.785500   14.785500   10.000000
outcell: Cell angles (23,13,12) (deg):     90.0000     90.0000     60.0000
outcell: Cell volume (Ang**3)        :   1893.2269
New_DM. Step:     1
Initializing Density Matrix...

InitMesh: MESH =   120 x   120 x    90 =     1296000
InitMesh: Mesh cutoff (required, used) =   200.000   223.865 Ry

* Maximum dynamic memory allocated =   150 MB

stepf: Fermi-Dirac step function

siesta: Program's energy decomposition (eV):
siesta: Ebs     =     -5800.632536
siesta: Eions   =     17506.614093
siesta: Ena     =      4568.389104
siesta: Ekin    =      6009.009694
siesta: Enl     =       697.342555
siesta: DEna    =        -0.000013
siesta: DUscf   =         0.000000
siesta: DUext   =         0.000000
siesta: Exc     =     -4176.177089
siesta: eta*DQ  =         0.000000
siesta: Emadel  =         0.000000
siesta: Emeta   =         0.000000
siesta: Emolmec =         0.000000
siesta: Ekinion =         0.000000
siesta: Eharris =    -10147.205785
siesta: Etot    =    -10408.049841
siesta: FreeEng =    -10408.049841

siesta: iscf   Eharris(eV)      E_KS(eV)   FreeEng(eV)   dDmax  Ef(eV)
siesta:    1   -10147.2058   -10408.0498   -10408.0498  7.7539 -7.8401
timer: Routine,Calls,Time,% = IterSCF        1    3037.446  99.59
elaps: Routine,Calls,Wall,% = IterSCF        1     253.722  99.59
siesta:    2   -14441.9536    -9448.2222    -9448.2858 10.8737 -3.7683
siesta:    3   -10204.8252   -10182.2588   -10182.3137  1.7190 -4.6386
siesta:    4   -10106.8367   -10127.1719   -10127.2129  1.4806 -4.6068
siesta:    5   -10009.2277   -10054.2171   -10054.2758  0.9326 -4.8693
siesta:    6   -10004.8113   -10028.6380   -10028.6880  0.6934 -4.9318
siesta:    7    -9995.9479   -10013.2223   -10013.2605  0.5634 -4.7534
siesta:    8    -9995.5712   -10005.1736   -10005.2218  0.5221 -4.6596
siesta:    9    -9995.6069    -9996.8863    -9996.9565  0.4359 -4.5294
siesta:   10    -9994.9902    -9991.3811    -9991.4462  0.3488 -4.5540
siesta:   11    -9994.0328    -9986.0989    -9986.1827  0.2783 -4.5253
siesta:   12    -9993.9812    -9980.7489    -9980.7946  0.2210 -4.5217
siesta:   13    -9992.7378    -9980.3511    -9980.4126  0.1731 -4.6548
siesta:   14    -9992.3722    -9982.0887    -9982.1376  0.1699 -4.6643
siesta:   15    -9992.0781    -9982.9882    -9983.0600  0.1298 -4.6311
siesta:   16    -9992.0080    -9984.0911    -9984.1641  0.1090 -4.6426
siesta:   17    -9991.8985    -9984.6284    -9984.7052  0.1026 -4.6535
siesta:   18    -9991.7831    -9986.1615    -9986.2250  0.0817 -4.6602
siesta:   19    -9991.7276    -9988.9056    -9988.9673  0.0687 -4.6695
siesta:   20    -9991.7007    -9990.0882    -9990.1509  0.0400 -4.6831
siesta:   21    -9991.6908    -9990.5587    -9990.6349  0.0295 -4.6818
siesta:   22    -9991.6889    -9991.3344    -9991.4060  0.0346 -4.6827
siesta:   23    -9991.6894    -9991.9790    -9992.0496  0.0349 -4.6769
siesta:   24    -9991.6843    -9992.1336    -9992.2047  0.0260 -4.6738
siesta:   25    -9991.6805    -9992.2778    -9992.3512  0.0124 -4.6725
siesta:   26    -9991.6824    -9992.2327    -9992.3075  0.0105 -4.6722
siesta:   27    -9991.6811    -9992.2149    -9992.2872  0.0061 -4.6716
siesta:   28    -9991.6810    -9992.0994    -9992.1721  0.0033 -4.6711
siesta:   29    -9991.6807    -9992.0099    -9992.0825  0.0022 -4.6707
siesta:   30    -9991.6802    -9991.9390    -9992.0118  0.0018 -4.6706
siesta:   31    -9991.6804    -9991.8777    -9991.9510  0.0012 -4.6706
siesta:   32    -9991.6805    -9991.8432    -9991.9162  0.0010 -4.6707
siesta:   33    -9991.6805    -9991.7764    -9991.8494  0.0005 -4.6705
siesta:   34    -9991.6804    -9991.7550    -9991.8280  0.0003 -4.6705
siesta:   35    -9991.6804    -9991.7316    -9991.8045  0.0002 -4.6705
siesta:   36    -9991.6804    -9991.7108    -9991.7838  0.0003 -4.6705
siesta:   37    -9991.6804    -9991.6991    -9991.7721  0.0001 -4.6706
siesta:   38    -9991.6804    -9991.6895    -9991.7625  0.0001 -4.6705

siesta: E_KS(eV) =            -9991.6867

siesta: E_KS - E_eggbox =     -9991.6867

siesta: Atomic forces (eV/Ang):
----------------------------------------
   Tot   -0.133744   -0.077821    0.000000
----------------------------------------
   Max  566.438445
   Res  161.124298    sqrt( Sum f_i^2 / 3N )
----------------------------------------
   Max  566.438445    constrained

Stress-tensor-Voigt (kbar):     -733.99    -2825.74       -0.33       -2.03        0.00        0.00
(Free)E + p*V (eV/cell)    -8589.5165
Target enthalpy (eV/cell)    -9991.7597

siesta: Stress tensor (static) (eV/Ang**3):
        -0.458114   -0.001270    0.000000
        -0.001269   -1.763666    0.000000
         0.000000    0.000000   -0.000209

siesta: Pressure (static):       1186.68583202  kBar

siesta: Stress tensor (total) (eV/Ang**3):
        -0.458114   -0.001270    0.000000
        -0.001269   -1.763666    0.000000
         0.000000    0.000000   -0.000209

siesta: Pressure (total):       1186.68583202  kBar

siesta: Temp_ion =       0.000 K

* Maximum dynamic memory allocated =   163 MB
Computing bands...

siesta: Program's energy decomposition (eV):
siesta: Ebs     =     -4452.899530
siesta: Eions   =     17506.614093
siesta: Ena     =      4568.389104
siesta: Ekin    =      8952.443468
siesta: Enl     =      -959.892508
siesta: DEna    =      -804.267961
siesta: DUscf   =       108.655952
siesta: DUext   =         0.000000
siesta: Exc     =     -4350.400649
siesta: eta*DQ  =         0.000000
siesta: Emadel  =         0.000000
siesta: Emeta   =         0.000000
siesta: Emolmec =         0.000000
siesta: Ekinion =         0.000000
siesta: Eharris =     -9991.680430
siesta: Etot    =     -9991.686686
siesta: FreeEng =     -9991.759671

siesta: Final energy (eV):
siesta:  Band Struct. =   -4452.899530
siesta:       Kinetic =    8952.443468
siesta:       Hartree =   28996.593915
siesta:    Ext. field =       0.000000
siesta:   Exch.-corr. =   -4350.400649
siesta:  Ion-electron =  -66643.847177
siesta:       Ion-ion =   23053.523756
siesta:       Ekinion =       0.000000
siesta:         Total =   -9991.686686

siesta: Atomic forces (eV/Ang):
siesta:      1   -1.572819 -115.492593    0.000000
siesta:      2   -0.957477  112.167713    0.000000
siesta:      3  -21.716293    1.650462    0.000000
siesta:      4   19.632205   -3.908863    0.000000
siesta:      5   -0.583436    0.266423    0.000000
siesta:      6   -4.092187    1.651769    0.000000
siesta:      7   17.433956    4.740758    0.000000
siesta:      8   -3.604787  548.089976    0.000000
siesta:      9    1.596544  126.760586    0.000000
siesta:     10  -18.252889 -547.283063    0.000000
siesta:     11   15.139944 -553.826653    0.000000
siesta:     12   26.418214    3.274106    0.000000
siesta:     13   26.834973 -542.528537    0.000000
siesta:     14    2.392144   -0.414248    0.000000
siesta:     15   -2.101258    2.376015    0.000000
siesta:     16    2.700484    1.479808    0.000000
siesta:     17   -1.275141    0.896190    0.000000
siesta:     18  -28.330217 -546.239431    0.000000
siesta:     19   12.432535  549.206712    0.000000
siesta:     20    2.022513 -132.218893    0.000000
siesta:     21   38.000664  548.545842    0.000000
siesta:     22   23.895757   -5.744035    0.000000
siesta:     23   -2.014791   -2.168170    0.000000
siesta:     24    2.440593    0.266064    0.000000
siesta:     25   -1.058829   -0.786613    0.000000
siesta:     26    2.535834   -1.643970    0.000000
siesta:     27   -0.360297    6.294137    0.000000
siesta:     28   -0.443663   -6.416802    0.000000
siesta:     29   -4.392766  537.199775    0.000000
siesta:     30   -1.644033 -129.755221    0.000000
siesta:     31  -11.446268  549.638834    0.000000
siesta:     32    4.641047 -132.476073    0.000000
siesta:     33   24.422892  563.021435    0.000000
siesta:     34    0.383516    2.579778    0.000000
siesta:     35    1.035373   -0.064719    0.000000
siesta:     36   -0.679950    0.353846    0.000000
siesta:     37   -0.681089   -0.354930    0.000000
siesta:     38  -36.508093  552.675604    0.000000
siesta:     39  -26.875374   -5.534026    0.000000
siesta:     40  -23.290628  557.214767    0.000000
siesta:     41  -22.408033   -5.786331    0.000000
siesta:     42    2.125528  559.014842    0.000000
siesta:     43   -0.267133    2.504403    0.000000
siesta:     44   -0.704760   -0.533080    0.000000
siesta:     45   -0.916184    0.352877    0.000000
siesta:     46    2.557599   -2.119407    0.000000
siesta:     47   -1.605827   -0.663808    0.000000
siesta:     48    1.128312   -2.176483    0.000000
siesta:     49    3.769960    0.976703    0.000000
siesta:     50    1.533521    0.605015    0.000000
siesta:     51    0.966933    0.040005    0.000000
siesta:     52   -2.603118   -1.614964    0.000000
siesta:     53   -1.889752    1.823195    0.000000
siesta:     54    3.290504   -1.979772    0.000000
siesta:     55    0.173615    7.278514    0.000000
siesta:     56   -2.601426   -9.429961    0.000000
siesta:     57    2.567499    4.272867    0.000000
siesta:     58    0.971623    0.130813    0.000000
siesta:     59    0.591145   -2.317613    0.000000
siesta:     60   -0.407235   -1.928278    0.000000
siesta:     61    2.287417 -566.438445    0.000000
siesta:     62   -0.592994    0.290235    0.000000
siesta:     63    0.507748   -2.644780    0.000000
siesta:     64   30.882131 -553.290181    0.000000
siesta:     65  -18.614628    7.880728    0.000000
siesta:     66  -38.733019 -552.678077    0.000000
siesta:     67   -2.645038    0.549749    0.000000
siesta:     68    0.037508    0.629720    0.000000
siesta:     69    2.010651  133.238487    0.000000
siesta:     70    7.431166 -543.626643    0.000000
siesta:     71    2.626851  131.117401    0.000000
siesta:     72   -3.681213 -547.049314    0.000000
siesta: ----------------------------------------
siesta:    Tot   -0.133744   -0.077821    0.000000

siesta: Stress tensor (static) (eV/Ang**3):
siesta:    -0.458114   -0.001270    0.000000
siesta:    -0.001269   -1.763666    0.000000
siesta:     0.000000    0.000000   -0.000209

siesta: Cell volume =       1893.226884 Ang**3

siesta: Pressure (static):
siesta:                Solid            Molecule  Units
siesta:           0.00806677          0.12572253  Ry/Bohr**3
siesta:           0.74066303         11.54341556  eV/Ang**3
siesta:        1186.68583202      18494.79059526  kBar
(Free)E+ p_basis*V_orbitals  =       -9958.810379
(Free)Eharris+ p_basis*V_orbitals  =       -9958.801335

siesta: Electric dipole (a.u.)  =    0.000000    0.000000    0.000000
siesta: Electric dipole (Debye) =    0.000000    0.000000    0.000000

* Maximum dynamic memory allocated : Node    0 =   163 MB
* Maximum dynamic memory allocated : Node    1 =    65 MB
* Maximum dynamic memory allocated : Node    2 =    66 MB
* Maximum dynamic memory allocated : Node    3 =   149 MB
* Maximum dynamic memory allocated : Node    4 =   158 MB
* Maximum dynamic memory allocated : Node    5 =    58 MB
* Maximum dynamic memory allocated : Node    6 =    59 MB
* Maximum dynamic memory allocated : Node    7 =   149 MB
* Maximum dynamic memory allocated : Node    8 =   141 MB
* Maximum dynamic memory allocated : Node    9 =    57 MB
* Maximum dynamic memory allocated : Node   10 =    59 MB
* Maximum dynamic memory allocated : Node   11 =   136 MB

* Maximum memory occured during matrixMtoO                    

timer: CPU execution times:
timer:  Routine       Calls   Time/call    Tot.time        %
timer:  siesta            1  113002.339  113002.339   100.00
timer:  Setup             1       3.300       3.300     0.00
timer:  bands             3     226.184     678.552     0.60
timer:  writewave         1       0.024       0.024     0.00
timer:  KSV_init          1       0.002       0.002     0.00
timer:  IterMD            1  112313.470  112313.470    99.39
timer:  hsparse           1       0.282       0.282     0.00
timer:  overlap           1       5.763       5.763     0.01
timer:  IterSCF          38    2951.829  112169.512    99.26
timer:  kinefsm           2       2.941       5.882     0.01
timer:  nlefsm            2      19.728      39.457     0.03
timer:  DHSCF            39      79.329    3093.824     2.74
timer:  DHSCF1            1       1.188       1.188     0.00
timer:  DHSCF2            1      31.761      31.761     0.03
timer:  REORD           314       0.002       0.740     0.00
timer:  POISON           40       0.449      17.973     0.02
timer:  DHSCF3           39      77.822    3035.066     2.69
timer:  rhoofd           39      15.603     608.507     0.54
timer:  cellXC           39       2.403      93.707     0.08
timer:  vmat             39      38.649    1507.305     1.33
timer:  MolMec            2       0.000       0.000     0.00
timer:  diagon           38    2871.161  109104.122    96.55
timer:  c-eigval       8899       5.586   49707.466    43.99
timer:  c-buildHS      8899       0.035     310.022     0.27
timer:  cdiag         17677       5.685  100497.839    88.93
timer:  cdiag1        17677       0.262    4638.119     4.10
timer:  cdiag2        17677       1.838   32495.402    28.76
timer:  cdiag3        17677       3.375   59662.107    52.80
timer:  cdiag4        17677       0.088    1564.192     1.38
timer:  c-eigvec       8778       5.851   51359.731    45.45
timer:  c-buildD       8778       0.987    8667.641     7.67
timer:  DHSCF4            1      25.557      25.557     0.02
timer:  dfscf             1      23.510      23.510     0.02
timer:  overfsm           1       0.309       0.309     0.00
timer:  optical           1       6.411       6.411     0.01
  

elaps: ELAPSED times:
elaps:  Routine       Calls   Time/call    Tot.time        %
elaps:  siesta            1    9439.022    9439.022   100.00
elaps:  Setup             1       0.277       0.277     0.00
elaps:  bands             3      18.908      56.724     0.60
elaps:  writewave         1       0.002       0.002     0.00
elaps:  KSV_init          1       0.000       0.000     0.00
elaps:  IterMD            1    9381.479    9381.479    99.39
elaps:  hsparse           1       0.027       0.027     0.00
elaps:  overlap           1       0.715       0.715     0.01
elaps:  IterSCF          38     246.565    9369.454    99.26
elaps:  kinefsm           2       0.366       0.732     0.01
elaps:  nlefsm            2       1.768       3.536     0.04
elaps:  DHSCF            39       6.683     260.654     2.76
elaps:  DHSCF1            1       0.101       0.101     0.00
elaps:  DHSCF2            1       2.651       2.651     0.03
elaps:  REORD           314       0.000       0.094     0.00
elaps:  POISON           40       0.038       1.511     0.02
elaps:  DHSCF3           39       6.502     253.571     2.69
elaps:  rhoofd           39       2.736     106.704     1.13
elaps:  cellXC           39       0.200       7.807     0.08
elaps:  vmat             39       3.229     125.949     1.33
elaps:  MolMec            2       0.000       0.000     0.00
elaps:  diagon           38     239.833    9113.653    96.55
elaps:  c-eigval       8899       0.467    4151.973    43.99
elaps:  c-buildHS      8899       0.004      33.640     0.36
elaps:  cdiag         17677       0.470    8306.437    88.00
elaps:  cdiag1        17677       0.021     378.379     4.01
elaps:  cdiag2        17677       0.154    2716.768    28.78
elaps:  cdiag3        17677       0.282    4990.650    52.87
elaps:  cdiag4        17677       0.007     126.133     1.34
elaps:  c-eigvec       8778       0.480    4216.714    44.67
elaps:  c-buildD       8778       0.091     797.081     8.44
elaps:  DHSCF4            1       4.292       4.292     0.05
elaps:  dfscf             1       4.038       4.038     0.04
elaps:  overfsm           1       0.033       0.033     0.00
elaps:  optical           1       0.000       0.000     0.00
  
>> End of run:   4-MAY-2016  10:36:35
