Siesta Version:                                        siesta-3.2-pl-3
Architecture  : x86_64-unknown-linux-gnu--unknown
Compiler flags: mpiifort -g -O2 -fPIC -xSSE4.1 -fp-model source -shared-intel 
PARALLEL version

* Running on    8 nodes in parallel
>> Start of run:  26-APR-2016   1:55:58

                           ***********************       
                           *  WELCOME TO SIESTA  *       
                           ***********************       

reinit: Reading from standard input
************************** Dump of input data file ****************************
#(1) General system descriptors
SystemName            GRP_doping    # Descriptive name of the system
SystemLabel           GRP_doping    # Short name for naming files
%include STRUCT.fdf
%include KPT.fdf
%include BASIS.fdf
#%include TS.fdf # for transiesta calculation
#(4) DFT, Grid, SCF
XC.functional         GGA           # LDA or GGA (default = LDA)
XC.authors            PBE           # CA (Ceperley-Aldr) = PZ
                                    #    (Perdew-Zunger) - LDA - Default
                                    # PW92 (Perdew-Wang-92) - LDA
                                    # PBE (Perdew-Burke-Ernzerhof) - GGA
MeshCutoff            200.000000    Ry      # Default: 50.0 Ry ~ 0.444 Bohr
                                    #         100.0 Ry ~ 0.314 Bohr
MaxSCFIterations      500           # Default: 50
DM.MixingWeight       0.05          # Default: 0.25
DM.NumberPulay        10            # Default: 0
DM.PulayOnFile        F             # SystemLabel.P1, SystemLabel.P2
DM.Tolerance          1.d-4         # Default: 1.d-4
DM.UseSaveDM          .true.        # because of the bug
SCFMustConverge       .true.
NeglNonOverlapInt     F             # Default: F
#(5) Eigenvalue problem: order-N or diagonalization
SolutionMethod        Diagon        # or Transiesta
ElectronicTemperature 300.0 K       # Default: 300.0 K
#(6) Molecular dynamics and relaxations
#MD.TypeOfRun          CG            # Type of dynamics:
#MD.VariableCell       F
#MD.NumCGsteps         0           # 0 for single-point / 100 for gopt
#MD.MaxCGDispl         0.2 Bohr      # Default: 0.2 Bohr
#MD.MaxForceTol        0.02 eV/Ang   # Default: 0.04 eV/Ang
#MD.MaxStressTol       1.0 GPa       # Default: 1.0 GPa
# Geometry Constraints
#%block GeometryConstraints
#	position from 1 to 44
#%endblock GeometryConstraints
BandLinesScale   pi/a
%block BandLines
 1   0.00000000  0.00000000  0.00000000
50   0.00000000  0.07809418  0.00000000
50   0.04509075  0.07809242  0.00000000
20   0.00000000  0.00000000  0.00000000
%endblock BandLines
************************** End of input data file *****************************

reinit: -----------------------------------------------------------------------
reinit: System Name: GRP_doping
reinit: -----------------------------------------------------------------------
reinit: System Label: GRP_doping                                                  
reinit: -----------------------------------------------------------------------

initatom: Reading input for the pseudopotentials and atomic orbitals ----------
 Species number:            1  Label: N Atomic number:           7
 Species number:            2  Label: C Atomic number:           6
Ground state valence configuration:   2s02  2p03
Reading pseudopotential information in formatted form from N.psf

Valence configuration for pseudopotential generation:
2s( 2.00) rc: 1.48
2p( 3.00) rc: 1.48
3d( 0.00) rc: 1.48
4f( 0.00) rc: 1.48
Ground state valence configuration:   2s02  2p02
Reading pseudopotential information in formatted form from C.psf

Valence configuration for pseudopotential generation:
2s( 2.00) rc: 1.54
2p( 2.00) rc: 1.54
3d( 0.00) rc: 1.54
4f( 0.00) rc: 1.54
For N, standard SIESTA heuristics set lmxkb to 3
 (one more than the basis l, including polarization orbitals).
Use PS.lmax or PS.KBprojectors blocks to override.
For C, standard SIESTA heuristics set lmxkb to 3
 (one more than the basis l, including polarization orbitals).
Use PS.lmax or PS.KBprojectors blocks to override.

<basis_specs>
===============================================================================
N                    Z=   7    Mass=  14.010        Charge= 0.17977+309
Lmxo=1 Lmxkb= 3    BasisType=split      Semic=F
L=0  Nsemic=0  Cnfigmx=2
          n=1  nzeta=2  polorb=0
            splnorm:   0.15000    
               vcte:    0.0000    
               rinn:    0.0000    
                rcs:    0.0000      0.0000    
            lambdas:    1.0000      1.0000    
L=1  Nsemic=0  Cnfigmx=2
          n=1  nzeta=2  polorb=1
            splnorm:   0.15000    
               vcte:    0.0000    
               rinn:    0.0000    
                rcs:    0.0000      0.0000    
            lambdas:    1.0000      1.0000    
-------------------------------------------------------------------------------
L=0  Nkbl=1  erefs: 0.17977+309
L=1  Nkbl=1  erefs: 0.17977+309
L=2  Nkbl=1  erefs: 0.17977+309
L=3  Nkbl=1  erefs: 0.17977+309
===============================================================================
</basis_specs>

atom: Called for N                     (Z =   7)

read_vps: Pseudopotential generation method:
read_vps: ATM3      Troullier-Martins                       
Total valence charge:    5.00000

read_vps: Pseudopotential includes a core correction:
read_vps: Pseudo-core for xc-correction

xc_check: Exchange-correlation functional:
xc_check: GGA Perdew, Burke & Ernzerhof 1996
V l=0 = -2*Zval/r beyond r=  1.4606
V l=1 = -2*Zval/r beyond r=  1.4606
V l=2 = -2*Zval/r beyond r=  1.4606
V l=3 = -2*Zval/r beyond r=  1.4606
All V_l potentials equal beyond r=  1.4606
This should be close to max(r_c) in ps generation
All pots = -2*Zval/r beyond r=  1.4606

VLOCAL1: 99.0% of the norm of Vloc inside     20.347 Ry
VLOCAL1: 99.9% of the norm of Vloc inside     46.372 Ry
atom: Maximum radius for 4*pi*r*r*local-pseudopot. charge    1.76189
atom: Maximum radius for r*vlocal+2*Zval:    1.53550
GHOST: No ghost state for L =  0
GHOST: No ghost state for L =  1
GHOST: No ghost state for L =  2
GHOST: No ghost state for L =  3

KBgen: Kleinman-Bylander projectors: 
   l= 0   rc=  1.634559   el= -1.363963   Ekb=  5.296955   kbcos=  0.335621
   l= 1   rc=  1.614250   el= -0.521451   Ekb= -5.259161   kbcos= -0.433408
   l= 2   rc=  1.718383   el=  0.001991   Ekb= -1.271464   kbcos= -0.007566
   l= 3   rc=  1.761893   el=  0.003093   Ekb= -0.494769   kbcos= -0.001015

KBgen: Total number of  Kleinman-Bylander projectors:   16
atom: -------------------------------------------------------------------------

atom: SANKEY-TYPE ORBITALS:
atom: Selected multiple-zeta basis: split     

SPLIT: Orbitals with angular momentum L= 0

SPLIT: Basis orbitals for state 2s

SPLIT: PAO cut-off radius determined from an
SPLIT: energy shift=  0.007350 Ry

   izeta = 1
                 lambda =    1.000000
                     rc =    4.071465
                 energy =   -1.356470
                kinetic =    1.176977
    potential(screened) =   -2.533447
       potential(ionic) =   -8.057990

   izeta = 2
                 rmatch =    2.905100
              splitnorm =    0.150000
                 energy =   -1.158343
                kinetic =    1.813009
    potential(screened) =   -2.971352
       potential(ionic) =   -8.901931

SPLIT: Orbitals with angular momentum L= 1

SPLIT: Basis orbitals for state 2p

SPLIT: PAO cut-off radius determined from an
SPLIT: energy shift=  0.007350 Ry

   izeta = 1
                 lambda =    1.000000
                     rc =    4.972977
                 energy =   -0.513884
                kinetic =    3.441732
    potential(screened) =   -3.955616
       potential(ionic) =   -9.287901

   izeta = 2
                 rmatch =    3.054066
              splitnorm =    0.150000
                 energy =   -0.318226
                kinetic =    5.125348
    potential(screened) =   -5.443573
       potential(ionic) =  -11.380999

POLgen: Perturbative polarization orbital with L=  2

POLgen: Polarization orbital for state 2p

   izeta = 1
                     rc =    4.972977
                 energy =    1.607437
                kinetic =    3.268125
    potential(screened) =   -1.660688
       potential(ionic) =   -5.973652
atom: Total number of Sankey-type orbitals: 13

atm_pop: Valence configuration (for local Pseudopot. screening):
 2s( 2.00)                                                            
 2p( 3.00)                                                            
Vna: chval, zval:    5.00000   5.00000

Vna:  Cut-off radius for the neutral-atom potential:   4.972977
comcore: Pseudo-core radius Rcore=  1.554824

atom: _________________________________________________________________________

<basis_specs>
===============================================================================
C                    Z=   6    Mass=  12.010        Charge= 0.17977+309
Lmxo=1 Lmxkb= 3    BasisType=split      Semic=F
L=0  Nsemic=0  Cnfigmx=2
          n=1  nzeta=2  polorb=0
            splnorm:   0.15000    
               vcte:    0.0000    
               rinn:    0.0000    
                rcs:    0.0000      0.0000    
            lambdas:    1.0000      1.0000    
L=1  Nsemic=0  Cnfigmx=2
          n=1  nzeta=2  polorb=1
            splnorm:   0.15000    
               vcte:    0.0000    
               rinn:    0.0000    
                rcs:    0.0000      0.0000    
            lambdas:    1.0000      1.0000    
-------------------------------------------------------------------------------
L=0  Nkbl=1  erefs: 0.17977+309
L=1  Nkbl=1  erefs: 0.17977+309
L=2  Nkbl=1  erefs: 0.17977+309
L=3  Nkbl=1  erefs: 0.17977+309
===============================================================================
</basis_specs>

atom: Called for C                     (Z =   6)

read_vps: Pseudopotential generation method:
read_vps: ATM3      Troullier-Martins                       
Total valence charge:    4.00000

read_vps: Pseudopotential includes a core correction:
read_vps: Pseudo-core for xc-correction

xc_check: Exchange-correlation functional:
xc_check: GGA Perdew, Burke & Ernzerhof 1996
V l=0 = -2*Zval/r beyond r=  1.5227
V l=1 = -2*Zval/r beyond r=  1.5227
V l=2 = -2*Zval/r beyond r=  1.5227
V l=3 = -2*Zval/r beyond r=  1.5038
All V_l potentials equal beyond r=  1.5227
This should be close to max(r_c) in ps generation
All pots = -2*Zval/r beyond r=  1.5227

VLOCAL1: 99.0% of the norm of Vloc inside     18.722 Ry
VLOCAL1: 99.9% of the norm of Vloc inside     42.668 Ry
atom: Maximum radius for 4*pi*r*r*local-pseudopot. charge    1.83678
atom: Maximum radius for r*vlocal+2*Zval:    1.58088
GHOST: No ghost state for L =  0
GHOST: No ghost state for L =  1
GHOST: No ghost state for L =  2
GHOST: No ghost state for L =  3

KBgen: Kleinman-Bylander projectors: 
   l= 0   rc=  1.704034   el= -1.009801   Ekb=  5.335044   kbcos=  0.316824
   l= 1   rc=  1.704034   el= -0.388707   Ekb= -3.785862   kbcos= -0.366464
   l= 2   rc=  1.791422   el=  0.001971   Ekb= -0.970471   kbcos= -0.009212
   l= 3   rc=  1.859892   el=  0.003065   Ekb= -0.399525   kbcos= -0.001223

KBgen: Total number of  Kleinman-Bylander projectors:   16
atom: -------------------------------------------------------------------------

atom: SANKEY-TYPE ORBITALS:
atom: Selected multiple-zeta basis: split     

SPLIT: Orbitals with angular momentum L= 0

SPLIT: Basis orbitals for state 2s

SPLIT: PAO cut-off radius determined from an
SPLIT: energy shift=  0.007350 Ry

   izeta = 1
                 lambda =    1.000000
                     rc =    4.632753
                 energy =   -1.002270
                kinetic =    0.855760
    potential(screened) =   -1.858031
       potential(ionic) =   -5.417575

   izeta = 2
                 rmatch =    3.431921
              splitnorm =    0.150000
                 energy =   -0.867111
                kinetic =    1.300804
    potential(screened) =   -2.167915
       potential(ionic) =   -5.962684

SPLIT: Orbitals with angular momentum L= 1

SPLIT: Basis orbitals for state 2p

SPLIT: PAO cut-off radius determined from an
SPLIT: energy shift=  0.007350 Ry

   izeta = 1
                 lambda =    1.000000
                     rc =    5.658549
                 energy =   -0.381140
                kinetic =    2.399701
    potential(screened) =   -2.780841
       potential(ionic) =   -6.206085

   izeta = 2
                 rmatch =    3.653288
              splitnorm =    0.150000
                 energy =   -0.249149
                kinetic =    3.542762
    potential(screened) =   -3.791911
       potential(ionic) =   -7.581078

POLgen: Perturbative polarization orbital with L=  2

POLgen: Polarization orbital for state 2p

   izeta = 1
                     rc =    5.658549
                 energy =    1.109913
                kinetic =    2.304789
    potential(screened) =   -1.194876
       potential(ionic) =   -4.013592
atom: Total number of Sankey-type orbitals: 13

atm_pop: Valence configuration (for local Pseudopot. screening):
 2s( 2.00)                                                            
 2p( 2.00)                                                            
Vna: chval, zval:    4.00000   4.00000

Vna:  Cut-off radius for the neutral-atom potential:   5.658549
comcore: Pseudo-core radius Rcore=  1.791422

atom: _________________________________________________________________________

prinput: Basis input ----------------------------------------------------------

PAO.BasisType split     

%block ChemicalSpeciesLabel
    1    7 N                       # Species index, atomic number, species label
    2    6 C                       # Species index, atomic number, species label
%endblock ChemicalSpeciesLabel

%block PAO.Basis                 # Define Basis set
N                     2                    # Species label, number of l-shells
 n=2   0   2                         # n, l, Nzeta 
   4.071      2.905   
   1.000      1.000   
 n=2   1   2 P   1                   # n, l, Nzeta, Polarization, NzetaPol
   4.973      3.054   
   1.000      1.000   
C                     2                    # Species label, number of l-shells
 n=2   0   2                         # n, l, Nzeta 
   4.633      3.432   
   1.000      1.000   
 n=2   1   2 P   1                   # n, l, Nzeta, Polarization, NzetaPol
   5.659      3.653   
   1.000      1.000   
%endblock PAO.Basis

prinput: ----------------------------------------------------------------------

coor:   Atomic-coordinates input format  =     Fractional

siesta: Atomic coordinates (Bohr) and species
siesta:     -2.35420  38.89134   0.00000  1        1
siesta:     -2.35420  41.57980   0.00000  1        2
siesta:      2.30256  38.89134   0.00000  1        3
siesta:      2.30256  41.57980   0.00000  1        4
siesta:     -4.68258  34.85847   0.00000  1        5
siesta:     -4.68258  37.54693   0.00000  1        6
siesta:     -0.02582  21.41544   0.00000  1        7
siesta:     -4.68258  21.41544   0.00000  1        8
siesta:     -2.35420  22.75985   0.00000  1        9
siesta:     -7.01096  22.75985   0.00000  1       10
siesta:     -7.01096  25.44831   0.00000  1       11
siesta:    -11.66772  25.44831   0.00000  1       12
siesta:     -9.33934  26.79272   0.00000  1       13
siesta:     -9.33934  29.48119   0.00000  1       14
siesta:     -4.68258  26.79272   0.00000  1       15
siesta:     -4.68258  29.48119   0.00000  1       16
siesta:     -2.35420  30.82560   0.00000  1       17
siesta:     -2.35420  33.51406   0.00000  1       18
siesta:     -7.01096  30.82560   0.00000  1       19
siesta:     -7.01096  33.51406   0.00000  1       20
siesta:     -0.02582  34.85847   0.00000  1       21
siesta:     -0.02582  37.54693   0.00000  1       22
siesta:     -0.02582  42.92421   0.00000  1       23
siesta:     -0.02582   2.59549   0.00000  2       24
siesta:     -0.02582   5.28395   0.00000  2       25
siesta:      4.63094  34.85847   0.00000  2       26
siesta:      4.63094  37.54693   0.00000  2       27
siesta:      6.95932  30.82560   0.00000  2       28
siesta:      6.95932  33.51406   0.00000  2       29
siesta:      9.28770  26.79272   0.00000  2       30
siesta:      9.28770  29.48119   0.00000  2       31
siesta:      2.30256   6.62836   0.00000  2       32
siesta:      2.30256   9.31683   0.00000  2       33
siesta:      4.63094  10.66124   0.00000  2       34
siesta:      4.63094  13.34970   0.00000  2       35
siesta:      6.95932  14.69411   0.00000  2       36
siesta:      6.95932  17.38257   0.00000  2       37
siesta:      9.28770  18.72698   0.00000  2       38
siesta:      9.28770  21.41544   0.00000  2       39
siesta:     11.61608  22.75985   0.00000  2       40
siesta:     11.61608  25.44831   0.00000  2       41
siesta:     -2.35420   6.62836   0.00000  2       42
siesta:     -2.35420   9.31683   0.00000  2       43
siesta:     -0.02582  10.66124   0.00000  2       44
siesta:     -0.02582  13.34970   0.00000  2       45
siesta:      2.30256  14.69411   0.00000  2       46
siesta:      2.30256  17.38257   0.00000  2       47
siesta:      4.63094  18.72698   0.00000  2       48
siesta:      4.63094  21.41544   0.00000  2       49
siesta:      6.95932  22.75985   0.00000  2       50
siesta:      6.95932  25.44831   0.00000  2       51
siesta:     -4.68258  10.66124   0.00000  2       52
siesta:     -4.68258  13.34970   0.00000  2       53
siesta:     -2.35420  14.69411   0.00000  2       54
siesta:     -2.35420  17.38257   0.00000  2       55
siesta:     -0.02582  18.72698   0.00000  2       56
siesta:      2.30256  22.75985   0.00000  2       57
siesta:      2.30256  25.44831   0.00000  2       58
siesta:     -7.01096  14.69411   0.00000  2       59
siesta:     -7.01096  17.38257   0.00000  2       60
siesta:     -4.68258  18.72698   0.00000  2       61
siesta:     -2.35420  25.44831   0.00000  2       62
siesta:     -9.33934  18.72698   0.00000  2       63
siesta:     -9.33934  21.41544   0.00000  2       64
siesta:    -11.66772  22.75985   0.00000  2       65
siesta:      4.63094  26.79272   0.00000  2       66
siesta:      4.63094  29.48119   0.00000  2       67
siesta:     -0.02582  26.79272   0.00000  2       68
siesta:     -0.02582  29.48119   0.00000  2       69
siesta:      2.30256  30.82560   0.00000  2       70
siesta:      2.30256  33.51406   0.00000  2       71
siesta:     -0.02582  45.61267   0.00000  2       72

siesta: System type = slab      

initatomlists: Number of atoms, orbitals, and projectors:     72   936  1152

siesta: ******************** Simulation parameters ****************************
siesta:
siesta: The following are some of the parameters of the simulation.
siesta: A complete list of the parameters used, including default values,
siesta: can be found in file out.fdf
siesta:
redata: Non-Collinear-spin run           =     F
redata: SpinPolarized (Up/Down) run      =     F
redata: Number of spin components        =     1
redata: Long output                      =     F
redata: Number of Atomic Species         =        2
redata: Charge density info will appear in .RHO file
redata: Write Mulliken Pop.              =     NO
redata: Mesh Cutoff                      =   200.0000  Ry
redata: Net charge of the system         =     0.0000 |e|
redata: Max. number of SCF Iter          =      500
redata: SCF convergence failure will abort job
redata: Performing Pulay mixing using    =    10 iterations
redata: Mix DM in first SCF step ?       =     F
redata: Write Pulay info on disk?        =     F
redata: Discard 1st Pulay DM after  kick =     F
redata: New DM Mixing Weight             =     0.0500
redata: New DM Occupancy tolerance       = 0.000000000001
redata: No kicks to SCF
redata: DM Mixing Weight for Kicks       =     0.5000
redata: DM Tolerance for SCF             =     0.000100
redata: Require Energy convergence for SCF =     F
redata: DM Energy tolerance for SCF      =     0.000100 eV
redata: Require Harris convergence for SCF =     F
redata: DM Harris energy tolerance for SCF =     0.000100 eV
redata: Using Saved Data (generic)   =     F
redata: Use continuation files for DM    =     T
redata: Neglect nonoverlap interactions  =     F
redata: Method of Calculation            =     Diagonalization
redata: Divide and Conquer               =     T
redata: Electronic Temperature           =     0.0019  Ry
redata: Fix the spin of the system       =     F
redata: Dynamics option                  =     Verlet MD run
redata: Initial MD time step             =        1
redata:   Final MD time step             =        1
redata: Length of MD time step           =     1.0000  fs
redata: Initial Temperature of MD run    =     0.0000  K
redata: Perform a MD quench              =     F
redata: ***********************************************************************
Total number of electrons:   311.000000
Total ionic charge:   311.000000

* ProcessorY, Blocksize:    2  24

k-point displ. along   1 input, could be:     0.50    0.00
k-point displ. along   2 input, could be:     0.50    0.00
 Kpoints in:          231 . Kpoints trimmed:          231

siesta: k-grid: Number of k-points =   231
siesta: k-grid: Cutoff (effective) =     5.000 Ang
siesta: k-grid: Supercell and displacements
siesta: k-grid:   21   0   0      0.500
siesta: k-grid:    0  21   0      0.500
siesta: k-grid:    0   0   1      0.000
Naive supercell factors:     2    2    2

superc: Internal auxiliary supercell:     2 x     2 x     2  =       8
superc: Number of atoms, orbitals, and projectors:    576   7488   9216

* Maximum dynamic memory allocated =     4 MB

siesta:                 ==============================
                            Begin MD step =      1
                        ==============================

superc: Internal auxiliary supercell:     2 x     2 x     2  =       8
superc: Number of atoms, orbitals, and projectors:    576   7488   9216

outcell: Unit cell vectors (Ang):
       12.804619    7.392750    0.000000
        0.000000   14.785500    0.000000
        0.000000    0.000000   10.000000

outcell: Cell vector modules (Ang)   :   14.785500   14.785500   10.000000
outcell: Cell angles (23,13,12) (deg):     90.0000     90.0000     60.0000
outcell: Cell volume (Ang**3)        :   1893.2269
New_DM. Step:     1
Initializing Density Matrix...

InitMesh: MESH =   120 x   120 x    90 =     1296000
InitMesh: Mesh cutoff (required, used) =   200.000   223.865 Ry

* Maximum dynamic memory allocated =   178 MB

stepf: Fermi-Dirac step function

siesta: Program's energy decomposition (eV):
siesta: Ebs     =     -6344.992403
siesta: Eions   =     22100.188487
siesta: Ena     =      4961.752381
siesta: Ekin    =      8308.399223
siesta: Enl     =       -45.774463
siesta: DEna    =        -0.000015
siesta: DUscf   =         0.000000
siesta: DUext   =         0.000000
siesta: Exc     =     -4752.383424
siesta: eta*DQ  =         0.000000
siesta: Emadel  =         0.000000
siesta: Emeta   =         0.000000
siesta: Emolmec =         0.000000
siesta: Ekinion =         0.000000
siesta: Eharris =    -13232.729176
siesta: Etot    =    -13628.194785
siesta: FreeEng =    -13628.194785

siesta: iscf   Eharris(eV)      E_KS(eV)   FreeEng(eV)   dDmax  Ef(eV)
siesta:    1   -13232.7292   -13628.1948   -13628.1948  5.9352 -6.6944
timer: Routine,Calls,Time,% = IterSCF        1    3369.344  99.66
elaps: Routine,Calls,Wall,% = IterSCF        1     422.034  99.66
siesta:    2   -16766.2006   -12686.2458   -12686.2732 25.4517 -2.8257
siesta:    3   -13119.4867   -13439.4121   -13439.4644  2.8985 -5.1872
siesta:    4   -13107.4657   -13250.0319   -13250.1080  0.9553 -4.1570
siesta:    5   -13079.0909   -13211.9639   -13212.0151  0.9389 -3.9522
siesta:    6   -13075.5172   -13180.6760   -13180.7175  0.8574 -3.8836
siesta:    7   -13072.7068   -13158.7729   -13158.8481  0.7717 -3.9253
siesta:    8   -13071.9520   -13129.7541   -13129.8106  0.6114 -4.0839
siesta:    9   -13071.2944   -13119.4456   -13119.4834  0.5596 -3.9918
siesta:   10   -13070.3893   -13098.6640   -13098.7280  0.4284 -3.9518
siesta:   11   -13070.3913   -13076.6731   -13076.7401  1.0318 -3.8882
siesta:   12   -13070.2024   -13067.0676   -13067.1452  0.3805 -3.8945
siesta:   13   -13070.0537   -13059.9086   -13059.9724  0.4452 -3.8894
siesta:   14   -13069.3868   -13057.5517   -13057.6221  0.4246 -3.8523
siesta:   15   -13069.2245   -13056.3739   -13056.4554  0.4099 -3.8465
siesta:   16   -13069.0409   -13055.5385   -13055.6286  0.2926 -3.8330
siesta:   17   -13068.9645   -13054.6943   -13054.7970  0.2470 -3.8407
siesta:   18   -13068.9494   -13055.2604   -13055.3650  0.2434 -3.8478
siesta:   19   -13068.9178   -13055.3583   -13055.4612  0.1469 -3.8481
siesta:   20   -13068.9034   -13057.3343   -13057.4327  0.1770 -3.8498
siesta:   21   -13068.8925   -13061.6252   -13061.7238  0.1345 -3.8566
siesta:   22   -13068.8826   -13065.5993   -13065.7026  0.1045 -3.8705
siesta:   23   -13068.8641   -13065.6277   -13065.7356  0.0948 -3.8859
siesta:   24   -13068.8555   -13066.4560   -13066.5636  0.0354 -3.8844
siesta:   25   -13068.8531   -13067.0428   -13067.1541  0.0315 -3.8883
siesta:   26   -13068.8511   -13067.6116   -13067.7218  0.0314 -3.8860
siesta:   27   -13068.8494   -13068.0400   -13068.1498  0.0154 -3.8841
siesta:   28   -13068.8487   -13068.6129   -13068.7229  0.0221 -3.8839
siesta:   29   -13068.8483   -13068.7763   -13068.8867  0.0146 -3.8817
siesta:   30   -13068.8478   -13068.8854   -13068.9959  0.0106 -3.8794
siesta:   31   -13068.8475   -13068.8978   -13069.0086  0.0044 -3.8787
siesta:   32   -13068.8475   -13068.7997   -13068.9106  0.0052 -3.8784
siesta:   33   -13068.8476   -13068.8497   -13068.9605  0.0025 -3.8782
siesta:   34   -13068.8476   -13068.8446   -13068.9553  0.0016 -3.8781
siesta:   35   -13068.8475   -13068.8709   -13068.9816  0.0014 -3.8783
siesta:   36   -13068.8476   -13068.8431   -13068.9539  0.0007 -3.8784
siesta:   37   -13068.8475   -13068.8547   -13068.9655  0.0008 -3.8785
siesta:   38   -13068.8475   -13068.8419   -13068.9527  0.0009 -3.8790
siesta:   39   -13068.8475   -13068.8343   -13068.9451  0.0009 -3.8790
siesta:   40   -13068.8475   -13068.8309   -13068.9416  0.0003 -3.8790
siesta:   41   -13068.8475   -13068.8299   -13068.9407  0.0002 -3.8790
siesta:   42   -13068.8475   -13068.8341   -13068.9449  0.0003 -3.8790
siesta:   43   -13068.8475   -13068.8386   -13068.9494  0.0001 -3.8790

siesta: E_KS(eV) =           -13068.8387

siesta: E_KS - E_eggbox =    -13068.8387

siesta: Atomic forces (eV/Ang):
----------------------------------------
   Tot   -0.302670    0.009131    0.000000
----------------------------------------
   Max  683.106301
   Res  180.590800    sqrt( Sum f_i^2 / 3N )
----------------------------------------
   Max  683.106301    constrained

Stress-tensor-Voigt (kbar):     -618.17    -3298.69       -0.06       19.83        0.00        0.00
(Free)E + p*V (eV/cell)   -11526.1451
Target enthalpy (eV/cell)   -13068.9495

siesta: Stress tensor (static) (eV/Ang**3):
        -0.385826    0.012379    0.000000
         0.012378   -2.058858    0.000000
         0.000000    0.000000   -0.000037

siesta: Pressure (static):       1305.63957771  kBar

siesta: Stress tensor (total) (eV/Ang**3):
        -0.385826    0.012379    0.000000
         0.012378   -2.058858    0.000000
         0.000000    0.000000   -0.000037

siesta: Pressure (total):       1305.63957771  kBar

siesta: Temp_ion =       0.000 K

* Maximum dynamic memory allocated =   195 MB
Computing bands...

siesta: Program's energy decomposition (eV):
siesta: Ebs     =     -5088.743023
siesta: Eions   =     22100.188487
siesta: Ena     =      4961.752381
siesta: Ekin    =     11482.995831
siesta: Enl     =     -1770.068314
siesta: DEna    =      -823.060840
siesta: DUscf   =       113.843693
siesta: DUext   =         0.000000
siesta: Exc     =     -4934.113013
siesta: eta*DQ  =         0.000000
siesta: Emadel  =         0.000000
siesta: Emeta   =         0.000000
siesta: Emolmec =         0.000000
siesta: Ekinion =         0.000000
siesta: Eharris =    -13068.847509
siesta: Etot    =    -13068.838748
siesta: FreeEng =    -13068.949519

siesta: Final energy (eV):
siesta:  Band Struct. =   -5088.743023
siesta:       Kinetic =   11482.995831
siesta:       Hartree =   37320.513129
siesta:    Ext. field =       0.000000
siesta:   Exch.-corr. =   -4934.113013
siesta:  Ion-electron =  -85595.879754
siesta:       Ion-ion =   28657.645059
siesta:       Ekinion =       0.000000
siesta:         Total =  -13068.838748

siesta: Atomic forces (eV/Ang):
siesta:      1    0.756512  108.484737    0.000000
siesta:      2  -25.774546 -656.705396    0.000000
siesta:      3    3.263298  105.839508    0.000000
siesta:      4   22.385983 -656.047041    0.000000
siesta:      5  -30.550793    7.982139    0.000000
siesta:      6  -26.207800 -657.446530    0.000000
siesta:      7    0.309919   -1.369829    0.000000
siesta:      8    0.732177   -0.741094    0.000000
siesta:      9   -1.931552    1.202899    0.000000
siesta:     10    0.008701    0.184928    0.000000
siesta:     11    1.305340    0.121370    0.000000
siesta:     12    0.143314   -2.354303    0.000000
siesta:     13    0.143232    1.327168    0.000000
siesta:     14    0.727885   -0.287260    0.000000
siesta:     15    0.156691   -1.871533    0.000000
siesta:     16   -2.512385   -3.563919    0.000000
siesta:     17  -26.778786    7.374938    0.000000
siesta:     18    2.077334 -677.727215    0.000000
siesta:     19   -1.334651   -0.603055    0.000000
siesta:     20   -1.025434   -3.211556    0.000000
siesta:     21    3.071007  106.637178    0.000000
siesta:     22   -2.161166 -665.179114    0.000000
siesta:     23   -1.477525  122.098534    0.000000
siesta:     24  -13.572754  549.016898    0.000000
siesta:     25   -1.697902 -121.579967    0.000000
siesta:     26   27.281358    3.934282    0.000000
siesta:     27   33.056919 -554.905184    0.000000
siesta:     28    2.280866    0.230399    0.000000
siesta:     29   -3.408697    1.602570    0.000000
siesta:     30    2.307831    2.528854    0.000000
siesta:     31   -1.416923   -0.249409    0.000000
siesta:     32   -2.950717  547.764886    0.000000
siesta:     33   -0.184131 -121.107254    0.000000
siesta:     34   18.295905  551.041643    0.000000
siesta:     35   26.303811   -3.261196    0.000000
siesta:     36   -3.389444   -1.751282    0.000000
siesta:     37    1.716999    0.277935    0.000000
siesta:     38   -1.577660    0.115887    0.000000
siesta:     39    1.780619   -2.620013    0.000000
siesta:     40    0.090898    7.720787    0.000000
siesta:     41   -0.382617   -7.530611    0.000000
siesta:     42  -24.404914  655.180453    0.000000
siesta:     43    1.902893 -116.622541    0.000000
siesta:     44   -3.757022  673.988345    0.000000
siesta:     45    0.263460 -116.217850    0.000000
siesta:     46    4.016583  681.314760    0.000000
siesta:     47   24.479597   -2.968613    0.000000
siesta:     48   -1.664474    2.571187    0.000000
siesta:     49   -0.421506   -0.493840    0.000000
siesta:     50   -0.058398    1.155968    0.000000
siesta:     51   -0.275155   -0.846465    0.000000
siesta:     52  -21.069537  659.052958    0.000000
siesta:     53  -26.083058   -4.254676    0.000000
siesta:     54   -0.279111  683.106301    0.000000
siesta:     55  -24.124213   -2.410211    0.000000
siesta:     56   -0.165203  572.980169    0.000000
siesta:     57    0.428949    1.349363    0.000000
siesta:     58   -0.172867   -1.524333    0.000000
siesta:     59    2.482654   -0.312401    0.000000
siesta:     60   -1.214326   -0.445191    0.000000
siesta:     61    1.852173    3.206481    0.000000
siesta:     62   -0.268874    1.147088    0.000000
siesta:     63    0.228903    1.265534    0.000000
siesta:     64   -0.853096   -2.113835    0.000000
siesta:     65    0.055695    4.525751    0.000000
siesta:     66    0.476415    0.222979    0.000000
siesta:     67   -1.190513   -2.489660    0.000000
siesta:     68   -1.183476   -0.684819    0.000000
siesta:     69   19.455599 -575.313387    0.000000
siesta:     70   23.754354    4.769394    0.000000
siesta:     71   27.756661 -562.200916    0.000000
siesta:     72   -0.131972 -542.303639    0.000000
siesta: ----------------------------------------
siesta:    Tot   -0.302670    0.009131    0.000000

siesta: Stress tensor (static) (eV/Ang**3):
siesta:    -0.385826    0.012379    0.000000
siesta:     0.012378   -2.058858    0.000000
siesta:     0.000000    0.000000   -0.000037

siesta: Cell volume =       1893.226884 Ang**3

siesta: Pressure (static):
siesta:                Solid            Molecule  Units
siesta:           0.00887538          0.14420905  Ry/Bohr**3
siesta:           0.81490732         13.24078423  eV/Ang**3
siesta:        1305.63957771      21214.30440625  kBar
(Free)E+ p_basis*V_orbitals  =      -13041.500064
(Free)Eharris+ p_basis*V_orbitals  =      -13041.508987

siesta: Electric dipole (a.u.)  =    0.000000    0.000000    0.000000
siesta: Electric dipole (Debye) =    0.000000    0.000000    0.000000

* Maximum dynamic memory allocated : Node    0 =   195 MB
* Maximum dynamic memory allocated : Node    1 =    72 MB
* Maximum dynamic memory allocated : Node    2 =    72 MB
* Maximum dynamic memory allocated : Node    3 =   185 MB
* Maximum dynamic memory allocated : Node    4 =   189 MB
* Maximum dynamic memory allocated : Node    5 =    71 MB
* Maximum dynamic memory allocated : Node    6 =    73 MB
* Maximum dynamic memory allocated : Node    7 =   174 MB

* Maximum memory occured during matrixMtoO                    

timer: CPU execution times:
timer:  Routine       Calls   Time/call    Tot.time        %
timer:  siesta            1  144045.341  144045.341   100.00
timer:  Setup             1       3.828       3.828     0.00
timer:  bands             3     244.285     732.855     0.51
timer:  writewave         1       0.045       0.045     0.00
timer:  KSV_init          1       0.005       0.005     0.00
timer:  IterMD            1  143303.432  143303.432    99.48
timer:  hsparse           1       0.283       0.283     0.00
timer:  overlap           1       7.136       7.136     0.00
timer:  IterSCF          43    3329.319  143160.702    99.39
timer:  kinefsm           2       3.673       7.346     0.01
timer:  nlefsm            2      17.282      34.564     0.02
timer:  DHSCF            44      69.826    3072.352     2.13
timer:  DHSCF1            1       0.745       0.745     0.00
timer:  DHSCF2            1      29.871      29.871     0.02
timer:  REORD           354       0.005       1.702     0.00
timer:  POISON           45       0.867      39.019     0.03
timer:  DHSCF3           44      68.486    3013.388     2.09
timer:  rhoofd           44      14.939     657.328     0.46
timer:  cellXC           44       3.278     144.227     0.10
timer:  vmat             44      31.665    1393.247     0.97
timer:  MolMec            2       0.000       0.000     0.00
timer:  diagon           43    3258.337  140108.478    97.27
timer:  c-eigval      10054       6.039   60713.054    42.15
timer:  c-buildHS     10054       0.046     460.920     0.32
timer:  cdiag         19987       6.183  123578.042    85.79
timer:  cdiag1        19987       0.384    7679.781     5.33
timer:  cdiag2        19987       1.767   35323.831    24.52
timer:  cdiag3        19987       3.744   74824.693    51.95
timer:  cdiag4        19987       0.152    3047.699     2.12
timer:  c-eigvec       9933       6.412   63687.728    44.21
timer:  c-buildD       9933       1.650   16389.584    11.38
timer:  DHSCF4            1      27.486      27.486     0.02
timer:  dfscf             1      25.639      25.639     0.02
timer:  overfsm           1       0.377       0.377     0.00
timer:  optical           1       4.600       4.600     0.00
  

elaps: ELAPSED times:
elaps:  Routine       Calls   Time/call    Tot.time        %
elaps:  siesta            1   18039.548   18039.548   100.00
elaps:  Setup             1       0.498       0.498     0.00
elaps:  bands             3      30.612      91.836     0.51
elaps:  writewave         1       0.006       0.006     0.00
elaps:  KSV_init          1       0.001       0.001     0.00
elaps:  IterMD            1   17946.610   17946.610    99.48
elaps:  hsparse           1       0.037       0.037     0.00
elaps:  overlap           1       0.895       0.895     0.00
elaps:  IterSCF          43     416.950   17928.848    99.39
elaps:  kinefsm           2       0.462       0.924     0.01
elaps:  nlefsm            2       2.170       4.340     0.02
elaps:  DHSCF            44       8.823     388.220     2.15
elaps:  DHSCF1            1       0.095       0.095     0.00
elaps:  DHSCF2            1       3.740       3.740     0.02
elaps:  REORD           354       0.001       0.236     0.00
elaps:  POISON           45       0.109       4.909     0.03
elaps:  DHSCF3           44       8.577     377.404     2.09
elaps:  rhoofd           44       4.032     177.423     0.98
elaps:  cellXC           44       0.410      18.048     0.10
elaps:  vmat             44       3.966     174.499     0.97
elaps:  MolMec            2       0.000       0.000     0.00
elaps:  diagon           43     408.055   17546.375    97.27
elaps:  c-eigval      10054       0.756    7603.190    42.15
elaps:  c-buildHS     10054       0.006      64.387     0.36
elaps:  cdiag         19987       0.771   15414.027    85.45
elaps:  cdiag1        19987       0.048     956.538     5.30
elaps:  cdiag2        19987       0.221    4424.525    24.53
elaps:  cdiag3        19987       0.469    9383.131    52.01
elaps:  cdiag4        19987       0.019     379.901     2.11
elaps:  c-eigvec       9933       0.798    7925.310    43.93
elaps:  c-buildD       9933       0.212    2102.810    11.66
elaps:  DHSCF4            1       6.877       6.877     0.04
elaps:  dfscf             1       6.487       6.487     0.04
elaps:  overfsm           1       0.048       0.048     0.00
elaps:  optical           1       0.001       0.001     0.00
  
>> End of run:  26-APR-2016   6:56:38
