Siesta Version:                                        siesta-3.2-pl-3
Architecture  : x86_64-unknown-linux-gnu--unknown
Compiler flags: mpiifort -g -O2 -fPIC -xSSE4.1 -fp-model source -shared-intel 
PARALLEL version

* Running on    8 nodes in parallel
>> Start of run:  27-APR-2016   7:37:50

                           ***********************       
                           *  WELCOME TO SIESTA  *       
                           ***********************       

reinit: Reading from standard input
************************** Dump of input data file ****************************
#(1) General system descriptors
SystemName            GRP_doping    # Descriptive name of the system
SystemLabel           GRP_doping    # Short name for naming files
%include STRUCT.fdf
%include KPT.fdf
%include BASIS.fdf
#%include TS.fdf # for transiesta calculation
#(4) DFT, Grid, SCF
XC.functional         GGA           # LDA or GGA (default = LDA)
XC.authors            PBE           # CA (Ceperley-Aldr) = PZ
                                    #    (Perdew-Zunger) - LDA - Default
                                    # PW92 (Perdew-Wang-92) - LDA
                                    # PBE (Perdew-Burke-Ernzerhof) - GGA
MeshCutoff            200.000000    Ry      # Default: 50.0 Ry ~ 0.444 Bohr
                                    #         100.0 Ry ~ 0.314 Bohr
MaxSCFIterations      500           # Default: 50
DM.MixingWeight       0.05          # Default: 0.25
DM.NumberPulay        10            # Default: 0
DM.PulayOnFile        F             # SystemLabel.P1, SystemLabel.P2
DM.Tolerance          1.d-4         # Default: 1.d-4
DM.UseSaveDM          .true.        # because of the bug
SCFMustConverge       .true.
NeglNonOverlapInt     F             # Default: F
#(5) Eigenvalue problem: order-N or diagonalization
SolutionMethod        Diagon        # or Transiesta
ElectronicTemperature 300.0 K       # Default: 300.0 K
#(6) Molecular dynamics and relaxations
#MD.TypeOfRun          CG            # Type of dynamics:
#MD.VariableCell       F
#MD.NumCGsteps         0           # 0 for single-point / 100 for gopt
#MD.MaxCGDispl         0.2 Bohr      # Default: 0.2 Bohr
#MD.MaxForceTol        0.02 eV/Ang   # Default: 0.04 eV/Ang
#MD.MaxStressTol       1.0 GPa       # Default: 1.0 GPa
# Geometry Constraints
#%block GeometryConstraints
#	position from 1 to 44
#%endblock GeometryConstraints
BandLinesScale   pi/a
%block BandLines
 1   0.00000000  0.00000000  0.00000000
50   0.00000000  0.07809418  0.00000000
50   0.04509075  0.07809242  0.00000000
20   0.00000000  0.00000000  0.00000000
%endblock BandLines
************************** End of input data file *****************************

reinit: -----------------------------------------------------------------------
reinit: System Name: GRP_doping
reinit: -----------------------------------------------------------------------
reinit: System Label: GRP_doping                                                  
reinit: -----------------------------------------------------------------------

initatom: Reading input for the pseudopotentials and atomic orbitals ----------
 Species number:            1  Label: B Atomic number:           5
 Species number:            2  Label: C Atomic number:           6
Ground state valence configuration:   2s02  2p01
Reading pseudopotential information in formatted form from B.psf

Valence configuration for pseudopotential generation:
2s( 2.00) rc: 1.74
2p( 1.00) rc: 1.74
3d( 0.00) rc: 1.74
4f( 0.00) rc: 1.74
Ground state valence configuration:   2s02  2p02
Reading pseudopotential information in formatted form from C.psf

Valence configuration for pseudopotential generation:
2s( 2.00) rc: 1.54
2p( 2.00) rc: 1.54
3d( 0.00) rc: 1.54
4f( 0.00) rc: 1.54
For B, standard SIESTA heuristics set lmxkb to 3
 (one more than the basis l, including polarization orbitals).
Use PS.lmax or PS.KBprojectors blocks to override.
For C, standard SIESTA heuristics set lmxkb to 3
 (one more than the basis l, including polarization orbitals).
Use PS.lmax or PS.KBprojectors blocks to override.

<basis_specs>
===============================================================================
B                    Z=   5    Mass=  10.810        Charge= 0.17977+309
Lmxo=1 Lmxkb= 3    BasisType=split      Semic=F
L=0  Nsemic=0  Cnfigmx=2
          n=1  nzeta=2  polorb=0
            splnorm:   0.15000    
               vcte:    0.0000    
               rinn:    0.0000    
                rcs:    0.0000      0.0000    
            lambdas:    1.0000      1.0000    
L=1  Nsemic=0  Cnfigmx=2
          n=1  nzeta=2  polorb=1
            splnorm:   0.15000    
               vcte:    0.0000    
               rinn:    0.0000    
                rcs:    0.0000      0.0000    
            lambdas:    1.0000      1.0000    
-------------------------------------------------------------------------------
L=0  Nkbl=1  erefs: 0.17977+309
L=1  Nkbl=1  erefs: 0.17977+309
L=2  Nkbl=1  erefs: 0.17977+309
L=3  Nkbl=1  erefs: 0.17977+309
===============================================================================
</basis_specs>

atom: Called for B                     (Z =   5)

read_vps: Pseudopotential generation method:
read_vps: ATM3      Troullier-Martins                       
Total valence charge:    3.00000

read_vps: Pseudopotential includes a core correction:
read_vps: Pseudo-core for xc-correction

xc_check: Exchange-correlation functional:
xc_check: GGA Perdew, Burke & Ernzerhof 1996
V l=0 = -2*Zval/r beyond r=  1.7165
V l=1 = -2*Zval/r beyond r=  1.7165
V l=2 = -2*Zval/r beyond r=  1.7165
V l=3 = -2*Zval/r beyond r=  1.6951
All V_l potentials equal beyond r=  1.7165
This should be close to max(r_c) in ps generation
All pots = -2*Zval/r beyond r=  1.7165

VLOCAL1: 99.0% of the norm of Vloc inside     14.733 Ry
VLOCAL1: 99.9% of the norm of Vloc inside     33.577 Ry
atom: Maximum radius for 4*pi*r*r*local-pseudopot. charge    2.04484
atom: Maximum radius for r*vlocal+2*Zval:    1.75994
GHOST: No ghost state for L =  0
GHOST: No ghost state for L =  1
GHOST: No ghost state for L =  2
GHOST: No ghost state for L =  3

KBgen: Kleinman-Bylander projectors: 
   l= 0   rc=  1.897051   el= -0.693730   Ekb=  4.595746   kbcos=  0.286105
   l= 1   rc=  1.920920   el= -0.265236   Ekb= -2.350715   kbcos= -0.315747
   l= 2   rc=  2.044840   el=  0.002055   Ekb= -0.690767   kbcos= -0.013822
   l= 3   rc=  2.149707   el=  0.003188   Ekb= -0.315358   kbcos= -0.002055

KBgen: Total number of  Kleinman-Bylander projectors:   16
atom: -------------------------------------------------------------------------

atom: SANKEY-TYPE ORBITALS:
atom: Selected multiple-zeta basis: split     

SPLIT: Orbitals with angular momentum L= 0

SPLIT: Basis orbitals for state 2s

SPLIT: PAO cut-off radius determined from an
SPLIT: energy shift=  0.007350 Ry

   izeta = 1
                 lambda =    1.000000
                     rc =    5.422032
                 energy =   -0.686029
                kinetic =    0.576707
    potential(screened) =   -1.262736
       potential(ionic) =   -3.271094

   izeta = 2
                 rmatch =    4.222573
              splitnorm =    0.150000
                 energy =   -0.602132
                kinetic =    0.858975
    potential(screened) =   -1.461107
       potential(ionic) =   -3.582536

SPLIT: Orbitals with angular momentum L= 1

SPLIT: Basis orbitals for state 2p

SPLIT: PAO cut-off radius determined from an
SPLIT: energy shift=  0.007350 Ry

   izeta = 1
                 lambda =    1.000000
                     rc =    6.790259
                 energy =   -0.258578
                kinetic =    1.481412
    potential(screened) =   -1.739989
       potential(ionic) =   -3.657461

   izeta = 2
                 rmatch =    4.608740
              splitnorm =    0.150000
                 energy =   -0.173757
                kinetic =    2.186690
    potential(screened) =   -2.360447
       potential(ionic) =   -4.464260

POLgen: Perturbative polarization orbital with L=  2

POLgen: Polarization orbital for state 2p

   izeta = 1
                     rc =    6.790259
                 energy =    0.684082
                kinetic =    1.471481
    potential(screened) =   -0.787399
       potential(ionic) =   -2.406985
atom: Total number of Sankey-type orbitals: 13

atm_pop: Valence configuration (for local Pseudopot. screening):
 2s( 2.00)                                                            
 2p( 1.00)                                                            
Vna: chval, zval:    3.00000   3.00000

Vna:  Cut-off radius for the neutral-atom potential:   6.790259
comcore: Pseudo-core radius Rcore=  2.122997

atom: _________________________________________________________________________

<basis_specs>
===============================================================================
C                    Z=   6    Mass=  12.010        Charge= 0.17977+309
Lmxo=1 Lmxkb= 3    BasisType=split      Semic=F
L=0  Nsemic=0  Cnfigmx=2
          n=1  nzeta=2  polorb=0
            splnorm:   0.15000    
               vcte:    0.0000    
               rinn:    0.0000    
                rcs:    0.0000      0.0000    
            lambdas:    1.0000      1.0000    
L=1  Nsemic=0  Cnfigmx=2
          n=1  nzeta=2  polorb=1
            splnorm:   0.15000    
               vcte:    0.0000    
               rinn:    0.0000    
                rcs:    0.0000      0.0000    
            lambdas:    1.0000      1.0000    
-------------------------------------------------------------------------------
L=0  Nkbl=1  erefs: 0.17977+309
L=1  Nkbl=1  erefs: 0.17977+309
L=2  Nkbl=1  erefs: 0.17977+309
L=3  Nkbl=1  erefs: 0.17977+309
===============================================================================
</basis_specs>

atom: Called for C                     (Z =   6)

read_vps: Pseudopotential generation method:
read_vps: ATM3      Troullier-Martins                       
Total valence charge:    4.00000

read_vps: Pseudopotential includes a core correction:
read_vps: Pseudo-core for xc-correction

xc_check: Exchange-correlation functional:
xc_check: GGA Perdew, Burke & Ernzerhof 1996
V l=0 = -2*Zval/r beyond r=  1.5227
V l=1 = -2*Zval/r beyond r=  1.5227
V l=2 = -2*Zval/r beyond r=  1.5227
V l=3 = -2*Zval/r beyond r=  1.5038
All V_l potentials equal beyond r=  1.5227
This should be close to max(r_c) in ps generation
All pots = -2*Zval/r beyond r=  1.5227

VLOCAL1: 99.0% of the norm of Vloc inside     18.722 Ry
VLOCAL1: 99.9% of the norm of Vloc inside     42.668 Ry
atom: Maximum radius for 4*pi*r*r*local-pseudopot. charge    1.83678
atom: Maximum radius for r*vlocal+2*Zval:    1.58088
GHOST: No ghost state for L =  0
GHOST: No ghost state for L =  1
GHOST: No ghost state for L =  2
GHOST: No ghost state for L =  3

KBgen: Kleinman-Bylander projectors: 
   l= 0   rc=  1.704034   el= -1.009801   Ekb=  5.335044   kbcos=  0.316824
   l= 1   rc=  1.704034   el= -0.388707   Ekb= -3.785862   kbcos= -0.366464
   l= 2   rc=  1.791422   el=  0.001971   Ekb= -0.970471   kbcos= -0.009212
   l= 3   rc=  1.859892   el=  0.003065   Ekb= -0.399525   kbcos= -0.001223

KBgen: Total number of  Kleinman-Bylander projectors:   16
atom: -------------------------------------------------------------------------

atom: SANKEY-TYPE ORBITALS:
atom: Selected multiple-zeta basis: split     

SPLIT: Orbitals with angular momentum L= 0

SPLIT: Basis orbitals for state 2s

SPLIT: PAO cut-off radius determined from an
SPLIT: energy shift=  0.007350 Ry

   izeta = 1
                 lambda =    1.000000
                     rc =    4.632753
                 energy =   -1.002270
                kinetic =    0.855760
    potential(screened) =   -1.858031
       potential(ionic) =   -5.417575

   izeta = 2
                 rmatch =    3.431921
              splitnorm =    0.150000
                 energy =   -0.867111
                kinetic =    1.300804
    potential(screened) =   -2.167915
       potential(ionic) =   -5.962684

SPLIT: Orbitals with angular momentum L= 1

SPLIT: Basis orbitals for state 2p

SPLIT: PAO cut-off radius determined from an
SPLIT: energy shift=  0.007350 Ry

   izeta = 1
                 lambda =    1.000000
                     rc =    5.658549
                 energy =   -0.381140
                kinetic =    2.399701
    potential(screened) =   -2.780841
       potential(ionic) =   -6.206085

   izeta = 2
                 rmatch =    3.653288
              splitnorm =    0.150000
                 energy =   -0.249149
                kinetic =    3.542762
    potential(screened) =   -3.791911
       potential(ionic) =   -7.581078

POLgen: Perturbative polarization orbital with L=  2

POLgen: Polarization orbital for state 2p

   izeta = 1
                     rc =    5.658549
                 energy =    1.109913
                kinetic =    2.304789
    potential(screened) =   -1.194876
       potential(ionic) =   -4.013592
atom: Total number of Sankey-type orbitals: 13

atm_pop: Valence configuration (for local Pseudopot. screening):
 2s( 2.00)                                                            
 2p( 2.00)                                                            
Vna: chval, zval:    4.00000   4.00000

Vna:  Cut-off radius for the neutral-atom potential:   5.658549
comcore: Pseudo-core radius Rcore=  1.791422

atom: _________________________________________________________________________

prinput: Basis input ----------------------------------------------------------

PAO.BasisType split     

%block ChemicalSpeciesLabel
    1    5 B                       # Species index, atomic number, species label
    2    6 C                       # Species index, atomic number, species label
%endblock ChemicalSpeciesLabel

%block PAO.Basis                 # Define Basis set
B                     2                    # Species label, number of l-shells
 n=2   0   2                         # n, l, Nzeta 
   5.422      4.223   
   1.000      1.000   
 n=2   1   2 P   1                   # n, l, Nzeta, Polarization, NzetaPol
   6.790      4.609   
   1.000      1.000   
C                     2                    # Species label, number of l-shells
 n=2   0   2                         # n, l, Nzeta 
   4.633      3.432   
   1.000      1.000   
 n=2   1   2 P   1                   # n, l, Nzeta, Polarization, NzetaPol
   5.659      3.653   
   1.000      1.000   
%endblock PAO.Basis

prinput: ----------------------------------------------------------------------

coor:   Atomic-coordinates input format  =     Fractional

siesta: Atomic coordinates (Bohr) and species
siesta:     -0.02582   5.28395   0.00000  1        1
siesta:      2.30256   6.62836   0.00000  1        2
siesta:      2.30256   9.31683   0.00000  1        3
siesta:     -2.35420   6.62836   0.00000  1        4
siesta:     -2.35420   9.31683   0.00000  1        5
siesta:     -0.02582  10.66124   0.00000  1        6
siesta:     -0.02582  21.41544   0.00000  1        7
siesta:      2.30256  22.75985   0.00000  1        8
siesta:      2.30256  25.44831   0.00000  1        9
siesta:     -4.68258  21.41544   0.00000  1       10
siesta:     -2.35420  22.75985   0.00000  1       11
siesta:     -2.35420  25.44831   0.00000  1       12
siesta:     -9.33934  18.72698   0.00000  1       13
siesta:     -9.33934  21.41544   0.00000  1       14
siesta:     -7.01096  22.75985   0.00000  1       15
siesta:     -7.01096  25.44831   0.00000  1       16
siesta:    -11.66772  22.75985   0.00000  1       17
siesta:    -11.66772  25.44831   0.00000  1       18
siesta:     -9.33934  26.79272   0.00000  1       19
siesta:     -0.02582  26.79272   0.00000  1       20
siesta:     -0.02582   2.59549   0.00000  2       21
siesta:     -2.35420  38.89134   0.00000  2       22
siesta:     -2.35420  41.57980   0.00000  2       23
siesta:      2.30256  38.89134   0.00000  2       24
siesta:      2.30256  41.57980   0.00000  2       25
siesta:      4.63094  34.85847   0.00000  2       26
siesta:      4.63094  37.54693   0.00000  2       27
siesta:      6.95932  30.82560   0.00000  2       28
siesta:      6.95932  33.51406   0.00000  2       29
siesta:      9.28770  26.79272   0.00000  2       30
siesta:      9.28770  29.48119   0.00000  2       31
siesta:     -4.68258  34.85847   0.00000  2       32
siesta:     -4.68258  37.54693   0.00000  2       33
siesta:      4.63094  10.66124   0.00000  2       34
siesta:      4.63094  13.34970   0.00000  2       35
siesta:      6.95932  14.69411   0.00000  2       36
siesta:      6.95932  17.38257   0.00000  2       37
siesta:      9.28770  18.72698   0.00000  2       38
siesta:      9.28770  21.41544   0.00000  2       39
siesta:     11.61608  22.75985   0.00000  2       40
siesta:     11.61608  25.44831   0.00000  2       41
siesta:     -0.02582  13.34970   0.00000  2       42
siesta:      2.30256  14.69411   0.00000  2       43
siesta:      2.30256  17.38257   0.00000  2       44
siesta:      4.63094  18.72698   0.00000  2       45
siesta:      4.63094  21.41544   0.00000  2       46
siesta:      6.95932  22.75985   0.00000  2       47
siesta:      6.95932  25.44831   0.00000  2       48
siesta:     -4.68258  10.66124   0.00000  2       49
siesta:     -4.68258  13.34970   0.00000  2       50
siesta:     -2.35420  14.69411   0.00000  2       51
siesta:     -2.35420  17.38257   0.00000  2       52
siesta:     -0.02582  18.72698   0.00000  2       53
siesta:     -7.01096  14.69411   0.00000  2       54
siesta:     -7.01096  17.38257   0.00000  2       55
siesta:     -4.68258  18.72698   0.00000  2       56
siesta:     -9.33934  29.48119   0.00000  2       57
siesta:      4.63094  26.79272   0.00000  2       58
siesta:      4.63094  29.48119   0.00000  2       59
siesta:     -0.02582  29.48119   0.00000  2       60
siesta:     -4.68258  26.79272   0.00000  2       61
siesta:     -4.68258  29.48119   0.00000  2       62
siesta:      2.30256  30.82560   0.00000  2       63
siesta:      2.30256  33.51406   0.00000  2       64
siesta:     -2.35420  30.82560   0.00000  2       65
siesta:     -2.35420  33.51406   0.00000  2       66
siesta:     -7.01096  30.82560   0.00000  2       67
siesta:     -7.01096  33.51406   0.00000  2       68
siesta:     -0.02582  34.85847   0.00000  2       69
siesta:     -0.02582  37.54693   0.00000  2       70
siesta:     -0.02582  42.92421   0.00000  2       71
siesta:     -0.02582  45.61267   0.00000  2       72

siesta: System type = slab      

initatomlists: Number of atoms, orbitals, and projectors:     72   936  1152

siesta: ******************** Simulation parameters ****************************
siesta:
siesta: The following are some of the parameters of the simulation.
siesta: A complete list of the parameters used, including default values,
siesta: can be found in file out.fdf
siesta:
redata: Non-Collinear-spin run           =     F
redata: SpinPolarized (Up/Down) run      =     F
redata: Number of spin components        =     1
redata: Long output                      =     F
redata: Number of Atomic Species         =        2
redata: Charge density info will appear in .RHO file
redata: Write Mulliken Pop.              =     NO
redata: Mesh Cutoff                      =   200.0000  Ry
redata: Net charge of the system         =     0.0000 |e|
redata: Max. number of SCF Iter          =      500
redata: SCF convergence failure will abort job
redata: Performing Pulay mixing using    =    10 iterations
redata: Mix DM in first SCF step ?       =     F
redata: Write Pulay info on disk?        =     F
redata: Discard 1st Pulay DM after  kick =     F
redata: New DM Mixing Weight             =     0.0500
redata: New DM Occupancy tolerance       = 0.000000000001
redata: No kicks to SCF
redata: DM Mixing Weight for Kicks       =     0.5000
redata: DM Tolerance for SCF             =     0.000100
redata: Require Energy convergence for SCF =     F
redata: DM Energy tolerance for SCF      =     0.000100 eV
redata: Require Harris convergence for SCF =     F
redata: DM Harris energy tolerance for SCF =     0.000100 eV
redata: Using Saved Data (generic)   =     F
redata: Use continuation files for DM    =     T
redata: Neglect nonoverlap interactions  =     F
redata: Method of Calculation            =     Diagonalization
redata: Divide and Conquer               =     T
redata: Electronic Temperature           =     0.0019  Ry
redata: Fix the spin of the system       =     F
redata: Dynamics option                  =     Verlet MD run
redata: Initial MD time step             =        1
redata:   Final MD time step             =        1
redata: Length of MD time step           =     1.0000  fs
redata: Initial Temperature of MD run    =     0.0000  K
redata: Perform a MD quench              =     F
redata: ***********************************************************************
Total number of electrons:   268.000000
Total ionic charge:   268.000000

* ProcessorY, Blocksize:    2  24

k-point displ. along   1 input, could be:     0.50    0.00
k-point displ. along   2 input, could be:     0.50    0.00
 Kpoints in:          231 . Kpoints trimmed:          231

siesta: k-grid: Number of k-points =   231
siesta: k-grid: Cutoff (effective) =     5.000 Ang
siesta: k-grid: Supercell and displacements
siesta: k-grid:   21   0   0      0.500
siesta: k-grid:    0  21   0      0.500
siesta: k-grid:    0   0   1      0.000
Naive supercell factors:     2    2    2

superc: Internal auxiliary supercell:     2 x     2 x     2  =       8
superc: Number of atoms, orbitals, and projectors:    576   7488   9216

* Maximum dynamic memory allocated =     4 MB

siesta:                 ==============================
                            Begin MD step =      1
                        ==============================

superc: Internal auxiliary supercell:     2 x     2 x     2  =       8
superc: Number of atoms, orbitals, and projectors:    576   7488   9216

outcell: Unit cell vectors (Ang):
       12.804619    7.392750    0.000000
        0.000000   14.785500    0.000000
        0.000000    0.000000   10.000000

outcell: Cell vector modules (Ang)   :   14.785500   14.785500   10.000000
outcell: Cell angles (23,13,12) (deg):     90.0000     90.0000     60.0000
outcell: Cell volume (Ang**3)        :   1893.2269
New_DM. Step:     1
Initializing Density Matrix...

InitMesh: MESH =   120 x   120 x    90 =     1296000
InitMesh: Mesh cutoff (required, used) =   200.000   223.865 Ry

* Maximum dynamic memory allocated =   226 MB

stepf: Fermi-Dirac step function

siesta: Program's energy decomposition (eV):
siesta: Ebs     =     -5537.987394
siesta: Eions   =     15841.876847
siesta: Ena     =      4254.146817
siesta: Ekin    =      5323.417823
siesta: Enl     =       813.850555
siesta: DEna    =        -0.000008
siesta: DUscf   =         0.000000
siesta: DUext   =         0.000000
siesta: Exc     =     -4198.280932
siesta: eta*DQ  =         0.000000
siesta: Emadel  =         0.000000
siesta: Emeta   =         0.000000
siesta: Emolmec =         0.000000
siesta: Ekinion =         0.000000
siesta: Eharris =     -9421.253303
siesta: Etot    =     -9648.742593
siesta: FreeEng =     -9648.742593

siesta: iscf   Eharris(eV)      E_KS(eV)   FreeEng(eV)   dDmax  Ef(eV)
siesta:    1    -9421.2533    -9648.7426    -9648.7426  7.0938 -8.4062
timer: Routine,Calls,Time,% = IterSCF        1    4485.158  99.74
elaps: Routine,Calls,Wall,% = IterSCF        1     561.349  99.74
siesta:    2   -15014.0695    -8499.0035    -8499.0724 22.7310 -4.0248
siesta:    3    -9397.8126    -9498.2215    -9498.2364  3.1672 -6.3087
siesta:    4    -9364.1858    -9400.1014    -9400.1496  1.8480 -5.1460
siesta:    5    -9305.3700    -9306.2894    -9306.3432  1.3845 -4.9743
siesta:    6    -9274.6170    -9263.2685    -9263.3186  1.2639 -4.9236
siesta:    7    -9263.6051    -9243.6518    -9243.6955  0.7016 -4.9586
siesta:    8    -9260.7844    -9239.6099    -9239.6898  1.0247 -5.0006
siesta:    9    -9259.6867    -9238.3882    -9238.4573  0.8563 -5.0215
siesta:   10    -9256.8280    -9236.2257    -9236.2856  0.6162 -5.0721
siesta:   11    -9255.1116    -9229.5324    -9229.5900  0.4721 -5.0639
siesta:   12    -9255.0898    -9229.2407    -9229.3112  0.8152 -4.9316
siesta:   13    -9259.8155    -9220.5087    -9220.5855  0.5964 -4.9038
siesta:   14    -9256.3154    -9220.8305    -9220.8916  0.5680 -4.9356
siesta:   15    -9254.3118    -9223.7697    -9223.8413  0.4822 -5.0247
siesta:   16    -9253.4997    -9229.1743    -9229.2229  0.2586 -4.9984
siesta:   17    -9253.4193    -9226.5769    -9226.6573  0.3085 -5.0196
siesta:   18    -9253.0250    -9229.2540    -9229.3163  0.2785 -4.9598
siesta:   19    -9252.8611    -9227.2930    -9227.3769  0.1728 -4.9874
siesta:   20    -9252.6984    -9228.8719    -9228.9464  0.2013 -4.9636
siesta:   21    -9252.5686    -9230.5341    -9230.6260  0.2730 -4.9472
siesta:   22    -9252.5927    -9232.9238    -9233.0166  0.5042 -4.9415
siesta:   23    -9252.5907    -9235.1895    -9235.2592  0.4880 -4.9455
siesta:   24    -9252.5028    -9236.1141    -9236.1850  0.1568 -4.9878
siesta:   25    -9252.5243    -9239.9460    -9240.0328  0.0885 -5.0189
siesta:   26    -9252.4740    -9246.2476    -9246.3304  0.1613 -5.0458
siesta:   27    -9252.4555    -9248.2200    -9248.3071  0.0720 -5.0554
siesta:   28    -9252.4480    -9249.3132    -9249.4017  0.0283 -5.0485
siesta:   29    -9252.4443    -9250.1449    -9250.2377  0.0280 -5.0451
siesta:   30    -9252.4386    -9250.6863    -9250.7796  0.0212 -5.0388
siesta:   31    -9252.4357    -9251.2656    -9251.3574  0.0200 -5.0328
siesta:   32    -9252.4347    -9251.3656    -9251.4589  0.0110 -5.0321
siesta:   33    -9252.4349    -9251.4202    -9251.5134  0.0077 -5.0317
siesta:   34    -9252.4357    -9251.6762    -9251.7691  0.0093 -5.0327
siesta:   35    -9252.4353    -9252.0300    -9252.1223  0.0038 -5.0319
siesta:   36    -9252.4351    -9252.1014    -9252.1938  0.0028 -5.0309
siesta:   37    -9252.4350    -9252.2514    -9252.3440  0.0020 -5.0307
siesta:   38    -9252.4350    -9252.3603    -9252.4529  0.0015 -5.0308
siesta:   39    -9252.4349    -9252.4229    -9252.5155  0.0012 -5.0310
siesta:   40    -9252.4349    -9252.4078    -9252.5004  0.0010 -5.0311
siesta:   41    -9252.4349    -9252.4004    -9252.4930  0.0008 -5.0311
siesta:   42    -9252.4349    -9252.4422    -9252.5348  0.0003 -5.0312
siesta:   43    -9252.4349    -9252.4452    -9252.5379  0.0002 -5.0313
siesta:   44    -9252.4349    -9252.4416    -9252.5342  0.0002 -5.0314
siesta:   45    -9252.4349    -9252.4406    -9252.5333  0.0001 -5.0314
siesta:   46    -9252.4349    -9252.4400    -9252.5326  0.0001 -5.0314
siesta:   47    -9252.4349    -9252.4402    -9252.5328  0.0001 -5.0314

siesta: E_KS(eV) =            -9252.4354

siesta: E_KS - E_eggbox =     -9252.4354

siesta: Atomic forces (eV/Ang):
----------------------------------------
   Tot   -0.126876    0.063259    0.000000
----------------------------------------
   Max  570.090078
   Res  148.463495    sqrt( Sum f_i^2 / 3N )
----------------------------------------
   Max  570.090078    constrained

Stress-tensor-Voigt (kbar):     -756.89    -2683.29       -0.62       -0.34        0.00        0.00
(Free)E + p*V (eV/cell)    -7897.2566
Target enthalpy (eV/cell)    -9252.5280

siesta: Stress tensor (static) (eV/Ang**3):
        -0.472411   -0.000212    0.000000
        -0.000212   -1.674759    0.000000
         0.000000    0.000000   -0.000388

siesta: Pressure (static):       1146.93473178  kBar

siesta: Stress tensor (total) (eV/Ang**3):
        -0.472411   -0.000212    0.000000
        -0.000212   -1.674759    0.000000
         0.000000    0.000000   -0.000388

siesta: Pressure (total):       1146.93473178  kBar

siesta: Temp_ion =       0.000 K

* Maximum dynamic memory allocated =   243 MB
Computing bands...

siesta: Program's energy decomposition (eV):
siesta: Ebs     =     -4155.927848
siesta: Eions   =     15841.876847
siesta: Ena     =      4254.146817
siesta: Ekin    =      8193.859615
siesta: Enl     =      -816.865220
siesta: DEna    =      -778.237981
siesta: DUscf   =       104.479690
siesta: DUext   =         0.000000
siesta: Exc     =     -4367.941503
siesta: eta*DQ  =         0.000000
siesta: Emadel  =         0.000000
siesta: Emeta   =         0.000000
siesta: Emolmec =         0.000000
siesta: Ekinion =         0.000000
siesta: Eharris =     -9252.434897
siesta: Etot    =     -9252.435429
siesta: FreeEng =     -9252.528047

siesta: Final energy (eV):
siesta:  Band Struct. =   -4155.927848
siesta:       Kinetic =    8193.859615
siesta:       Hartree =   26702.691126
siesta:    Ext. field =       0.000000
siesta:   Exch.-corr. =   -4367.941503
siesta:  Ion-electron =  -61307.999781
siesta:       Ion-ion =   21526.955114
siesta:       Ekinion =       0.000000
siesta:         Total =   -9252.435429

siesta: Atomic forces (eV/Ang):
siesta:      1   -0.359297 -105.752886    0.000000
siesta:      2   -3.599535  396.711327    0.000000
siesta:      3   -2.091124 -105.527904    0.000000
siesta:      4    3.404232  396.291215    0.000000
siesta:      5    2.693422 -105.472310    0.000000
siesta:      6   -0.569826  388.497064    0.000000
siesta:      7   -1.052042   -5.015084    0.000000
siesta:      8    3.311979   -2.006731    0.000000
siesta:      9    3.375883    2.884632    0.000000
siesta:     10    0.923669   -5.188430    0.000000
siesta:     11    1.195468    0.930955    0.000000
siesta:     12   -4.713624    2.313731    0.000000
siesta:     13   -0.615595   -4.376392    0.000000
siesta:     14   -4.358614   -1.180882    0.000000
siesta:     15   -0.969895    0.226532    0.000000
siesta:     16    5.077914    3.035568    0.000000
siesta:     17   -5.594588   -3.756173    0.000000
siesta:     18   -6.033321    2.454791    0.000000
siesta:     19   -4.760806    6.562837    0.000000
siesta:     20    0.702364    3.920348    0.000000
siesta:     21    0.698261  554.338642    0.000000
siesta:     22   -1.189786  127.111239    0.000000
siesta:     23  -19.121223 -551.450126    0.000000
siesta:     24    0.339325  126.958411    0.000000
siesta:     25   18.635741 -550.994484    0.000000
siesta:     26   24.568835    1.194026    0.000000
siesta:     27   35.052720 -550.096816    0.000000
siesta:     28    2.300818    0.121527    0.000000
siesta:     29   -1.771106    2.866513    0.000000
siesta:     30    2.022259    1.626600    0.000000
siesta:     31   -0.724135    0.821799    0.000000
siesta:     32  -24.221895    1.540451    0.000000
siesta:     33  -35.085109 -550.569168    0.000000
siesta:     34   28.428867  543.301023    0.000000
siesta:     35   26.766115   -6.404993    0.000000
siesta:     36   -2.298443   -2.242472    0.000000
siesta:     37    2.036572   -0.264620    0.000000
siesta:     38   -1.008733   -0.674138    0.000000
siesta:     39    2.309969   -1.605109    0.000000
siesta:     40   -0.212439    6.580223    0.000000
siesta:     41   -0.236359   -6.664154    0.000000
siesta:     42   -0.222411 -130.602509    0.000000
siesta:     43   20.543416  556.147505    0.000000
siesta:     44   22.542959   -6.239257    0.000000
siesta:     45   -0.873957    2.179517    0.000000
siesta:     46    2.643507   -2.071345    0.000000
siesta:     47   -0.115420    0.151504    0.000000
siesta:     48    0.018234   -0.118618    0.000000
siesta:     49  -28.025472  544.202300    0.000000
siesta:     50  -26.201413   -7.071682    0.000000
siesta:     51  -19.742834  556.261505    0.000000
siesta:     52  -22.948146   -6.264410    0.000000
siesta:     53   -0.076418  559.569383    0.000000
siesta:     54    2.113404   -1.198582    0.000000
siesta:     55    0.563136   -3.947020    0.000000
siesta:     56    1.391152   -1.855042    0.000000
siesta:     57    2.809707    1.298718    0.000000
siesta:     58    2.666311    1.454626    0.000000
siesta:     59   -1.016330   -1.433196    0.000000
siesta:     60   -0.810382 -570.090078    0.000000
siesta:     61    0.497963    3.805653    0.000000
siesta:     62    1.474167   -1.935730    0.000000
siesta:     63   18.878703    3.362524    0.000000
siesta:     64   31.448669 -410.356975    0.000000
siesta:     65  -19.221495    3.944738    0.000000
siesta:     66  -31.204883 -410.788491    0.000000
siesta:     67   -2.828080    2.157473    0.000000
siesta:     68    1.837681    2.250596    0.000000
siesta:     69    0.316832  123.282208    0.000000
siesta:     70    0.308689 -397.222229    0.000000
siesta:     71   -0.287576  131.326035    0.000000
siesta:     72    0.136488 -551.182441    0.000000
siesta: ----------------------------------------
siesta:    Tot   -0.126876    0.063259    0.000000

siesta: Stress tensor (static) (eV/Ang**3):
siesta:    -0.472411   -0.000212    0.000000
siesta:    -0.000212   -1.674759    0.000000
siesta:     0.000000    0.000000   -0.000388

siesta: Cell volume =       1893.226884 Ang**3

siesta: Pressure (static):
siesta:                Solid            Molecule  Units
siesta:           0.00779655          0.11411999  Ry/Bohr**3
siesta:           0.71585262         10.47810899  eV/Ang**3
siesta:        1146.93473178      16787.96285239  kBar
(Free)E+ p_basis*V_orbitals  =       -9215.471361
(Free)Eharris+ p_basis*V_orbitals  =       -9215.466045

siesta: Electric dipole (a.u.)  =    0.000000    0.000000    0.000000
siesta: Electric dipole (Debye) =    0.000000    0.000000    0.000000

* Maximum dynamic memory allocated : Node    0 =   243 MB
* Maximum dynamic memory allocated : Node    1 =    85 MB
* Maximum dynamic memory allocated : Node    2 =    89 MB
* Maximum dynamic memory allocated : Node    3 =   231 MB
* Maximum dynamic memory allocated : Node    4 =   225 MB
* Maximum dynamic memory allocated : Node    5 =    82 MB
* Maximum dynamic memory allocated : Node    6 =    85 MB
* Maximum dynamic memory allocated : Node    7 =   207 MB

* Maximum memory occured during matrixMtoO                    

timer: CPU execution times:
timer:  Routine       Calls   Time/call    Tot.time        %
timer:  siesta            1  207406.522  207406.522   100.00
timer:  Setup             1       3.023       3.023     0.00
timer:  bands             3     268.984     806.953     0.39
timer:  writewave         1       0.018       0.018     0.00
timer:  KSV_init          1       0.000       0.000     0.00
timer:  IterMD            1  206590.670  206590.670    99.61
timer:  hsparse           1       0.395       0.395     0.00
timer:  overlap           1       7.783       7.783     0.00
timer:  IterSCF          47    4390.477  206352.436    99.49
timer:  kinefsm           2       4.034       8.068     0.00
timer:  nlefsm            2      21.451      42.903     0.02
timer:  DHSCF            48     122.877    5898.105     2.84
timer:  DHSCF1            1       0.998       0.998     0.00
timer:  DHSCF2            1      45.226      45.226     0.02
timer:  REORD           386       0.010       3.900     0.00
timer:  POISON           49       2.236     109.574     0.05
timer:  DHSCF3           48     120.957    5805.937     2.80
timer:  rhoofd           48      25.783    1237.578     0.60
timer:  cellXC           48       3.592     172.422     0.08
timer:  vmat             48      59.086    2836.138     1.37
timer:  MolMec            2       0.000       0.000     0.00
timer:  diagon           47    4266.494  200525.230    96.68
timer:  c-eigval      10978       6.669   73209.304    35.30
timer:  c-buildHS     10978       0.123    1345.433     0.65
timer:  cdiag         21835       6.896  150581.663    72.60
timer:  cdiag1        21835       0.429    9360.158     4.51
timer:  cdiag2        21835       1.909   41675.317    20.09
timer:  cdiag3        21835       3.934   85897.524    41.42
timer:  cdiag4        21835       0.225    4905.063     2.36
timer:  c-eigvec      10857       7.315   79418.743    38.29
timer:  c-buildD      10857       4.480   48641.122    23.45
timer:  DHSCF4            1      43.426      43.426     0.02
timer:  dfscf             1      40.736      40.736     0.02
timer:  overfsm           1       0.479       0.479     0.00
timer:  optical           1       5.121       5.121     0.00
  

elaps: ELAPSED times:
elaps:  Routine       Calls   Time/call    Tot.time        %
elaps:  siesta            1   25956.062   25956.062   100.00
elaps:  Setup             1       0.377       0.377     0.00
elaps:  bands             3      33.674     101.023     0.39
elaps:  writewave         1       0.002       0.002     0.00
elaps:  KSV_init          1       0.000       0.000     0.00
elaps:  IterMD            1   25853.985   25853.985    99.61
elaps:  hsparse           1       0.051       0.051     0.00
elaps:  overlap           1       0.970       0.970     0.00
elaps:  IterSCF          47     549.451   25824.189    99.49
elaps:  kinefsm           2       0.505       1.009     0.00
elaps:  nlefsm            2       2.795       5.591     0.02
elaps:  DHSCF            48      15.488     743.402     2.86
elaps:  DHSCF1            1       0.130       0.130     0.00
elaps:  DHSCF2            1       5.654       5.654     0.02
elaps:  REORD           386       0.001       0.509     0.00
elaps:  POISON           49       0.280      13.714     0.05
elaps:  DHSCF3           48      15.132     726.346     2.80
elaps:  rhoofd           48       6.946     333.416     1.28
elaps:  cellXC           48       0.449      21.538     0.08
elaps:  vmat             48       7.391     354.786     1.37
elaps:  MolMec            2       0.000       0.000     0.00
elaps:  diagon           47     533.963   25096.278    96.69
elaps:  c-eigval      10978       0.834    9159.862    35.29
elaps:  c-buildHS     10978       0.017     184.122     0.71
elaps:  cdiag         21835       0.848   18523.845    71.37
elaps:  cdiag1        21835       0.053    1155.427     4.45
elaps:  cdiag2        21835       0.239    5214.861    20.09
elaps:  cdiag3        21835       0.493   10762.052    41.46
elaps:  cdiag4        21835       0.028     614.930     2.37
elaps:  c-eigvec      10857       0.892    9680.852    37.30
elaps:  c-buildD      10857       0.584    6344.284    24.44
elaps:  DHSCF4            1      10.927      10.927     0.04
elaps:  dfscf             1      10.387      10.387     0.04
elaps:  overfsm           1       0.059       0.059     0.00
elaps:  optical           1       0.000       0.000     0.00
  
>> End of run:  27-APR-2016  14:50:26
