Siesta Version:                                        siesta-3.2-pl-3
Architecture  : x86_64-unknown-linux-gnu--unknown
Compiler flags: mpiifort -g -O2 -fPIC -xSSE4.1 -fp-model source -shared-intel 
PARALLEL version

* Running on   12 nodes in parallel
>> Start of run:   8-MAY-2016   0:03:26

                           ***********************       
                           *  WELCOME TO SIESTA  *       
                           ***********************       

reinit: Reading from standard input
************************** Dump of input data file ****************************
#(1) General system descriptors
SystemName            GRP_doping    # Descriptive name of the system
SystemLabel           GRP_doping    # Short name for naming files
%include STRUCT.fdf
%include KPT.fdf
%include BASIS.fdf
#%include TS.fdf # for transiesta calculation
#(4) DFT, Grid, SCF
XC.functional         GGA           # LDA or GGA (default = LDA)
XC.authors            PBE           # CA (Ceperley-Aldr) = PZ
                                    #    (Perdew-Zunger) - LDA - Default
                                    # PW92 (Perdew-Wang-92) - LDA
                                    # PBE (Perdew-Burke-Ernzerhof) - GGA
MeshCutoff            200.000000    Ry      # Default: 50.0 Ry ~ 0.444 Bohr
                                    #         100.0 Ry ~ 0.314 Bohr
MaxSCFIterations      500           # Default: 50
DM.MixingWeight       0.05          # Default: 0.25
DM.NumberPulay        10            # Default: 0
DM.PulayOnFile        F             # SystemLabel.P1, SystemLabel.P2
DM.Tolerance          1.d-4         # Default: 1.d-4
DM.UseSaveDM          .true.        # because of the bug
SCFMustConverge       .true.
NeglNonOverlapInt     F             # Default: F
#(5) Eigenvalue problem: order-N or diagonalization
SolutionMethod        Diagon        # or Transiesta
ElectronicTemperature 300.0 K       # Default: 300.0 K
#(6) Molecular dynamics and relaxations
#MD.TypeOfRun          CG            # Type of dynamics:
#MD.VariableCell       F
#MD.NumCGsteps         0           # 0 for single-point / 100 for gopt
#MD.MaxCGDispl         0.2 Bohr      # Default: 0.2 Bohr
#MD.MaxForceTol        0.02 eV/Ang   # Default: 0.04 eV/Ang
#MD.MaxStressTol       1.0 GPa       # Default: 1.0 GPa
# Geometry Constraints
#%block GeometryConstraints
#	position from 1 to 44
#%endblock GeometryConstraints
BandLinesScale   pi/a
%block BandLines
 1   0.00000000  0.00000000  0.00000000
50   0.00000000  0.07809418  0.00000000
50   0.04509075  0.07809242  0.00000000
20   0.00000000  0.00000000  0.00000000
%endblock BandLines
************************** End of input data file *****************************

reinit: -----------------------------------------------------------------------
reinit: System Name: GRP_doping
reinit: -----------------------------------------------------------------------
reinit: System Label: GRP_doping                                                  
reinit: -----------------------------------------------------------------------

initatom: Reading input for the pseudopotentials and atomic orbitals ----------
 Species number:            1  Label: N Atomic number:           7
 Species number:            2  Label: C Atomic number:           6
Ground state valence configuration:   2s02  2p03
Reading pseudopotential information in formatted form from N.psf

Valence configuration for pseudopotential generation:
2s( 2.00) rc: 1.48
2p( 3.00) rc: 1.48
3d( 0.00) rc: 1.48
4f( 0.00) rc: 1.48
Ground state valence configuration:   2s02  2p02
Reading pseudopotential information in formatted form from C.psf

Valence configuration for pseudopotential generation:
2s( 2.00) rc: 1.54
2p( 2.00) rc: 1.54
3d( 0.00) rc: 1.54
4f( 0.00) rc: 1.54
For N, standard SIESTA heuristics set lmxkb to 3
 (one more than the basis l, including polarization orbitals).
Use PS.lmax or PS.KBprojectors blocks to override.
For C, standard SIESTA heuristics set lmxkb to 3
 (one more than the basis l, including polarization orbitals).
Use PS.lmax or PS.KBprojectors blocks to override.

<basis_specs>
===============================================================================
N                    Z=   7    Mass=  14.010        Charge= 0.17977+309
Lmxo=1 Lmxkb= 3    BasisType=split      Semic=F
L=0  Nsemic=0  Cnfigmx=2
          n=1  nzeta=2  polorb=0
            splnorm:   0.15000    
               vcte:    0.0000    
               rinn:    0.0000    
                rcs:    0.0000      0.0000    
            lambdas:    1.0000      1.0000    
L=1  Nsemic=0  Cnfigmx=2
          n=1  nzeta=2  polorb=1
            splnorm:   0.15000    
               vcte:    0.0000    
               rinn:    0.0000    
                rcs:    0.0000      0.0000    
            lambdas:    1.0000      1.0000    
-------------------------------------------------------------------------------
L=0  Nkbl=1  erefs: 0.17977+309
L=1  Nkbl=1  erefs: 0.17977+309
L=2  Nkbl=1  erefs: 0.17977+309
L=3  Nkbl=1  erefs: 0.17977+309
===============================================================================
</basis_specs>

atom: Called for N                     (Z =   7)

read_vps: Pseudopotential generation method:
read_vps: ATM3      Troullier-Martins                       
Total valence charge:    5.00000

read_vps: Pseudopotential includes a core correction:
read_vps: Pseudo-core for xc-correction

xc_check: Exchange-correlation functional:
xc_check: GGA Perdew, Burke & Ernzerhof 1996
V l=0 = -2*Zval/r beyond r=  1.4606
V l=1 = -2*Zval/r beyond r=  1.4606
V l=2 = -2*Zval/r beyond r=  1.4606
V l=3 = -2*Zval/r beyond r=  1.4606
All V_l potentials equal beyond r=  1.4606
This should be close to max(r_c) in ps generation
All pots = -2*Zval/r beyond r=  1.4606

VLOCAL1: 99.0% of the norm of Vloc inside     20.347 Ry
VLOCAL1: 99.9% of the norm of Vloc inside     46.372 Ry
atom: Maximum radius for 4*pi*r*r*local-pseudopot. charge    1.76189
atom: Maximum radius for r*vlocal+2*Zval:    1.53550
GHOST: No ghost state for L =  0
GHOST: No ghost state for L =  1
GHOST: No ghost state for L =  2
GHOST: No ghost state for L =  3

KBgen: Kleinman-Bylander projectors: 
   l= 0   rc=  1.634559   el= -1.363963   Ekb=  5.296955   kbcos=  0.335621
   l= 1   rc=  1.614250   el= -0.521451   Ekb= -5.259161   kbcos= -0.433408
   l= 2   rc=  1.718383   el=  0.001991   Ekb= -1.271464   kbcos= -0.007566
   l= 3   rc=  1.761893   el=  0.003093   Ekb= -0.494769   kbcos= -0.001015

KBgen: Total number of  Kleinman-Bylander projectors:   16
atom: -------------------------------------------------------------------------

atom: SANKEY-TYPE ORBITALS:
atom: Selected multiple-zeta basis: split     

SPLIT: Orbitals with angular momentum L= 0

SPLIT: Basis orbitals for state 2s

SPLIT: PAO cut-off radius determined from an
SPLIT: energy shift=  0.007350 Ry

   izeta = 1
                 lambda =    1.000000
                     rc =    4.071465
                 energy =   -1.356470
                kinetic =    1.176977
    potential(screened) =   -2.533447
       potential(ionic) =   -8.057990

   izeta = 2
                 rmatch =    2.905100
              splitnorm =    0.150000
                 energy =   -1.158343
                kinetic =    1.813009
    potential(screened) =   -2.971352
       potential(ionic) =   -8.901931

SPLIT: Orbitals with angular momentum L= 1

SPLIT: Basis orbitals for state 2p

SPLIT: PAO cut-off radius determined from an
SPLIT: energy shift=  0.007350 Ry

   izeta = 1
                 lambda =    1.000000
                     rc =    4.972977
                 energy =   -0.513884
                kinetic =    3.441732
    potential(screened) =   -3.955616
       potential(ionic) =   -9.287901

   izeta = 2
                 rmatch =    3.054066
              splitnorm =    0.150000
                 energy =   -0.318226
                kinetic =    5.125348
    potential(screened) =   -5.443573
       potential(ionic) =  -11.380999

POLgen: Perturbative polarization orbital with L=  2

POLgen: Polarization orbital for state 2p

   izeta = 1
                     rc =    4.972977
                 energy =    1.607437
                kinetic =    3.268125
    potential(screened) =   -1.660688
       potential(ionic) =   -5.973652
atom: Total number of Sankey-type orbitals: 13

atm_pop: Valence configuration (for local Pseudopot. screening):
 2s( 2.00)                                                            
 2p( 3.00)                                                            
Vna: chval, zval:    5.00000   5.00000

Vna:  Cut-off radius for the neutral-atom potential:   4.972977
comcore: Pseudo-core radius Rcore=  1.554824

atom: _________________________________________________________________________

<basis_specs>
===============================================================================
C                    Z=   6    Mass=  12.010        Charge= 0.17977+309
Lmxo=1 Lmxkb= 3    BasisType=split      Semic=F
L=0  Nsemic=0  Cnfigmx=2
          n=1  nzeta=2  polorb=0
            splnorm:   0.15000    
               vcte:    0.0000    
               rinn:    0.0000    
                rcs:    0.0000      0.0000    
            lambdas:    1.0000      1.0000    
L=1  Nsemic=0  Cnfigmx=2
          n=1  nzeta=2  polorb=1
            splnorm:   0.15000    
               vcte:    0.0000    
               rinn:    0.0000    
                rcs:    0.0000      0.0000    
            lambdas:    1.0000      1.0000    
-------------------------------------------------------------------------------
L=0  Nkbl=1  erefs: 0.17977+309
L=1  Nkbl=1  erefs: 0.17977+309
L=2  Nkbl=1  erefs: 0.17977+309
L=3  Nkbl=1  erefs: 0.17977+309
===============================================================================
</basis_specs>

atom: Called for C                     (Z =   6)

read_vps: Pseudopotential generation method:
read_vps: ATM3      Troullier-Martins                       
Total valence charge:    4.00000

read_vps: Pseudopotential includes a core correction:
read_vps: Pseudo-core for xc-correction

xc_check: Exchange-correlation functional:
xc_check: GGA Perdew, Burke & Ernzerhof 1996
V l=0 = -2*Zval/r beyond r=  1.5227
V l=1 = -2*Zval/r beyond r=  1.5227
V l=2 = -2*Zval/r beyond r=  1.5227
V l=3 = -2*Zval/r beyond r=  1.5038
All V_l potentials equal beyond r=  1.5227
This should be close to max(r_c) in ps generation
All pots = -2*Zval/r beyond r=  1.5227

VLOCAL1: 99.0% of the norm of Vloc inside     18.722 Ry
VLOCAL1: 99.9% of the norm of Vloc inside     42.668 Ry
atom: Maximum radius for 4*pi*r*r*local-pseudopot. charge    1.83678
atom: Maximum radius for r*vlocal+2*Zval:    1.58088
GHOST: No ghost state for L =  0
GHOST: No ghost state for L =  1
GHOST: No ghost state for L =  2
GHOST: No ghost state for L =  3

KBgen: Kleinman-Bylander projectors: 
   l= 0   rc=  1.704034   el= -1.009801   Ekb=  5.335044   kbcos=  0.316824
   l= 1   rc=  1.704034   el= -0.388707   Ekb= -3.785862   kbcos= -0.366464
   l= 2   rc=  1.791422   el=  0.001971   Ekb= -0.970471   kbcos= -0.009212
   l= 3   rc=  1.859892   el=  0.003065   Ekb= -0.399525   kbcos= -0.001223

KBgen: Total number of  Kleinman-Bylander projectors:   16
atom: -------------------------------------------------------------------------

atom: SANKEY-TYPE ORBITALS:
atom: Selected multiple-zeta basis: split     

SPLIT: Orbitals with angular momentum L= 0

SPLIT: Basis orbitals for state 2s

SPLIT: PAO cut-off radius determined from an
SPLIT: energy shift=  0.007350 Ry

   izeta = 1
                 lambda =    1.000000
                     rc =    4.632753
                 energy =   -1.002270
                kinetic =    0.855760
    potential(screened) =   -1.858031
       potential(ionic) =   -5.417575

   izeta = 2
                 rmatch =    3.431921
              splitnorm =    0.150000
                 energy =   -0.867111
                kinetic =    1.300804
    potential(screened) =   -2.167915
       potential(ionic) =   -5.962684

SPLIT: Orbitals with angular momentum L= 1

SPLIT: Basis orbitals for state 2p

SPLIT: PAO cut-off radius determined from an
SPLIT: energy shift=  0.007350 Ry

   izeta = 1
                 lambda =    1.000000
                     rc =    5.658549
                 energy =   -0.381140
                kinetic =    2.399701
    potential(screened) =   -2.780841
       potential(ionic) =   -6.206085

   izeta = 2
                 rmatch =    3.653288
              splitnorm =    0.150000
                 energy =   -0.249149
                kinetic =    3.542762
    potential(screened) =   -3.791911
       potential(ionic) =   -7.581078

POLgen: Perturbative polarization orbital with L=  2

POLgen: Polarization orbital for state 2p

   izeta = 1
                     rc =    5.658549
                 energy =    1.109913
                kinetic =    2.304789
    potential(screened) =   -1.194876
       potential(ionic) =   -4.013592
atom: Total number of Sankey-type orbitals: 13

atm_pop: Valence configuration (for local Pseudopot. screening):
 2s( 2.00)                                                            
 2p( 2.00)                                                            
Vna: chval, zval:    4.00000   4.00000

Vna:  Cut-off radius for the neutral-atom potential:   5.658549
comcore: Pseudo-core radius Rcore=  1.791422

atom: _________________________________________________________________________

prinput: Basis input ----------------------------------------------------------

PAO.BasisType split     

%block ChemicalSpeciesLabel
    1    7 N                       # Species index, atomic number, species label
    2    6 C                       # Species index, atomic number, species label
%endblock ChemicalSpeciesLabel

%block PAO.Basis                 # Define Basis set
N                     2                    # Species label, number of l-shells
 n=2   0   2                         # n, l, Nzeta 
   4.071      2.905   
   1.000      1.000   
 n=2   1   2 P   1                   # n, l, Nzeta, Polarization, NzetaPol
   4.973      3.054   
   1.000      1.000   
C                     2                    # Species label, number of l-shells
 n=2   0   2                         # n, l, Nzeta 
   4.633      3.432   
   1.000      1.000   
 n=2   1   2 P   1                   # n, l, Nzeta, Polarization, NzetaPol
   5.659      3.653   
   1.000      1.000   
%endblock PAO.Basis

prinput: ----------------------------------------------------------------------

coor:   Atomic-coordinates input format  =     Fractional

siesta: Atomic coordinates (Bohr) and species
siesta:      2.30256  17.38257   0.00000  1        1
siesta:      6.95932  25.44831   0.00000  1        2
siesta:     -0.02582  18.72698   0.00000  1        3
siesta:      2.30256  25.44831   0.00000  1        4
siesta:     -2.35420  25.44831   0.00000  1        5
siesta:     -7.01096  25.44831   0.00000  1        6
siesta:      4.63094  26.79272   0.00000  1        7
siesta:     -0.02582  26.79272   0.00000  1        8
siesta:     -4.68258  26.79272   0.00000  1        9
siesta:      2.30256  30.82560   0.00000  1       10
siesta:      2.30256  33.51406   0.00000  1       11
siesta:     -0.02582   2.59549   0.00000  2       12
siesta:     -0.02582   5.28395   0.00000  2       13
siesta:     -2.35420  38.89134   0.00000  2       14
siesta:     -2.35420  41.57980   0.00000  2       15
siesta:      2.30256  38.89134   0.00000  2       16
siesta:      2.30256  41.57980   0.00000  2       17
siesta:      4.63094  34.85847   0.00000  2       18
siesta:      4.63094  37.54693   0.00000  2       19
siesta:      6.95932  30.82560   0.00000  2       20
siesta:      6.95932  33.51406   0.00000  2       21
siesta:      9.28770  26.79272   0.00000  2       22
siesta:      9.28770  29.48119   0.00000  2       23
siesta:     -4.68258  34.85847   0.00000  2       24
siesta:     -4.68258  37.54693   0.00000  2       25
siesta:      2.30256   6.62836   0.00000  2       26
siesta:      2.30256   9.31683   0.00000  2       27
siesta:      4.63094  10.66124   0.00000  2       28
siesta:      4.63094  13.34970   0.00000  2       29
siesta:      6.95932  14.69411   0.00000  2       30
siesta:      6.95932  17.38257   0.00000  2       31
siesta:      9.28770  18.72698   0.00000  2       32
siesta:      9.28770  21.41544   0.00000  2       33
siesta:     11.61608  22.75985   0.00000  2       34
siesta:     11.61608  25.44831   0.00000  2       35
siesta:     -2.35420   6.62836   0.00000  2       36
siesta:     -2.35420   9.31683   0.00000  2       37
siesta:     -0.02582  10.66124   0.00000  2       38
siesta:     -0.02582  13.34970   0.00000  2       39
siesta:      2.30256  14.69411   0.00000  2       40
siesta:      4.63094  18.72698   0.00000  2       41
siesta:      4.63094  21.41544   0.00000  2       42
siesta:      6.95932  22.75985   0.00000  2       43
siesta:     -4.68258  10.66124   0.00000  2       44
siesta:     -4.68258  13.34970   0.00000  2       45
siesta:     -2.35420  14.69411   0.00000  2       46
siesta:     -2.35420  17.38257   0.00000  2       47
siesta:     -0.02582  21.41544   0.00000  2       48
siesta:      2.30256  22.75985   0.00000  2       49
siesta:     -7.01096  14.69411   0.00000  2       50
siesta:     -7.01096  17.38257   0.00000  2       51
siesta:     -4.68258  18.72698   0.00000  2       52
siesta:     -4.68258  21.41544   0.00000  2       53
siesta:     -2.35420  22.75985   0.00000  2       54
siesta:     -9.33934  18.72698   0.00000  2       55
siesta:     -9.33934  21.41544   0.00000  2       56
siesta:     -7.01096  22.75985   0.00000  2       57
siesta:    -11.66772  22.75985   0.00000  2       58
siesta:    -11.66772  25.44831   0.00000  2       59
siesta:     -9.33934  26.79272   0.00000  2       60
siesta:     -9.33934  29.48119   0.00000  2       61
siesta:      4.63094  29.48119   0.00000  2       62
siesta:     -0.02582  29.48119   0.00000  2       63
siesta:     -4.68258  29.48119   0.00000  2       64
siesta:     -2.35420  30.82560   0.00000  2       65
siesta:     -2.35420  33.51406   0.00000  2       66
siesta:     -7.01096  30.82560   0.00000  2       67
siesta:     -7.01096  33.51406   0.00000  2       68
siesta:     -0.02582  34.85847   0.00000  2       69
siesta:     -0.02582  37.54693   0.00000  2       70
siesta:     -0.02582  42.92421   0.00000  2       71
siesta:     -0.02582  45.61267   0.00000  2       72

siesta: System type = slab      

initatomlists: Number of atoms, orbitals, and projectors:     72   936  1152

siesta: ******************** Simulation parameters ****************************
siesta:
siesta: The following are some of the parameters of the simulation.
siesta: A complete list of the parameters used, including default values,
siesta: can be found in file out.fdf
siesta:
redata: Non-Collinear-spin run           =     F
redata: SpinPolarized (Up/Down) run      =     F
redata: Number of spin components        =     1
redata: Long output                      =     F
redata: Number of Atomic Species         =        2
redata: Charge density info will appear in .RHO file
redata: Write Mulliken Pop.              =     NO
redata: Mesh Cutoff                      =   200.0000  Ry
redata: Net charge of the system         =     0.0000 |e|
redata: Max. number of SCF Iter          =      500
redata: SCF convergence failure will abort job
redata: Performing Pulay mixing using    =    10 iterations
redata: Mix DM in first SCF step ?       =     F
redata: Write Pulay info on disk?        =     F
redata: Discard 1st Pulay DM after  kick =     F
redata: New DM Mixing Weight             =     0.0500
redata: New DM Occupancy tolerance       = 0.000000000001
redata: No kicks to SCF
redata: DM Mixing Weight for Kicks       =     0.5000
redata: DM Tolerance for SCF             =     0.000100
redata: Require Energy convergence for SCF =     F
redata: DM Energy tolerance for SCF      =     0.000100 eV
redata: Require Harris convergence for SCF =     F
redata: DM Harris energy tolerance for SCF =     0.000100 eV
redata: Using Saved Data (generic)   =     F
redata: Use continuation files for DM    =     T
redata: Neglect nonoverlap interactions  =     F
redata: Method of Calculation            =     Diagonalization
redata: Divide and Conquer               =     T
redata: Electronic Temperature           =     0.0019  Ry
redata: Fix the spin of the system       =     F
redata: Dynamics option                  =     Verlet MD run
redata: Initial MD time step             =        1
redata:   Final MD time step             =        1
redata: Length of MD time step           =     1.0000  fs
redata: Initial Temperature of MD run    =     0.0000  K
redata: Perform a MD quench              =     F
redata: ***********************************************************************
Total number of electrons:   299.000000
Total ionic charge:   299.000000

* ProcessorY, Blocksize:    3  24

k-point displ. along   1 input, could be:     0.50    0.00
k-point displ. along   2 input, could be:     0.50    0.00
 Kpoints in:          231 . Kpoints trimmed:          231

siesta: k-grid: Number of k-points =   231
siesta: k-grid: Cutoff (effective) =     5.000 Ang
siesta: k-grid: Supercell and displacements
siesta: k-grid:   21   0   0      0.500
siesta: k-grid:    0  21   0      0.500
siesta: k-grid:    0   0   1      0.000
Naive supercell factors:     2    2    2

superc: Internal auxiliary supercell:     2 x     2 x     2  =       8
superc: Number of atoms, orbitals, and projectors:    576   7488   9216

* Maximum dynamic memory allocated =     4 MB

siesta:                 ==============================
                            Begin MD step =      1
                        ==============================

superc: Internal auxiliary supercell:     2 x     2 x     2  =       8
superc: Number of atoms, orbitals, and projectors:    576   7488   9216

outcell: Unit cell vectors (Ang):
       12.804619    7.392750    0.000000
        0.000000   14.785500    0.000000
        0.000000    0.000000   10.000000

outcell: Cell vector modules (Ang)   :   14.785500   14.785500   10.000000
outcell: Cell angles (23,13,12) (deg):     90.0000     90.0000     60.0000
outcell: Cell volume (Ang**3)        :   1893.2269
New_DM. Step:     1
Initializing Density Matrix...

InitMesh: MESH =   120 x   120 x    90 =     1296000
InitMesh: Mesh cutoff (required, used) =   200.000   223.865 Ry

* Maximum dynamic memory allocated =   136 MB

stepf: Fermi-Dirac step function

siesta: Program's energy decomposition (eV):
siesta: Ebs     =     -6081.366086
siesta: Eions   =     20171.226357
siesta: Ena     =      4835.251097
siesta: Ekin    =      7301.325480
siesta: Enl     =       314.227906
siesta: DEna    =        -0.000015
siesta: DUscf   =         0.000000
siesta: DUext   =         0.000000
siesta: Exc     =     -4441.780698
siesta: eta*DQ  =         0.000000
siesta: Emadel  =         0.000000
siesta: Emeta   =         0.000000
siesta: Emolmec =         0.000000
siesta: Ekinion =         0.000000
siesta: Eharris =    -11824.926153
siesta: Etot    =    -12162.202588
siesta: FreeEng =    -12162.202588

siesta: iscf   Eharris(eV)      E_KS(eV)   FreeEng(eV)   dDmax  Ef(eV)
siesta:    1   -11824.9262   -12162.2026   -12162.2026  6.2372 -7.2055
timer: Routine,Calls,Time,% = IterSCF        1    3007.104  99.60
elaps: Routine,Calls,Wall,% = IterSCF        1     251.190  99.59
siesta:    2   -17321.4126   -11067.9906   -11068.0004 12.9271 -5.9926
siesta:    3   -11803.3063   -11943.0540   -11943.0967  2.1039 -4.7301
siesta:    4   -11721.8221   -11849.2277   -11849.2661  1.3936 -4.7423
siesta:    5   -11691.8543   -11772.3564   -11772.3961  0.8332 -4.2895
siesta:    6   -11679.4401   -11737.8130   -11737.8475  0.7669 -4.1360
siesta:    7   -11665.2757   -11712.5187   -11712.5734  0.6634 -3.9323
siesta:    8   -11662.4905   -11704.9080   -11704.9640  0.5943 -3.9013
siesta:    9   -11660.3092   -11681.6103   -11681.6651  0.4031 -3.8965
siesta:   10   -11660.0605   -11673.0662   -11673.1452  0.3061 -3.8857
siesta:   11   -11660.0266   -11659.6233   -11659.6747  0.2118 -3.8756
siesta:   12   -11659.6287   -11656.6507   -11656.7134  0.2484 -3.8467
siesta:   13   -11659.2177   -11653.2964   -11653.3493  0.2093 -3.8344
siesta:   14   -11658.9797   -11655.7804   -11655.8472  0.1671 -3.8475
siesta:   15   -11658.7612   -11657.3236   -11657.3847  0.1021 -3.8628
siesta:   16   -11658.6404   -11658.1049   -11658.1758  0.0685 -3.8721
siesta:   17   -11658.5968   -11658.0802   -11658.1500  0.0452 -3.8781
siesta:   18   -11658.5841   -11657.6851   -11657.7513  0.0339 -3.8746
siesta:   19   -11658.5815   -11657.7234   -11657.7897  0.0221 -3.8751
siesta:   20   -11658.5722   -11657.5272   -11657.5911  0.0217 -3.8691
siesta:   21   -11658.5653   -11657.2645   -11657.3283  0.0186 -3.8688
siesta:   22   -11658.5604   -11657.5059   -11657.5705  0.0112 -3.8738
siesta:   23   -11658.5604   -11657.8483   -11657.9140  0.0131 -3.8753
siesta:   24   -11658.5594   -11658.1830   -11658.2484  0.0130 -3.8750
siesta:   25   -11658.5596   -11658.2336   -11658.2990  0.0102 -3.8748
siesta:   26   -11658.5596   -11658.2270   -11658.2920  0.0061 -3.8746
siesta:   27   -11658.5599   -11658.3043   -11658.3694  0.0026 -3.8742
siesta:   28   -11658.5599   -11658.4188   -11658.4836  0.0010 -3.8748
siesta:   29   -11658.5598   -11658.4553   -11658.5200  0.0009 -3.8751
siesta:   30   -11658.5597   -11658.4873   -11658.5521  0.0007 -3.8754
siesta:   31   -11658.5597   -11658.5250   -11658.5898  0.0005 -3.8756
siesta:   32   -11658.5597   -11658.5477   -11658.6126  0.0004 -3.8756
siesta:   33   -11658.5597   -11658.5584   -11658.6232  0.0002 -3.8755
siesta:   34   -11658.5597   -11658.5603   -11658.6251  0.0001 -3.8755
siesta:   35   -11658.5597   -11658.5592   -11658.6240  0.0001 -3.8754
siesta:   36   -11658.5597   -11658.5595   -11658.6243  0.0001 -3.8754

siesta: E_KS(eV) =           -11658.5597

siesta: E_KS - E_eggbox =    -11658.5597

siesta: Atomic forces (eV/Ang):
----------------------------------------
   Tot    0.030782   -0.101498    0.000000
----------------------------------------
   Max  682.700150
   Res  169.152880    sqrt( Sum f_i^2 / 3N )
----------------------------------------
   Max  682.700150    constrained

Stress-tensor-Voigt (kbar):     -711.97    -2969.32       -0.12       -3.86        0.00        0.00
(Free)E + p*V (eV/cell)   -10208.5854
Target enthalpy (eV/cell)   -11658.6245

siesta: Stress tensor (static) (eV/Ang**3):
        -0.444371   -0.002410    0.000000
        -0.002410   -1.853283    0.000000
         0.000000    0.000000   -0.000072

siesta: Pressure (static):       1227.13442319  kBar

siesta: Stress tensor (total) (eV/Ang**3):
        -0.444371   -0.002410    0.000000
        -0.002410   -1.853283    0.000000
         0.000000    0.000000   -0.000072

siesta: Pressure (total):       1227.13442319  kBar

siesta: Temp_ion =       0.000 K

* Maximum dynamic memory allocated =   148 MB
Computing bands...

siesta: Program's energy decomposition (eV):
siesta: Ebs     =     -4840.540700
siesta: Eions   =     20171.226357
siesta: Ena     =      4835.251097
siesta: Ekin    =     10324.130515
siesta: Enl     =     -1358.067066
siesta: DEna    =      -783.663962
siesta: DUscf   =       107.523339
siesta: DUext   =         0.000000
siesta: Exc     =     -4612.507225
siesta: eta*DQ  =         0.000000
siesta: Emadel  =         0.000000
siesta: Emeta   =         0.000000
siesta: Emolmec =         0.000000
siesta: Ekinion =         0.000000
siesta: Eharris =    -11658.559682
siesta: Etot    =    -11658.559659
siesta: FreeEng =    -11658.624494

siesta: Final energy (eV):
siesta:  Band Struct. =   -4840.540700
siesta:       Kinetic =   10324.130515
siesta:       Hartree =   33508.715962
siesta:    Ext. field =       0.000000
siesta:   Exch.-corr. =   -4612.507225
siesta:  Ion-electron =  -76944.291027
siesta:       Ion-ion =   26065.392116
siesta:       Ekinion =       0.000000
siesta:         Total =  -11658.559659

siesta: Atomic forces (eV/Ang):
siesta:      1   35.535048  -11.641328    0.000000
siesta:      2    0.429328   -1.968570    0.000000
siesta:      3  -18.613179  682.700150    0.000000
siesta:      4    0.957709   -1.351417    0.000000
siesta:      5   -1.007396   -1.936692    0.000000
siesta:      6   -0.478686   -1.962594    0.000000
siesta:      7   -0.565026    1.620692    0.000000
siesta:      8   -1.010174    3.361281    0.000000
siesta:      9    0.025204    1.577894    0.000000
siesta:     10   27.684171   -0.173929    0.000000
siesta:     11   -0.910131 -664.640280    0.000000
siesta:     12   21.745091  544.898574    0.000000
siesta:     13    4.103750 -123.925650    0.000000
siesta:     14    1.428297  129.552749    0.000000
siesta:     15  -18.237136 -547.833786    0.000000
siesta:     16   -2.062334  128.859731    0.000000
siesta:     17   17.195756 -551.177044    0.000000
siesta:     18   25.353396    9.864998    0.000000
siesta:     19   30.977122 -549.214337    0.000000
siesta:     20    0.818256    0.276973    0.000000
siesta:     21   -1.796764    1.313991    0.000000
siesta:     22    1.204580    2.052674    0.000000
siesta:     23   -0.555198   -0.216987    0.000000
siesta:     24  -26.031039    6.906166    0.000000
siesta:     25  -34.148803 -550.341386    0.000000
siesta:     26   29.467167  655.836588    0.000000
siesta:     27    0.101521 -123.969809    0.000000
siesta:     28   35.562960  550.717386    0.000000
siesta:     29   26.557517   -6.554793    0.000000
siesta:     30   -2.970779   -2.000690    0.000000
siesta:     31    1.653686   -0.062092    0.000000
siesta:     32   -1.217728   -0.179876    0.000000
siesta:     33    1.568314   -1.687502    0.000000
siesta:     34    0.015349    6.309149    0.000000
siesta:     35   -0.663424   -5.731766    0.000000
siesta:     36  -15.442051  550.705735    0.000000
siesta:     37   -0.189463 -128.525576    0.000000
siesta:     38   -0.604094  547.987404    0.000000
siesta:     39    1.394400 -128.115681    0.000000
siesta:     40   14.816357  559.634090    0.000000
siesta:     41   -0.194612    2.644964    0.000000
siesta:     42   -0.004026    0.047474    0.000000
siesta:     43   -0.540365    0.895584    0.000000
siesta:     44  -33.133647  549.927758    0.000000
siesta:     45  -26.203694   -5.794213    0.000000
siesta:     46  -22.635573  557.937109    0.000000
siesta:     47  -26.072579   -9.220954    0.000000
siesta:     48   -0.371555    1.739460    0.000000
siesta:     49   -0.253224   -0.502326    0.000000
siesta:     50    2.894441   -2.193354    0.000000
siesta:     51   -1.812268    0.080783    0.000000
siesta:     52    0.918764    3.037093    0.000000
siesta:     53   -0.649161    0.324585    0.000000
siesta:     54    0.357014   -0.421408    0.000000
siesta:     55    1.198801   -0.295187    0.000000
siesta:     56   -1.787606   -1.716022    0.000000
siesta:     57    0.790120    1.109182    0.000000
siesta:     58    0.188061    6.207262    0.000000
siesta:     59    0.747650   -5.577059    0.000000
siesta:     60   -1.172455    1.612394    0.000000
siesta:     61    0.777097    0.206261    0.000000
siesta:     62   -1.315558   -3.572369    0.000000
siesta:     63  -18.831583 -574.637086    0.000000
siesta:     64    1.863195   -3.508686    0.000000
siesta:     65  -25.215377    4.705536    0.000000
siesta:     66  -18.134950 -560.272891    0.000000
siesta:     67   -1.822652   -0.227823    0.000000
siesta:     68    2.752331    1.669647    0.000000
siesta:     69   -3.352575  130.340835    0.000000
siesta:     70    3.788589 -547.251836    0.000000
siesta:     71    1.819424  116.970295    0.000000
siesta:     72   13.347182 -645.330947    0.000000
siesta: ----------------------------------------
siesta:    Tot    0.030782   -0.101498    0.000000

siesta: Stress tensor (static) (eV/Ang**3):
siesta:    -0.444371   -0.002410    0.000000
siesta:    -0.002410   -1.853283    0.000000
siesta:     0.000000    0.000000   -0.000072

siesta: Cell volume =       1893.226884 Ang**3

siesta: Pressure (static):
siesta:                Solid            Molecule  Units
siesta:           0.00834172          0.13216210  Ry/Bohr**3
siesta:           0.76590879         12.13467473  eV/Ang**3
siesta:        1227.13442319      19442.10245975  kBar
(Free)E+ p_basis*V_orbitals  =      -11629.459475
(Free)Eharris+ p_basis*V_orbitals  =      -11629.459704

siesta: Electric dipole (a.u.)  =    0.000000    0.000000    0.000000
siesta: Electric dipole (Debye) =    0.000000    0.000000    0.000000

* Maximum dynamic memory allocated : Node    0 =   147 MB
* Maximum dynamic memory allocated : Node    1 =    59 MB
* Maximum dynamic memory allocated : Node    2 =    60 MB
* Maximum dynamic memory allocated : Node    3 =   135 MB
* Maximum dynamic memory allocated : Node    4 =   148 MB
* Maximum dynamic memory allocated : Node    5 =    53 MB
* Maximum dynamic memory allocated : Node    6 =    54 MB
* Maximum dynamic memory allocated : Node    7 =   140 MB
* Maximum dynamic memory allocated : Node    8 =   128 MB
* Maximum dynamic memory allocated : Node    9 =    53 MB
* Maximum dynamic memory allocated : Node   10 =    54 MB
* Maximum dynamic memory allocated : Node   11 =   122 MB

* Maximum memory occured during matrixMtoO                    

timer: CPU execution times:
timer:  Routine       Calls   Time/call    Tot.time        %
timer:  siesta            1  106167.300  106167.300   100.00
timer:  Setup             1       3.351       3.351     0.00
timer:  bands             3     225.323     675.968     0.64
timer:  writewave         1       0.024       0.024     0.00
timer:  KSV_init          1       0.004       0.004     0.00
timer:  IterMD            1  105481.070  105481.070    99.35
timer:  hsparse           1       0.162       0.162     0.00
timer:  overlap           1       6.381       6.381     0.01
timer:  IterSCF          36    2926.489  105353.617    99.23
timer:  kinefsm           2       3.238       6.476     0.01
timer:  nlefsm            2      18.575      37.149     0.03
timer:  DHSCF            37      63.436    2347.127     2.21
timer:  DHSCF1            1       0.900       0.900     0.00
timer:  DHSCF2            1      25.085      25.085     0.02
timer:  REORD           298       0.002       0.682     0.00
timer:  POISON           38       0.449      17.050     0.02
timer:  DHSCF3           37      62.149    2299.496     2.17
timer:  rhoofd           37      12.601     466.228     0.44
timer:  cellXC           37       2.417      89.428     0.08
timer:  vmat             37      29.185    1079.855     1.02
timer:  MolMec            2       0.000       0.000     0.00
timer:  diagon           36    2861.860  103026.950    97.04
timer:  c-eigval       8437       5.574   47024.168    44.29
timer:  c-buildHS      8437       0.033     276.242     0.26
timer:  cdiag         16753       5.673   95039.492    89.52
timer:  cdiag1        16753       0.261    4370.552     4.12
timer:  cdiag2        16753       1.833   30711.969    28.93
timer:  cdiag3        16753       3.368   56428.988    53.15
timer:  cdiag4        16753       0.088    1475.552     1.39
timer:  c-eigvec       8316       5.834   48516.454    45.70
timer:  c-buildD       8316       0.976    8116.630     7.65
timer:  DHSCF4            1      21.398      21.398     0.02
timer:  dfscf             1      19.963      19.963     0.02
timer:  overfsm           1       0.282       0.282     0.00
timer:  optical           1       6.307       6.307     0.01
  

elaps: ELAPSED times:
elaps:  Routine       Calls   Time/call    Tot.time        %
elaps:  siesta            1    8868.101    8868.101   100.00
elaps:  Setup             1       0.280       0.280     0.00
elaps:  bands             3      18.836      56.509     0.64
elaps:  writewave         1       0.002       0.002     0.00
elaps:  KSV_init          1       0.000       0.000     0.00
elaps:  IterMD            1    8810.780    8810.780    99.35
elaps:  hsparse           1       0.016       0.016     0.00
elaps:  overlap           1       0.710       0.710     0.01
elaps:  IterSCF          36     244.448    8800.134    99.23
elaps:  kinefsm           2       0.361       0.723     0.01
elaps:  nlefsm            2       1.589       3.177     0.04
elaps:  DHSCF            37       5.346     197.785     2.23
elaps:  DHSCF1            1       0.077       0.077     0.00
elaps:  DHSCF2            1       2.094       2.094     0.02
elaps:  REORD           298       0.000       0.090     0.00
elaps:  POISON           38       0.038       1.431     0.02
elaps:  DHSCF3           37       5.192     192.110     2.17
elaps:  rhoofd           37       2.211      81.800     0.92
elaps:  cellXC           37       0.201       7.452     0.08
elaps:  vmat             37       2.439      90.230     1.02
elaps:  MolMec            2       0.000       0.000     0.00
elaps:  diagon           36     239.052    8605.872    97.04
elaps:  c-eigval       8437       0.466    3927.862    44.29
elaps:  c-buildHS      8437       0.003      28.949     0.33
elaps:  cdiag         16753       0.471    7893.807    89.01
elaps:  cdiag1        16753       0.021     357.917     4.04
elaps:  cdiag2        16753       0.153    2567.677    28.95
elaps:  cdiag3        16753       0.282    4720.956    53.24
elaps:  cdiag4        16753       0.007     116.961     1.32
elaps:  c-eigvec       8316       0.483    4019.133    45.32
elaps:  c-buildD       8316       0.086     711.139     8.02
elaps:  DHSCF4            1       3.466       3.466     0.04
elaps:  dfscf             1       3.276       3.276     0.04
elaps:  overfsm           1       0.029       0.029     0.00
elaps:  optical           1       0.000       0.000     0.00
  
>> End of run:   8-MAY-2016   2:31:14
