Siesta Version:                                        siesta-3.2-pl-3
Architecture  : x86_64-unknown-linux-gnu--unknown
Compiler flags: mpiifort -g -O2 -fPIC -xSSE4.1 -fp-model source -shared-intel 
PARALLEL version

* Running on    8 nodes in parallel
>> Start of run:  26-APR-2016  21:45:32

                           ***********************       
                           *  WELCOME TO SIESTA  *       
                           ***********************       

reinit: Reading from standard input
************************** Dump of input data file ****************************
#(1) General system descriptors
SystemName            GRP_doping    # Descriptive name of the system
SystemLabel           GRP_doping    # Short name for naming files
%include STRUCT.fdf
%include KPT.fdf
%include BASIS.fdf
#%include TS.fdf # for transiesta calculation
#(4) DFT, Grid, SCF
XC.functional         GGA           # LDA or GGA (default = LDA)
XC.authors            PBE           # CA (Ceperley-Aldr) = PZ
                                    #    (Perdew-Zunger) - LDA - Default
                                    # PW92 (Perdew-Wang-92) - LDA
                                    # PBE (Perdew-Burke-Ernzerhof) - GGA
MeshCutoff            200.000000    Ry      # Default: 50.0 Ry ~ 0.444 Bohr
                                    #         100.0 Ry ~ 0.314 Bohr
MaxSCFIterations      500           # Default: 50
DM.MixingWeight       0.05          # Default: 0.25
DM.NumberPulay        10            # Default: 0
DM.PulayOnFile        F             # SystemLabel.P1, SystemLabel.P2
DM.Tolerance          1.d-4         # Default: 1.d-4
DM.UseSaveDM          .true.        # because of the bug
SCFMustConverge       .true.
NeglNonOverlapInt     F             # Default: F
#(5) Eigenvalue problem: order-N or diagonalization
SolutionMethod        Diagon        # or Transiesta
ElectronicTemperature 300.0 K       # Default: 300.0 K
#(6) Molecular dynamics and relaxations
#MD.TypeOfRun          CG            # Type of dynamics:
#MD.VariableCell       F
#MD.NumCGsteps         0           # 0 for single-point / 100 for gopt
#MD.MaxCGDispl         0.2 Bohr      # Default: 0.2 Bohr
#MD.MaxForceTol        0.02 eV/Ang   # Default: 0.04 eV/Ang
#MD.MaxStressTol       1.0 GPa       # Default: 1.0 GPa
# Geometry Constraints
#%block GeometryConstraints
#	position from 1 to 44
#%endblock GeometryConstraints
BandLinesScale   pi/a
%block BandLines
 1   0.00000000  0.00000000  0.00000000
50   0.00000000  0.07809418  0.00000000
50   0.04509075  0.07809242  0.00000000
20   0.00000000  0.00000000  0.00000000
%endblock BandLines
************************** End of input data file *****************************

reinit: -----------------------------------------------------------------------
reinit: System Name: GRP_doping
reinit: -----------------------------------------------------------------------
reinit: System Label: GRP_doping                                                  
reinit: -----------------------------------------------------------------------

initatom: Reading input for the pseudopotentials and atomic orbitals ----------
 Species number:            1  Label: N Atomic number:           7
 Species number:            2  Label: C Atomic number:           6
Ground state valence configuration:   2s02  2p03
Reading pseudopotential information in formatted form from N.psf

Valence configuration for pseudopotential generation:
2s( 2.00) rc: 1.48
2p( 3.00) rc: 1.48
3d( 0.00) rc: 1.48
4f( 0.00) rc: 1.48
Ground state valence configuration:   2s02  2p02
Reading pseudopotential information in formatted form from C.psf

Valence configuration for pseudopotential generation:
2s( 2.00) rc: 1.54
2p( 2.00) rc: 1.54
3d( 0.00) rc: 1.54
4f( 0.00) rc: 1.54
For N, standard SIESTA heuristics set lmxkb to 3
 (one more than the basis l, including polarization orbitals).
Use PS.lmax or PS.KBprojectors blocks to override.
For C, standard SIESTA heuristics set lmxkb to 3
 (one more than the basis l, including polarization orbitals).
Use PS.lmax or PS.KBprojectors blocks to override.

<basis_specs>
===============================================================================
N                    Z=   7    Mass=  14.010        Charge= 0.17977+309
Lmxo=1 Lmxkb= 3    BasisType=split      Semic=F
L=0  Nsemic=0  Cnfigmx=2
          n=1  nzeta=2  polorb=0
            splnorm:   0.15000    
               vcte:    0.0000    
               rinn:    0.0000    
                rcs:    0.0000      0.0000    
            lambdas:    1.0000      1.0000    
L=1  Nsemic=0  Cnfigmx=2
          n=1  nzeta=2  polorb=1
            splnorm:   0.15000    
               vcte:    0.0000    
               rinn:    0.0000    
                rcs:    0.0000      0.0000    
            lambdas:    1.0000      1.0000    
-------------------------------------------------------------------------------
L=0  Nkbl=1  erefs: 0.17977+309
L=1  Nkbl=1  erefs: 0.17977+309
L=2  Nkbl=1  erefs: 0.17977+309
L=3  Nkbl=1  erefs: 0.17977+309
===============================================================================
</basis_specs>

atom: Called for N                     (Z =   7)

read_vps: Pseudopotential generation method:
read_vps: ATM3      Troullier-Martins                       
Total valence charge:    5.00000

read_vps: Pseudopotential includes a core correction:
read_vps: Pseudo-core for xc-correction

xc_check: Exchange-correlation functional:
xc_check: GGA Perdew, Burke & Ernzerhof 1996
V l=0 = -2*Zval/r beyond r=  1.4606
V l=1 = -2*Zval/r beyond r=  1.4606
V l=2 = -2*Zval/r beyond r=  1.4606
V l=3 = -2*Zval/r beyond r=  1.4606
All V_l potentials equal beyond r=  1.4606
This should be close to max(r_c) in ps generation
All pots = -2*Zval/r beyond r=  1.4606

VLOCAL1: 99.0% of the norm of Vloc inside     20.347 Ry
VLOCAL1: 99.9% of the norm of Vloc inside     46.372 Ry
atom: Maximum radius for 4*pi*r*r*local-pseudopot. charge    1.76189
atom: Maximum radius for r*vlocal+2*Zval:    1.53550
GHOST: No ghost state for L =  0
GHOST: No ghost state for L =  1
GHOST: No ghost state for L =  2
GHOST: No ghost state for L =  3

KBgen: Kleinman-Bylander projectors: 
   l= 0   rc=  1.634559   el= -1.363963   Ekb=  5.296955   kbcos=  0.335621
   l= 1   rc=  1.614250   el= -0.521451   Ekb= -5.259161   kbcos= -0.433408
   l= 2   rc=  1.718383   el=  0.001991   Ekb= -1.271464   kbcos= -0.007566
   l= 3   rc=  1.761893   el=  0.003093   Ekb= -0.494769   kbcos= -0.001015

KBgen: Total number of  Kleinman-Bylander projectors:   16
atom: -------------------------------------------------------------------------

atom: SANKEY-TYPE ORBITALS:
atom: Selected multiple-zeta basis: split     

SPLIT: Orbitals with angular momentum L= 0

SPLIT: Basis orbitals for state 2s

SPLIT: PAO cut-off radius determined from an
SPLIT: energy shift=  0.007350 Ry

   izeta = 1
                 lambda =    1.000000
                     rc =    4.071465
                 energy =   -1.356470
                kinetic =    1.176977
    potential(screened) =   -2.533447
       potential(ionic) =   -8.057990

   izeta = 2
                 rmatch =    2.905100
              splitnorm =    0.150000
                 energy =   -1.158343
                kinetic =    1.813009
    potential(screened) =   -2.971352
       potential(ionic) =   -8.901931

SPLIT: Orbitals with angular momentum L= 1

SPLIT: Basis orbitals for state 2p

SPLIT: PAO cut-off radius determined from an
SPLIT: energy shift=  0.007350 Ry

   izeta = 1
                 lambda =    1.000000
                     rc =    4.972977
                 energy =   -0.513884
                kinetic =    3.441732
    potential(screened) =   -3.955616
       potential(ionic) =   -9.287901

   izeta = 2
                 rmatch =    3.054066
              splitnorm =    0.150000
                 energy =   -0.318226
                kinetic =    5.125348
    potential(screened) =   -5.443573
       potential(ionic) =  -11.380999

POLgen: Perturbative polarization orbital with L=  2

POLgen: Polarization orbital for state 2p

   izeta = 1
                     rc =    4.972977
                 energy =    1.607437
                kinetic =    3.268125
    potential(screened) =   -1.660688
       potential(ionic) =   -5.973652
atom: Total number of Sankey-type orbitals: 13

atm_pop: Valence configuration (for local Pseudopot. screening):
 2s( 2.00)                                                            
 2p( 3.00)                                                            
Vna: chval, zval:    5.00000   5.00000

Vna:  Cut-off radius for the neutral-atom potential:   4.972977
comcore: Pseudo-core radius Rcore=  1.554824

atom: _________________________________________________________________________

<basis_specs>
===============================================================================
C                    Z=   6    Mass=  12.010        Charge= 0.17977+309
Lmxo=1 Lmxkb= 3    BasisType=split      Semic=F
L=0  Nsemic=0  Cnfigmx=2
          n=1  nzeta=2  polorb=0
            splnorm:   0.15000    
               vcte:    0.0000    
               rinn:    0.0000    
                rcs:    0.0000      0.0000    
            lambdas:    1.0000      1.0000    
L=1  Nsemic=0  Cnfigmx=2
          n=1  nzeta=2  polorb=1
            splnorm:   0.15000    
               vcte:    0.0000    
               rinn:    0.0000    
                rcs:    0.0000      0.0000    
            lambdas:    1.0000      1.0000    
-------------------------------------------------------------------------------
L=0  Nkbl=1  erefs: 0.17977+309
L=1  Nkbl=1  erefs: 0.17977+309
L=2  Nkbl=1  erefs: 0.17977+309
L=3  Nkbl=1  erefs: 0.17977+309
===============================================================================
</basis_specs>

atom: Called for C                     (Z =   6)

read_vps: Pseudopotential generation method:
read_vps: ATM3      Troullier-Martins                       
Total valence charge:    4.00000

read_vps: Pseudopotential includes a core correction:
read_vps: Pseudo-core for xc-correction

xc_check: Exchange-correlation functional:
xc_check: GGA Perdew, Burke & Ernzerhof 1996
V l=0 = -2*Zval/r beyond r=  1.5227
V l=1 = -2*Zval/r beyond r=  1.5227
V l=2 = -2*Zval/r beyond r=  1.5227
V l=3 = -2*Zval/r beyond r=  1.5038
All V_l potentials equal beyond r=  1.5227
This should be close to max(r_c) in ps generation
All pots = -2*Zval/r beyond r=  1.5227

VLOCAL1: 99.0% of the norm of Vloc inside     18.722 Ry
VLOCAL1: 99.9% of the norm of Vloc inside     42.668 Ry
atom: Maximum radius for 4*pi*r*r*local-pseudopot. charge    1.83678
atom: Maximum radius for r*vlocal+2*Zval:    1.58088
GHOST: No ghost state for L =  0
GHOST: No ghost state for L =  1
GHOST: No ghost state for L =  2
GHOST: No ghost state for L =  3

KBgen: Kleinman-Bylander projectors: 
   l= 0   rc=  1.704034   el= -1.009801   Ekb=  5.335044   kbcos=  0.316824
   l= 1   rc=  1.704034   el= -0.388707   Ekb= -3.785862   kbcos= -0.366464
   l= 2   rc=  1.791422   el=  0.001971   Ekb= -0.970471   kbcos= -0.009212
   l= 3   rc=  1.859892   el=  0.003065   Ekb= -0.399525   kbcos= -0.001223

KBgen: Total number of  Kleinman-Bylander projectors:   16
atom: -------------------------------------------------------------------------

atom: SANKEY-TYPE ORBITALS:
atom: Selected multiple-zeta basis: split     

SPLIT: Orbitals with angular momentum L= 0

SPLIT: Basis orbitals for state 2s

SPLIT: PAO cut-off radius determined from an
SPLIT: energy shift=  0.007350 Ry

   izeta = 1
                 lambda =    1.000000
                     rc =    4.632753
                 energy =   -1.002270
                kinetic =    0.855760
    potential(screened) =   -1.858031
       potential(ionic) =   -5.417575

   izeta = 2
                 rmatch =    3.431921
              splitnorm =    0.150000
                 energy =   -0.867111
                kinetic =    1.300804
    potential(screened) =   -2.167915
       potential(ionic) =   -5.962684

SPLIT: Orbitals with angular momentum L= 1

SPLIT: Basis orbitals for state 2p

SPLIT: PAO cut-off radius determined from an
SPLIT: energy shift=  0.007350 Ry

   izeta = 1
                 lambda =    1.000000
                     rc =    5.658549
                 energy =   -0.381140
                kinetic =    2.399701
    potential(screened) =   -2.780841
       potential(ionic) =   -6.206085

   izeta = 2
                 rmatch =    3.653288
              splitnorm =    0.150000
                 energy =   -0.249149
                kinetic =    3.542762
    potential(screened) =   -3.791911
       potential(ionic) =   -7.581078

POLgen: Perturbative polarization orbital with L=  2

POLgen: Polarization orbital for state 2p

   izeta = 1
                     rc =    5.658549
                 energy =    1.109913
                kinetic =    2.304789
    potential(screened) =   -1.194876
       potential(ionic) =   -4.013592
atom: Total number of Sankey-type orbitals: 13

atm_pop: Valence configuration (for local Pseudopot. screening):
 2s( 2.00)                                                            
 2p( 2.00)                                                            
Vna: chval, zval:    4.00000   4.00000

Vna:  Cut-off radius for the neutral-atom potential:   5.658549
comcore: Pseudo-core radius Rcore=  1.791422

atom: _________________________________________________________________________

prinput: Basis input ----------------------------------------------------------

PAO.BasisType split     

%block ChemicalSpeciesLabel
    1    7 N                       # Species index, atomic number, species label
    2    6 C                       # Species index, atomic number, species label
%endblock ChemicalSpeciesLabel

%block PAO.Basis                 # Define Basis set
N                     2                    # Species label, number of l-shells
 n=2   0   2                         # n, l, Nzeta 
   4.071      2.905   
   1.000      1.000   
 n=2   1   2 P   1                   # n, l, Nzeta, Polarization, NzetaPol
   4.973      3.054   
   1.000      1.000   
C                     2                    # Species label, number of l-shells
 n=2   0   2                         # n, l, Nzeta 
   4.633      3.432   
   1.000      1.000   
 n=2   1   2 P   1                   # n, l, Nzeta, Polarization, NzetaPol
   5.659      3.653   
   1.000      1.000   
%endblock PAO.Basis

prinput: ----------------------------------------------------------------------

coor:   Atomic-coordinates input format  =     Fractional

siesta: Atomic coordinates (Bohr) and species
siesta:      2.30256  38.89134   0.00000  1        1
siesta:      4.63094  34.85847   0.00000  1        2
siesta:      4.63094  37.54693   0.00000  1        3
siesta:      6.95932  33.51406   0.00000  1        4
siesta:      4.63094  21.41544   0.00000  1        5
siesta:     -0.02582  21.41544   0.00000  1        6
siesta:      2.30256  22.75985   0.00000  1        7
siesta:      2.30256  25.44831   0.00000  1        8
siesta:     -4.68258  18.72698   0.00000  1        9
siesta:     -4.68258  21.41544   0.00000  1       10
siesta:     -2.35420  22.75985   0.00000  1       11
siesta:     -2.35420  25.44831   0.00000  1       12
siesta:     -7.01096  22.75985   0.00000  1       13
siesta:     -7.01096  25.44831   0.00000  1       14
siesta:     -0.02582  26.79272   0.00000  1       15
siesta:     -0.02582  29.48119   0.00000  1       16
siesta:     -4.68258  26.79272   0.00000  1       17
siesta:     -4.68258  29.48119   0.00000  1       18
siesta:     -2.35420  30.82560   0.00000  1       19
siesta:     -2.35420  33.51406   0.00000  1       20
siesta:     -0.02582  34.85847   0.00000  1       21
siesta:     -0.02582  37.54693   0.00000  1       22
siesta:     -0.02582   2.59549   0.00000  2       23
siesta:     -0.02582   5.28395   0.00000  2       24
siesta:     -2.35420  38.89134   0.00000  2       25
siesta:     -2.35420  41.57980   0.00000  2       26
siesta:      2.30256  41.57980   0.00000  2       27
siesta:      6.95932  30.82560   0.00000  2       28
siesta:      9.28770  26.79272   0.00000  2       29
siesta:      9.28770  29.48119   0.00000  2       30
siesta:     -4.68258  34.85847   0.00000  2       31
siesta:     -4.68258  37.54693   0.00000  2       32
siesta:      2.30256   6.62836   0.00000  2       33
siesta:      2.30256   9.31683   0.00000  2       34
siesta:      4.63094  10.66124   0.00000  2       35
siesta:      4.63094  13.34970   0.00000  2       36
siesta:      6.95932  14.69411   0.00000  2       37
siesta:      6.95932  17.38257   0.00000  2       38
siesta:      9.28770  18.72698   0.00000  2       39
siesta:      9.28770  21.41544   0.00000  2       40
siesta:     11.61608  22.75985   0.00000  2       41
siesta:     11.61608  25.44831   0.00000  2       42
siesta:     -2.35420   6.62836   0.00000  2       43
siesta:     -2.35420   9.31683   0.00000  2       44
siesta:     -0.02582  10.66124   0.00000  2       45
siesta:     -0.02582  13.34970   0.00000  2       46
siesta:      2.30256  14.69411   0.00000  2       47
siesta:      2.30256  17.38257   0.00000  2       48
siesta:      4.63094  18.72698   0.00000  2       49
siesta:      6.95932  22.75985   0.00000  2       50
siesta:      6.95932  25.44831   0.00000  2       51
siesta:     -4.68258  10.66124   0.00000  2       52
siesta:     -4.68258  13.34970   0.00000  2       53
siesta:     -2.35420  14.69411   0.00000  2       54
siesta:     -2.35420  17.38257   0.00000  2       55
siesta:     -0.02582  18.72698   0.00000  2       56
siesta:     -7.01096  14.69411   0.00000  2       57
siesta:     -7.01096  17.38257   0.00000  2       58
siesta:     -9.33934  18.72698   0.00000  2       59
siesta:     -9.33934  21.41544   0.00000  2       60
siesta:    -11.66772  22.75985   0.00000  2       61
siesta:    -11.66772  25.44831   0.00000  2       62
siesta:     -9.33934  26.79272   0.00000  2       63
siesta:     -9.33934  29.48119   0.00000  2       64
siesta:      4.63094  26.79272   0.00000  2       65
siesta:      4.63094  29.48119   0.00000  2       66
siesta:      2.30256  30.82560   0.00000  2       67
siesta:      2.30256  33.51406   0.00000  2       68
siesta:     -7.01096  30.82560   0.00000  2       69
siesta:     -7.01096  33.51406   0.00000  2       70
siesta:     -0.02582  42.92421   0.00000  2       71
siesta:     -0.02582  45.61267   0.00000  2       72

siesta: System type = slab      

initatomlists: Number of atoms, orbitals, and projectors:     72   936  1152

siesta: ******************** Simulation parameters ****************************
siesta:
siesta: The following are some of the parameters of the simulation.
siesta: A complete list of the parameters used, including default values,
siesta: can be found in file out.fdf
siesta:
redata: Non-Collinear-spin run           =     F
redata: SpinPolarized (Up/Down) run      =     F
redata: Number of spin components        =     1
redata: Long output                      =     F
redata: Number of Atomic Species         =        2
redata: Charge density info will appear in .RHO file
redata: Write Mulliken Pop.              =     NO
redata: Mesh Cutoff                      =   200.0000  Ry
redata: Net charge of the system         =     0.0000 |e|
redata: Max. number of SCF Iter          =      500
redata: SCF convergence failure will abort job
redata: Performing Pulay mixing using    =    10 iterations
redata: Mix DM in first SCF step ?       =     F
redata: Write Pulay info on disk?        =     F
redata: Discard 1st Pulay DM after  kick =     F
redata: New DM Mixing Weight             =     0.0500
redata: New DM Occupancy tolerance       = 0.000000000001
redata: No kicks to SCF
redata: DM Mixing Weight for Kicks       =     0.5000
redata: DM Tolerance for SCF             =     0.000100
redata: Require Energy convergence for SCF =     F
redata: DM Energy tolerance for SCF      =     0.000100 eV
redata: Require Harris convergence for SCF =     F
redata: DM Harris energy tolerance for SCF =     0.000100 eV
redata: Using Saved Data (generic)   =     F
redata: Use continuation files for DM    =     T
redata: Neglect nonoverlap interactions  =     F
redata: Method of Calculation            =     Diagonalization
redata: Divide and Conquer               =     T
redata: Electronic Temperature           =     0.0019  Ry
redata: Fix the spin of the system       =     F
redata: Dynamics option                  =     Verlet MD run
redata: Initial MD time step             =        1
redata:   Final MD time step             =        1
redata: Length of MD time step           =     1.0000  fs
redata: Initial Temperature of MD run    =     0.0000  K
redata: Perform a MD quench              =     F
redata: ***********************************************************************
Total number of electrons:   310.000000
Total ionic charge:   310.000000

* ProcessorY, Blocksize:    2  24

k-point displ. along   1 input, could be:     0.50    0.00
k-point displ. along   2 input, could be:     0.50    0.00
 Kpoints in:          231 . Kpoints trimmed:          231

siesta: k-grid: Number of k-points =   231
siesta: k-grid: Cutoff (effective) =     5.000 Ang
siesta: k-grid: Supercell and displacements
siesta: k-grid:   21   0   0      0.500
siesta: k-grid:    0  21   0      0.500
siesta: k-grid:    0   0   1      0.000
Naive supercell factors:     2    2    2

superc: Internal auxiliary supercell:     2 x     2 x     2  =       8
superc: Number of atoms, orbitals, and projectors:    576   7488   9216

* Maximum dynamic memory allocated =     4 MB

siesta:                 ==============================
                            Begin MD step =      1
                        ==============================

superc: Internal auxiliary supercell:     2 x     2 x     2  =       8
superc: Number of atoms, orbitals, and projectors:    576   7488   9216

outcell: Unit cell vectors (Ang):
       12.804619    7.392750    0.000000
        0.000000   14.785500    0.000000
        0.000000    0.000000   10.000000

outcell: Cell vector modules (Ang)   :   14.785500   14.785500   10.000000
outcell: Cell angles (23,13,12) (deg):     90.0000     90.0000     60.0000
outcell: Cell volume (Ang**3)        :   1893.2269
New_DM. Step:     1
Initializing Density Matrix...

InitMesh: MESH =   120 x   120 x    90 =     1296000
InitMesh: Mesh cutoff (required, used) =   200.000   223.865 Ry

* Maximum dynamic memory allocated =   182 MB

stepf: Fermi-Dirac step function

siesta: Program's energy decomposition (eV):
siesta: Ebs     =     -6292.001900
siesta: Eions   =     21939.441643
siesta: Ena     =      4951.932837
siesta: Ekin    =      8224.476411
siesta: Enl     =        -3.262626
siesta: DEna    =        -0.000015
siesta: DUscf   =         0.000000
siesta: DUext   =         0.000000
siesta: Exc     =     -4720.980260
siesta: eta*DQ  =         0.000000
siesta: Emadel  =         0.000000
siesta: Emeta   =         0.000000
siesta: Emolmec =         0.000000
siesta: Ekinion =         0.000000
siesta: Eharris =    -13115.316892
siesta: Etot    =    -13487.275295
siesta: FreeEng =    -13487.275295

siesta: iscf   Eharris(eV)      E_KS(eV)   FreeEng(eV)   dDmax  Ef(eV)
siesta:    1   -13115.3169   -13487.2753   -13487.2753  5.4920 -6.7862
timer: Routine,Calls,Time,% = IterSCF        1    4107.657  99.71
elaps: Routine,Calls,Wall,% = IterSCF        1     514.102  99.70
siesta:    2   -19464.0276   -12279.4641   -12279.4820 21.6305 -5.7054
siesta:    3   -13019.0534   -13342.9417   -13342.9574  3.0892 -5.5738
siesta:    4   -12988.4831   -13160.4826   -13160.5119  1.3752 -4.4976
siesta:    5   -12956.8610   -13027.6459   -13027.6534  0.9897 -3.6467
siesta:    6   -12948.4266   -13011.5057   -13011.5259  0.9868 -3.6225
siesta:    7   -12943.3097   -13000.9567   -13001.0046  0.8389 -3.6339
siesta:    8   -12938.1476   -12982.0436   -12982.0844  0.7919 -3.7246
siesta:    9   -12938.1151   -12951.6272   -12951.6859  0.5448 -3.7870
siesta:   10   -12937.1614   -12944.9214   -12944.9899  0.5054 -3.7875
siesta:   11   -12936.4502   -12935.8131   -12935.8597  0.4027 -3.7239
siesta:   12   -12936.5533   -12924.8855   -12924.9518  0.3789 -3.7500
siesta:   13   -12936.3254   -12917.6913   -12917.7505  0.2143 -3.7339
siesta:   14   -12935.7571   -12917.4096   -12917.4609  0.1177 -3.7276
siesta:   15   -12935.6038   -12919.2775   -12919.3409  0.1370 -3.7234
siesta:   16   -12935.4323   -12921.7917   -12921.8636  0.0722 -3.7504
siesta:   17   -12935.3059   -12925.8579   -12925.9328  0.0674 -3.7646
siesta:   18   -12935.2739   -12928.8855   -12928.9499  0.0592 -3.7732
siesta:   19   -12935.2595   -12930.6179   -12930.6828  0.0400 -3.7663
siesta:   20   -12935.2614   -12933.4017   -12933.4662  0.0257 -3.7599
siesta:   21   -12935.2487   -12933.8387   -12933.9031  0.0220 -3.7556
siesta:   22   -12935.2442   -12934.8116   -12934.8760  0.0170 -3.7500
siesta:   23   -12935.2414   -12935.3040   -12935.3701  0.0139 -3.7489
siesta:   24   -12935.2398   -12935.8153   -12935.8819  0.0092 -3.7469
siesta:   25   -12935.2395   -12935.9876   -12936.0544  0.0069 -3.7455
siesta:   26   -12935.2394   -12935.9831   -12936.0495  0.0052 -3.7454
siesta:   27   -12935.2395   -12936.0363   -12936.1024  0.0034 -3.7460
siesta:   28   -12935.2395   -12935.7245   -12935.7905  0.0025 -3.7458
siesta:   29   -12935.2394   -12935.5375   -12935.6035  0.0018 -3.7452
siesta:   30   -12935.2394   -12935.5095   -12935.5756  0.0016 -3.7454
siesta:   31   -12935.2393   -12935.3670   -12935.4330  0.0011 -3.7453
siesta:   32   -12935.2393   -12935.3633   -12935.4293  0.0006 -3.7453
siesta:   33   -12935.2393   -12935.3270   -12935.3931  0.0003 -3.7453
siesta:   34   -12935.2393   -12935.2989   -12935.3649  0.0002 -3.7453
siesta:   35   -12935.2393   -12935.2744   -12935.3404  0.0002 -3.7453
siesta:   36   -12935.2393   -12935.2607   -12935.3267  0.0002 -3.7454
siesta:   37   -12935.2393   -12935.2491   -12935.3152  0.0001 -3.7454
siesta:   38   -12935.2393   -12935.2453   -12935.3114  0.0001 -3.7454
siesta:   39   -12935.2393   -12935.2465   -12935.3126  0.0001 -3.7454

siesta: E_KS(eV) =           -12935.2450

siesta: E_KS - E_eggbox =    -12935.2450

siesta: Atomic forces (eV/Ang):
----------------------------------------
   Tot   -0.260686   -0.225853    0.000000
----------------------------------------
   Max  683.861010
   Res  176.181814    sqrt( Sum f_i^2 / 3N )
----------------------------------------
   Max  683.861010    constrained

Stress-tensor-Voigt (kbar):     -656.24    -3166.90       -0.07        6.36        0.00        0.00
(Free)E + p*V (eV/cell)   -11429.4190
Target enthalpy (eV/cell)   -12935.3111

siesta: Stress tensor (static) (eV/Ang**3):
        -0.409585    0.003969    0.000000
         0.003969   -1.976602    0.000000
         0.000000    0.000000   -0.000043

siesta: Pressure (static):       1274.40152261  kBar

siesta: Stress tensor (total) (eV/Ang**3):
        -0.409585    0.003969    0.000000
         0.003969   -1.976602    0.000000
         0.000000    0.000000   -0.000043

siesta: Pressure (total):       1274.40152261  kBar

siesta: Temp_ion =       0.000 K

* Maximum dynamic memory allocated =   199 MB
Computing bands...

siesta: Program's energy decomposition (eV):
siesta: Ebs     =     -5078.396023
siesta: Eions   =     21939.441643
siesta: Ena     =      4951.932837
siesta: Ekin    =     11322.207022
siesta: Enl     =     -1697.154007
siesta: DEna    =      -788.623129
siesta: DUscf   =       109.990037
siesta: DUext   =         0.000000
siesta: Exc     =     -4894.156140
siesta: eta*DQ  =         0.000000
siesta: Emadel  =         0.000000
siesta: Emeta   =         0.000000
siesta: Emolmec =         0.000000
siesta: Ekinion =         0.000000
siesta: Eharris =    -12935.239298
siesta: Etot    =    -12935.245023
siesta: FreeEng =    -12935.311063

siesta: Final energy (eV):
siesta:  Band Struct. =   -5078.396023
siesta:       Kinetic =   11322.207022
siesta:       Hartree =   36750.883575
siesta:    Ext. field =       0.000000
siesta:   Exch.-corr. =   -4894.156140
siesta:  Ion-electron =  -84334.306315
siesta:       Ion-ion =   28220.126835
siesta:       Ekinion =       0.000000
siesta:         Total =  -12935.245023

siesta: Atomic forces (eV/Ang):
siesta:      1   -3.546464  126.155763    0.000000
siesta:      2   25.613026    2.333200    0.000000
siesta:      3   26.269735 -653.717022    0.000000
siesta:      4   -1.066410   -1.575305    0.000000
siesta:      5    1.194380   -1.689184    0.000000
siesta:      6    0.805490   -3.852928    0.000000
siesta:      7    0.598407   -0.903815    0.000000
siesta:      8    1.275462    0.664823    0.000000
siesta:      9    1.178102    0.141628    0.000000
siesta:     10   -1.056662    0.591358    0.000000
siesta:     11   -0.748023   -0.582018    0.000000
siesta:     12   -1.294840    0.426450    0.000000
siesta:     13    0.117863    0.806473    0.000000
siesta:     14    0.577402   -0.871792    0.000000
siesta:     15    1.226728    5.730188    0.000000
siesta:     16   17.387465 -683.861010    0.000000
siesta:     17   -0.579491   -1.075784    0.000000
siesta:     18   -1.922382   -1.541091    0.000000
siesta:     19  -33.113559   10.009331    0.000000
siesta:     20  -10.942555 -673.341402    0.000000
siesta:     21    2.750851  106.740482    0.000000
siesta:     22   -6.420088 -661.122026    0.000000
siesta:     23  -10.670780  642.965039    0.000000
siesta:     24    4.869968 -117.233332    0.000000
siesta:     25   -1.426968  129.080594    0.000000
siesta:     26  -17.811877 -547.338529    0.000000
siesta:     27    6.837185 -542.528989    0.000000
siesta:     28    0.967078    2.095239    0.000000
siesta:     29    1.756128    3.041971    0.000000
siesta:     30   -0.945999    0.565425    0.000000
siesta:     31  -27.370680    9.243807    0.000000
siesta:     32  -30.323298 -549.797563    0.000000
siesta:     33   13.408504  548.045933    0.000000
siesta:     34   -1.091757 -119.925602    0.000000
siesta:     35   26.396060  655.698819    0.000000
siesta:     36   27.410129   -3.193984    0.000000
siesta:     37   -2.503517   -1.153848    0.000000
siesta:     38    2.115242    0.286124    0.000000
siesta:     39   -1.014219   -0.381941    0.000000
siesta:     40    1.172552   -2.233398    0.000000
siesta:     41   -0.207803    7.431684    0.000000
siesta:     42   -0.076173   -7.538385    0.000000
siesta:     43  -11.937684  656.620073    0.000000
siesta:     44    3.177394 -118.304655    0.000000
siesta:     45   16.794476  666.485133    0.000000
siesta:     46    1.779222 -121.249006    0.000000
siesta:     47   24.171667  561.061396    0.000000
siesta:     48   23.877424   -6.335613    0.000000
siesta:     49   -2.154884    3.669509    0.000000
siesta:     50   -0.610810    0.787635    0.000000
siesta:     51   -1.195067   -1.338887    0.000000
siesta:     52  -32.972175  550.883867    0.000000
siesta:     53  -25.937842   -6.141390    0.000000
siesta:     54  -20.216507  558.843651    0.000000
siesta:     55  -23.216253   -7.967585    0.000000
siesta:     56    0.514429  566.781923    0.000000
siesta:     57    2.920790   -0.823027    0.000000
siesta:     58   -1.575321   -0.091429    0.000000
siesta:     59    1.216804    0.383927    0.000000
siesta:     60   -1.788626   -1.955554    0.000000
siesta:     61    0.937865    4.462055    0.000000
siesta:     62    0.974379   -4.469744    0.000000
siesta:     63   -1.916242    2.187557    0.000000
siesta:     64    1.260800   -0.464193    0.000000
siesta:     65   -0.141216    0.724216    0.000000
siesta:     66   -2.225535   -3.477101    0.000000
siesta:     67   25.759143    8.550787    0.000000
siesta:     68   10.483988 -571.050806    0.000000
siesta:     69   -1.679931    0.768175    0.000000
siesta:     70    2.470936    0.056430    0.000000
siesta:     71    1.229945  128.714038    0.000000
siesta:     72   -0.056067 -544.132619    0.000000
siesta: ----------------------------------------
siesta:    Tot   -0.260686   -0.225853    0.000000

siesta: Stress tensor (static) (eV/Ang**3):
siesta:    -0.409585    0.003969    0.000000
siesta:     0.003969   -1.976602    0.000000
siesta:     0.000000    0.000000   -0.000043

siesta: Cell volume =       1893.226884 Ang**3

siesta: Pressure (static):
siesta:                Solid            Molecule  Units
siesta:           0.00866303          0.13908899  Ry/Bohr**3
siesta:           0.79541027         12.77067843  eV/Ang**3
siesta:        1274.40152261      20461.10374428  kBar
(Free)E+ p_basis*V_orbitals  =      -12907.718644
(Free)Eharris+ p_basis*V_orbitals  =      -12907.711423

siesta: Electric dipole (a.u.)  =    0.000000    0.000000    0.000000
siesta: Electric dipole (Debye) =    0.000000    0.000000    0.000000

* Maximum dynamic memory allocated : Node    0 =   199 MB
* Maximum dynamic memory allocated : Node    1 =    71 MB
* Maximum dynamic memory allocated : Node    2 =    73 MB
* Maximum dynamic memory allocated : Node    3 =   189 MB
* Maximum dynamic memory allocated : Node    4 =   186 MB
* Maximum dynamic memory allocated : Node    5 =    70 MB
* Maximum dynamic memory allocated : Node    6 =    72 MB
* Maximum dynamic memory allocated : Node    7 =   170 MB

* Maximum memory occured during matrixMtoO                    

timer: CPU execution times:
timer:  Routine       Calls   Time/call    Tot.time        %
timer:  siesta            1  157755.586  157755.586   100.00
timer:  Setup             1       3.794       3.794     0.00
timer:  bands             3     268.371     805.112     0.51
timer:  writewave         1       0.042       0.042     0.00
timer:  KSV_init          1       0.009       0.009     0.00
timer:  IterMD            1  156940.982  156940.982    99.48
timer:  hsparse           1       0.231       0.231     0.00
timer:  overlap           1       7.713       7.713     0.00
timer:  IterSCF          39    4019.868  156774.858    99.38
timer:  kinefsm           2       3.957       7.914     0.01
timer:  nlefsm            2      18.350      36.701     0.02
timer:  DHSCF            40      83.790    3351.602     2.12
timer:  DHSCF1            1       0.764       0.764     0.00
timer:  DHSCF2            1      33.368      33.368     0.02
timer:  REORD           322       0.010       3.240     0.00
timer:  POISON           41       2.243      91.980     0.06
timer:  DHSCF3           40      82.152    3286.068     2.08
timer:  rhoofd           40      16.302     652.082     0.41
timer:  cellXC           40       3.471     138.836     0.09
timer:  vmat             40      39.412    1576.469     1.00
timer:  MolMec            2       0.000       0.001     0.00
timer:  diagon           39    3934.582  153448.695    97.27
timer:  c-eigval       9130       6.664   60839.820    38.57
timer:  c-buildHS      9130       0.111    1012.813     0.64
timer:  cdiag         18139       6.840  124072.827    78.65
timer:  cdiag1        18139       0.427    7747.458     4.91
timer:  cdiag2        18139       1.907   34591.716    21.93
timer:  cdiag3        18139       3.943   71526.155    45.34
timer:  cdiag4        18139       0.205    3710.168     2.35
timer:  c-eigvec       9009       7.202   64879.889    41.13
timer:  c-buildD       9009       3.162   28484.333    18.06
timer:  DHSCF4            1      29.262      29.262     0.02
timer:  dfscf             1      27.457      27.457     0.02
timer:  overfsm           1       0.400       0.400     0.00
timer:  optical           1       5.008       5.008     0.00
  

elaps: ELAPSED times:
elaps:  Routine       Calls   Time/call    Tot.time        %
elaps:  siesta            1   19740.455   19740.455   100.00
elaps:  Setup             1       0.491       0.491     0.00
elaps:  bands             3      33.598     100.794     0.51
elaps:  writewave         1       0.006       0.006     0.00
elaps:  KSV_init          1       0.001       0.001     0.00
elaps:  IterMD            1   19638.508   19638.508    99.48
elaps:  hsparse           1       0.029       0.029     0.00
elaps:  overlap           1       0.965       0.965     0.00
elaps:  IterSCF          39     503.022   19617.841    99.38
elaps:  kinefsm           2       0.496       0.992     0.01
elaps:  nlefsm            2       2.355       4.710     0.02
elaps:  DHSCF            40      10.579     423.141     2.14
elaps:  DHSCF1            1       0.098       0.098     0.00
elaps:  DHSCF2            1       4.170       4.170     0.02
elaps:  REORD           322       0.001       0.421     0.00
elaps:  POISON           41       0.280      11.496     0.06
elaps:  DHSCF3           40      10.277     411.089     2.08
elaps:  rhoofd           40       4.490     179.587     0.91
elaps:  cellXC           40       0.434      17.343     0.09
elaps:  vmat             40       4.930     197.197     1.00
elaps:  MolMec            2       0.000       0.000     0.00
elaps:  diagon           39     492.357   19201.936    97.27
elaps:  c-eigval       9130       0.834    7612.204    38.56
elaps:  c-buildHS      9130       0.015     139.183     0.71
elaps:  cdiag         18139       0.846   15345.788    77.74
elaps:  cdiag1        18139       0.053     960.867     4.87
elaps:  cdiag2        18139       0.239    4328.185    21.93
elaps:  cdiag3        18139       0.494    8961.610    45.40
elaps:  cdiag4        18139       0.026     469.629     2.38
elaps:  c-eigvec       9009       0.887    7991.172    40.48
elaps:  c-buildD       9009       0.410    3692.006    18.70
elaps:  DHSCF4            1       7.499       7.499     0.04
elaps:  dfscf             1       7.098       7.098     0.04
elaps:  overfsm           1       0.051       0.051     0.00
elaps:  optical           1       0.001       0.001     0.00
  
>> End of run:  27-APR-2016   3:14:32
