Siesta Version:                                        siesta-3.2-pl-3
Architecture  : x86_64-unknown-linux-gnu--unknown
Compiler flags: mpiifort -g -O2 -fPIC -xSSE4.1 -fp-model source -shared-intel 
PARALLEL version

* Running on   12 nodes in parallel
>> Start of run:   4-MAY-2016   6:53:33

                           ***********************       
                           *  WELCOME TO SIESTA  *       
                           ***********************       

reinit: Reading from standard input
************************** Dump of input data file ****************************
#(1) General system descriptors
SystemName            GRP_doping    # Descriptive name of the system
SystemLabel           GRP_doping    # Short name for naming files
%include STRUCT.fdf
%include KPT.fdf
%include BASIS.fdf
#%include TS.fdf # for transiesta calculation
#(4) DFT, Grid, SCF
XC.functional         GGA           # LDA or GGA (default = LDA)
XC.authors            PBE           # CA (Ceperley-Aldr) = PZ
                                    #    (Perdew-Zunger) - LDA - Default
                                    # PW92 (Perdew-Wang-92) - LDA
                                    # PBE (Perdew-Burke-Ernzerhof) - GGA
MeshCutoff            200.000000    Ry      # Default: 50.0 Ry ~ 0.444 Bohr
                                    #         100.0 Ry ~ 0.314 Bohr
MaxSCFIterations      500           # Default: 50
DM.MixingWeight       0.05          # Default: 0.25
DM.NumberPulay        10            # Default: 0
DM.PulayOnFile        F             # SystemLabel.P1, SystemLabel.P2
DM.Tolerance          1.d-4         # Default: 1.d-4
DM.UseSaveDM          .true.        # because of the bug
SCFMustConverge       .true.
NeglNonOverlapInt     F             # Default: F
#(5) Eigenvalue problem: order-N or diagonalization
SolutionMethod        Diagon        # or Transiesta
ElectronicTemperature 300.0 K       # Default: 300.0 K
#(6) Molecular dynamics and relaxations
#MD.TypeOfRun          CG            # Type of dynamics:
#MD.VariableCell       F
#MD.NumCGsteps         0           # 0 for single-point / 100 for gopt
#MD.MaxCGDispl         0.2 Bohr      # Default: 0.2 Bohr
#MD.MaxForceTol        0.02 eV/Ang   # Default: 0.04 eV/Ang
#MD.MaxStressTol       1.0 GPa       # Default: 1.0 GPa
# Geometry Constraints
#%block GeometryConstraints
#	position from 1 to 44
#%endblock GeometryConstraints
BandLinesScale   pi/a
%block BandLines
 1   0.00000000  0.00000000  0.00000000
50   0.00000000  0.07809418  0.00000000
50   0.04509075  0.07809242  0.00000000
20   0.00000000  0.00000000  0.00000000
%endblock BandLines
************************** End of input data file *****************************

reinit: -----------------------------------------------------------------------
reinit: System Name: GRP_doping
reinit: -----------------------------------------------------------------------
reinit: System Label: GRP_doping                                                  
reinit: -----------------------------------------------------------------------

initatom: Reading input for the pseudopotentials and atomic orbitals ----------
 Species number:            1  Label: B Atomic number:           5
 Species number:            2  Label: C Atomic number:           6
Ground state valence configuration:   2s02  2p01
Reading pseudopotential information in formatted form from B.psf

Valence configuration for pseudopotential generation:
2s( 2.00) rc: 1.74
2p( 1.00) rc: 1.74
3d( 0.00) rc: 1.74
4f( 0.00) rc: 1.74
Ground state valence configuration:   2s02  2p02
Reading pseudopotential information in formatted form from C.psf

Valence configuration for pseudopotential generation:
2s( 2.00) rc: 1.54
2p( 2.00) rc: 1.54
3d( 0.00) rc: 1.54
4f( 0.00) rc: 1.54
For B, standard SIESTA heuristics set lmxkb to 3
 (one more than the basis l, including polarization orbitals).
Use PS.lmax or PS.KBprojectors blocks to override.
For C, standard SIESTA heuristics set lmxkb to 3
 (one more than the basis l, including polarization orbitals).
Use PS.lmax or PS.KBprojectors blocks to override.

<basis_specs>
===============================================================================
B                    Z=   5    Mass=  10.810        Charge= 0.17977+309
Lmxo=1 Lmxkb= 3    BasisType=split      Semic=F
L=0  Nsemic=0  Cnfigmx=2
          n=1  nzeta=2  polorb=0
            splnorm:   0.15000    
               vcte:    0.0000    
               rinn:    0.0000    
                rcs:    0.0000      0.0000    
            lambdas:    1.0000      1.0000    
L=1  Nsemic=0  Cnfigmx=2
          n=1  nzeta=2  polorb=1
            splnorm:   0.15000    
               vcte:    0.0000    
               rinn:    0.0000    
                rcs:    0.0000      0.0000    
            lambdas:    1.0000      1.0000    
-------------------------------------------------------------------------------
L=0  Nkbl=1  erefs: 0.17977+309
L=1  Nkbl=1  erefs: 0.17977+309
L=2  Nkbl=1  erefs: 0.17977+309
L=3  Nkbl=1  erefs: 0.17977+309
===============================================================================
</basis_specs>

atom: Called for B                     (Z =   5)

read_vps: Pseudopotential generation method:
read_vps: ATM3      Troullier-Martins                       
Total valence charge:    3.00000

read_vps: Pseudopotential includes a core correction:
read_vps: Pseudo-core for xc-correction

xc_check: Exchange-correlation functional:
xc_check: GGA Perdew, Burke & Ernzerhof 1996
V l=0 = -2*Zval/r beyond r=  1.7165
V l=1 = -2*Zval/r beyond r=  1.7165
V l=2 = -2*Zval/r beyond r=  1.7165
V l=3 = -2*Zval/r beyond r=  1.6951
All V_l potentials equal beyond r=  1.7165
This should be close to max(r_c) in ps generation
All pots = -2*Zval/r beyond r=  1.7165

VLOCAL1: 99.0% of the norm of Vloc inside     14.733 Ry
VLOCAL1: 99.9% of the norm of Vloc inside     33.577 Ry
atom: Maximum radius for 4*pi*r*r*local-pseudopot. charge    2.04484
atom: Maximum radius for r*vlocal+2*Zval:    1.75994
GHOST: No ghost state for L =  0
GHOST: No ghost state for L =  1
GHOST: No ghost state for L =  2
GHOST: No ghost state for L =  3

KBgen: Kleinman-Bylander projectors: 
   l= 0   rc=  1.897051   el= -0.693730   Ekb=  4.595746   kbcos=  0.286105
   l= 1   rc=  1.920920   el= -0.265236   Ekb= -2.350715   kbcos= -0.315747
   l= 2   rc=  2.044840   el=  0.002055   Ekb= -0.690767   kbcos= -0.013822
   l= 3   rc=  2.149707   el=  0.003188   Ekb= -0.315358   kbcos= -0.002055

KBgen: Total number of  Kleinman-Bylander projectors:   16
atom: -------------------------------------------------------------------------

atom: SANKEY-TYPE ORBITALS:
atom: Selected multiple-zeta basis: split     

SPLIT: Orbitals with angular momentum L= 0

SPLIT: Basis orbitals for state 2s

SPLIT: PAO cut-off radius determined from an
SPLIT: energy shift=  0.007350 Ry

   izeta = 1
                 lambda =    1.000000
                     rc =    5.422032
                 energy =   -0.686029
                kinetic =    0.576707
    potential(screened) =   -1.262736
       potential(ionic) =   -3.271094

   izeta = 2
                 rmatch =    4.222573
              splitnorm =    0.150000
                 energy =   -0.602132
                kinetic =    0.858975
    potential(screened) =   -1.461107
       potential(ionic) =   -3.582536

SPLIT: Orbitals with angular momentum L= 1

SPLIT: Basis orbitals for state 2p

SPLIT: PAO cut-off radius determined from an
SPLIT: energy shift=  0.007350 Ry

   izeta = 1
                 lambda =    1.000000
                     rc =    6.790259
                 energy =   -0.258578
                kinetic =    1.481412
    potential(screened) =   -1.739989
       potential(ionic) =   -3.657461

   izeta = 2
                 rmatch =    4.608740
              splitnorm =    0.150000
                 energy =   -0.173757
                kinetic =    2.186690
    potential(screened) =   -2.360447
       potential(ionic) =   -4.464260

POLgen: Perturbative polarization orbital with L=  2

POLgen: Polarization orbital for state 2p

   izeta = 1
                     rc =    6.790259
                 energy =    0.684082
                kinetic =    1.471481
    potential(screened) =   -0.787399
       potential(ionic) =   -2.406985
atom: Total number of Sankey-type orbitals: 13

atm_pop: Valence configuration (for local Pseudopot. screening):
 2s( 2.00)                                                            
 2p( 1.00)                                                            
Vna: chval, zval:    3.00000   3.00000

Vna:  Cut-off radius for the neutral-atom potential:   6.790259
comcore: Pseudo-core radius Rcore=  2.122997

atom: _________________________________________________________________________

<basis_specs>
===============================================================================
C                    Z=   6    Mass=  12.010        Charge= 0.17977+309
Lmxo=1 Lmxkb= 3    BasisType=split      Semic=F
L=0  Nsemic=0  Cnfigmx=2
          n=1  nzeta=2  polorb=0
            splnorm:   0.15000    
               vcte:    0.0000    
               rinn:    0.0000    
                rcs:    0.0000      0.0000    
            lambdas:    1.0000      1.0000    
L=1  Nsemic=0  Cnfigmx=2
          n=1  nzeta=2  polorb=1
            splnorm:   0.15000    
               vcte:    0.0000    
               rinn:    0.0000    
                rcs:    0.0000      0.0000    
            lambdas:    1.0000      1.0000    
-------------------------------------------------------------------------------
L=0  Nkbl=1  erefs: 0.17977+309
L=1  Nkbl=1  erefs: 0.17977+309
L=2  Nkbl=1  erefs: 0.17977+309
L=3  Nkbl=1  erefs: 0.17977+309
===============================================================================
</basis_specs>

atom: Called for C                     (Z =   6)

read_vps: Pseudopotential generation method:
read_vps: ATM3      Troullier-Martins                       
Total valence charge:    4.00000

read_vps: Pseudopotential includes a core correction:
read_vps: Pseudo-core for xc-correction

xc_check: Exchange-correlation functional:
xc_check: GGA Perdew, Burke & Ernzerhof 1996
V l=0 = -2*Zval/r beyond r=  1.5227
V l=1 = -2*Zval/r beyond r=  1.5227
V l=2 = -2*Zval/r beyond r=  1.5227
V l=3 = -2*Zval/r beyond r=  1.5038
All V_l potentials equal beyond r=  1.5227
This should be close to max(r_c) in ps generation
All pots = -2*Zval/r beyond r=  1.5227

VLOCAL1: 99.0% of the norm of Vloc inside     18.722 Ry
VLOCAL1: 99.9% of the norm of Vloc inside     42.668 Ry
atom: Maximum radius for 4*pi*r*r*local-pseudopot. charge    1.83678
atom: Maximum radius for r*vlocal+2*Zval:    1.58088
GHOST: No ghost state for L =  0
GHOST: No ghost state for L =  1
GHOST: No ghost state for L =  2
GHOST: No ghost state for L =  3

KBgen: Kleinman-Bylander projectors: 
   l= 0   rc=  1.704034   el= -1.009801   Ekb=  5.335044   kbcos=  0.316824
   l= 1   rc=  1.704034   el= -0.388707   Ekb= -3.785862   kbcos= -0.366464
   l= 2   rc=  1.791422   el=  0.001971   Ekb= -0.970471   kbcos= -0.009212
   l= 3   rc=  1.859892   el=  0.003065   Ekb= -0.399525   kbcos= -0.001223

KBgen: Total number of  Kleinman-Bylander projectors:   16
atom: -------------------------------------------------------------------------

atom: SANKEY-TYPE ORBITALS:
atom: Selected multiple-zeta basis: split     

SPLIT: Orbitals with angular momentum L= 0

SPLIT: Basis orbitals for state 2s

SPLIT: PAO cut-off radius determined from an
SPLIT: energy shift=  0.007350 Ry

   izeta = 1
                 lambda =    1.000000
                     rc =    4.632753
                 energy =   -1.002270
                kinetic =    0.855760
    potential(screened) =   -1.858031
       potential(ionic) =   -5.417575

   izeta = 2
                 rmatch =    3.431921
              splitnorm =    0.150000
                 energy =   -0.867111
                kinetic =    1.300804
    potential(screened) =   -2.167915
       potential(ionic) =   -5.962684

SPLIT: Orbitals with angular momentum L= 1

SPLIT: Basis orbitals for state 2p

SPLIT: PAO cut-off radius determined from an
SPLIT: energy shift=  0.007350 Ry

   izeta = 1
                 lambda =    1.000000
                     rc =    5.658549
                 energy =   -0.381140
                kinetic =    2.399701
    potential(screened) =   -2.780841
       potential(ionic) =   -6.206085

   izeta = 2
                 rmatch =    3.653288
              splitnorm =    0.150000
                 energy =   -0.249149
                kinetic =    3.542762
    potential(screened) =   -3.791911
       potential(ionic) =   -7.581078

POLgen: Perturbative polarization orbital with L=  2

POLgen: Polarization orbital for state 2p

   izeta = 1
                     rc =    5.658549
                 energy =    1.109913
                kinetic =    2.304789
    potential(screened) =   -1.194876
       potential(ionic) =   -4.013592
atom: Total number of Sankey-type orbitals: 13

atm_pop: Valence configuration (for local Pseudopot. screening):
 2s( 2.00)                                                            
 2p( 2.00)                                                            
Vna: chval, zval:    4.00000   4.00000

Vna:  Cut-off radius for the neutral-atom potential:   5.658549
comcore: Pseudo-core radius Rcore=  1.791422

atom: _________________________________________________________________________

prinput: Basis input ----------------------------------------------------------

PAO.BasisType split     

%block ChemicalSpeciesLabel
    1    5 B                       # Species index, atomic number, species label
    2    6 C                       # Species index, atomic number, species label
%endblock ChemicalSpeciesLabel

%block PAO.Basis                 # Define Basis set
B                     2                    # Species label, number of l-shells
 n=2   0   2                         # n, l, Nzeta 
   5.422      4.223   
   1.000      1.000   
 n=2   1   2 P   1                   # n, l, Nzeta, Polarization, NzetaPol
   6.790      4.609   
   1.000      1.000   
C                     2                    # Species label, number of l-shells
 n=2   0   2                         # n, l, Nzeta 
   4.633      3.432   
   1.000      1.000   
 n=2   1   2 P   1                   # n, l, Nzeta, Polarization, NzetaPol
   5.659      3.653   
   1.000      1.000   
%endblock PAO.Basis

prinput: ----------------------------------------------------------------------

coor:   Atomic-coordinates input format  =     Fractional

siesta: Atomic coordinates (Bohr) and species
siesta:      9.28770  21.41544   0.00000  1        1
siesta:      6.95932  22.75985   0.00000  1        2
siesta:      2.30256  22.75985   0.00000  1        3
siesta:     -2.35420  22.75985   0.00000  1        4
siesta:     -9.33934  21.41544   0.00000  1        5
siesta:      4.63094  26.79272   0.00000  1        6
siesta:      2.30256  30.82560   0.00000  1        7
siesta:     -0.02582  37.54693   0.00000  1        8
siesta:     -0.02582   2.59549   0.00000  2        9
siesta:     -0.02582   5.28395   0.00000  2       10
siesta:     -2.35420  38.89134   0.00000  2       11
siesta:     -2.35420  41.57980   0.00000  2       12
siesta:      2.30256  38.89134   0.00000  2       13
siesta:      2.30256  41.57980   0.00000  2       14
siesta:      4.63094  34.85847   0.00000  2       15
siesta:      4.63094  37.54693   0.00000  2       16
siesta:      6.95932  30.82560   0.00000  2       17
siesta:      6.95932  33.51406   0.00000  2       18
siesta:      9.28770  26.79272   0.00000  2       19
siesta:      9.28770  29.48119   0.00000  2       20
siesta:     -4.68258  34.85847   0.00000  2       21
siesta:     -4.68258  37.54693   0.00000  2       22
siesta:      2.30256   6.62836   0.00000  2       23
siesta:      2.30256   9.31683   0.00000  2       24
siesta:      4.63094  10.66124   0.00000  2       25
siesta:      4.63094  13.34970   0.00000  2       26
siesta:      6.95932  14.69411   0.00000  2       27
siesta:      6.95932  17.38257   0.00000  2       28
siesta:      9.28770  18.72698   0.00000  2       29
siesta:     11.61608  22.75985   0.00000  2       30
siesta:     11.61608  25.44831   0.00000  2       31
siesta:     -2.35420   6.62836   0.00000  2       32
siesta:     -2.35420   9.31683   0.00000  2       33
siesta:     -0.02582  10.66124   0.00000  2       34
siesta:     -0.02582  13.34970   0.00000  2       35
siesta:      2.30256  14.69411   0.00000  2       36
siesta:      2.30256  17.38257   0.00000  2       37
siesta:      4.63094  18.72698   0.00000  2       38
siesta:      4.63094  21.41544   0.00000  2       39
siesta:      6.95932  25.44831   0.00000  2       40
siesta:     -4.68258  10.66124   0.00000  2       41
siesta:     -4.68258  13.34970   0.00000  2       42
siesta:     -2.35420  14.69411   0.00000  2       43
siesta:     -2.35420  17.38257   0.00000  2       44
siesta:     -0.02582  18.72698   0.00000  2       45
siesta:     -0.02582  21.41544   0.00000  2       46
siesta:      2.30256  25.44831   0.00000  2       47
siesta:     -7.01096  14.69411   0.00000  2       48
siesta:     -7.01096  17.38257   0.00000  2       49
siesta:     -4.68258  18.72698   0.00000  2       50
siesta:     -4.68258  21.41544   0.00000  2       51
siesta:     -2.35420  25.44831   0.00000  2       52
siesta:     -9.33934  18.72698   0.00000  2       53
siesta:     -7.01096  22.75985   0.00000  2       54
siesta:     -7.01096  25.44831   0.00000  2       55
siesta:    -11.66772  22.75985   0.00000  2       56
siesta:    -11.66772  25.44831   0.00000  2       57
siesta:     -9.33934  26.79272   0.00000  2       58
siesta:     -9.33934  29.48119   0.00000  2       59
siesta:      4.63094  29.48119   0.00000  2       60
siesta:     -0.02582  26.79272   0.00000  2       61
siesta:     -0.02582  29.48119   0.00000  2       62
siesta:     -4.68258  26.79272   0.00000  2       63
siesta:     -4.68258  29.48119   0.00000  2       64
siesta:      2.30256  33.51406   0.00000  2       65
siesta:     -2.35420  30.82560   0.00000  2       66
siesta:     -2.35420  33.51406   0.00000  2       67
siesta:     -7.01096  30.82560   0.00000  2       68
siesta:     -7.01096  33.51406   0.00000  2       69
siesta:     -0.02582  34.85847   0.00000  2       70
siesta:     -0.02582  42.92421   0.00000  2       71
siesta:     -0.02582  45.61267   0.00000  2       72

siesta: System type = slab      

initatomlists: Number of atoms, orbitals, and projectors:     72   936  1152

siesta: ******************** Simulation parameters ****************************
siesta:
siesta: The following are some of the parameters of the simulation.
siesta: A complete list of the parameters used, including default values,
siesta: can be found in file out.fdf
siesta:
redata: Non-Collinear-spin run           =     F
redata: SpinPolarized (Up/Down) run      =     F
redata: Number of spin components        =     1
redata: Long output                      =     F
redata: Number of Atomic Species         =        2
redata: Charge density info will appear in .RHO file
redata: Write Mulliken Pop.              =     NO
redata: Mesh Cutoff                      =   200.0000  Ry
redata: Net charge of the system         =     0.0000 |e|
redata: Max. number of SCF Iter          =      500
redata: SCF convergence failure will abort job
redata: Performing Pulay mixing using    =    10 iterations
redata: Mix DM in first SCF step ?       =     F
redata: Write Pulay info on disk?        =     F
redata: Discard 1st Pulay DM after  kick =     F
redata: New DM Mixing Weight             =     0.0500
redata: New DM Occupancy tolerance       = 0.000000000001
redata: No kicks to SCF
redata: DM Mixing Weight for Kicks       =     0.5000
redata: DM Tolerance for SCF             =     0.000100
redata: Require Energy convergence for SCF =     F
redata: DM Energy tolerance for SCF      =     0.000100 eV
redata: Require Harris convergence for SCF =     F
redata: DM Harris energy tolerance for SCF =     0.000100 eV
redata: Using Saved Data (generic)   =     F
redata: Use continuation files for DM    =     T
redata: Neglect nonoverlap interactions  =     F
redata: Method of Calculation            =     Diagonalization
redata: Divide and Conquer               =     T
redata: Electronic Temperature           =     0.0019  Ry
redata: Fix the spin of the system       =     F
redata: Dynamics option                  =     Verlet MD run
redata: Initial MD time step             =        1
redata:   Final MD time step             =        1
redata: Length of MD time step           =     1.0000  fs
redata: Initial Temperature of MD run    =     0.0000  K
redata: Perform a MD quench              =     F
redata: ***********************************************************************
Total number of electrons:   280.000000
Total ionic charge:   280.000000

* ProcessorY, Blocksize:    3  24

k-point displ. along   1 input, could be:     0.50    0.00
k-point displ. along   2 input, could be:     0.50    0.00
 Kpoints in:          231 . Kpoints trimmed:          231

siesta: k-grid: Number of k-points =   231
siesta: k-grid: Cutoff (effective) =     5.000 Ang
siesta: k-grid: Supercell and displacements
siesta: k-grid:   21   0   0      0.500
siesta: k-grid:    0  21   0      0.500
siesta: k-grid:    0   0   1      0.000
Naive supercell factors:     2    2    2

superc: Internal auxiliary supercell:     2 x     2 x     2  =       8
superc: Number of atoms, orbitals, and projectors:    576   7488   9216

* Maximum dynamic memory allocated =     4 MB

siesta:                 ==============================
                            Begin MD step =      1
                        ==============================

superc: Internal auxiliary supercell:     2 x     2 x     2  =       8
superc: Number of atoms, orbitals, and projectors:    576   7488   9216

outcell: Unit cell vectors (Ang):
       12.804619    7.392750    0.000000
        0.000000   14.785500    0.000000
        0.000000    0.000000   10.000000

outcell: Cell vector modules (Ang)   :   14.785500   14.785500   10.000000
outcell: Cell angles (23,13,12) (deg):     90.0000     90.0000     60.0000
outcell: Cell volume (Ang**3)        :   1893.2269
New_DM. Step:     1
Initializing Density Matrix...

InitMesh: MESH =   120 x   120 x    90 =     1296000
InitMesh: Mesh cutoff (required, used) =   200.000   223.865 Ry

* Maximum dynamic memory allocated =   148 MB

stepf: Fermi-Dirac step function

siesta: Program's energy decomposition (eV):
siesta: Ebs     =     -5754.927750
siesta: Eions   =     17378.557381
siesta: Ena     =      4525.530180
siesta: Ekin    =      5956.271858
siesta: Enl     =       695.433248
siesta: DEna    =        -0.000012
siesta: DUscf   =         0.000000
siesta: DUext   =         0.000000
siesta: Exc     =     -4181.180566
siesta: eta*DQ  =         0.000000
siesta: Emadel  =         0.000000
siesta: Emeta   =         0.000000
siesta: Emolmec =         0.000000
siesta: Ekinion =         0.000000
siesta: Eharris =    -10079.741900
siesta: Etot    =    -10382.502674
siesta: FreeEng =    -10382.502674

siesta: iscf   Eharris(eV)      E_KS(eV)   FreeEng(eV)   dDmax  Ef(eV)
siesta:    1   -10079.7419   -10382.5027   -10382.5027  6.4337 -8.0410
timer: Routine,Calls,Time,% = IterSCF        1    3045.079  99.59
elaps: Routine,Calls,Wall,% = IterSCF        1     254.359  99.59
siesta:    2   -13491.5924    -9472.8373    -9472.8924 25.4065 -2.0930
siesta:    3   -10037.7391   -10204.5349   -10204.5613  2.6810 -5.9906
siesta:    4    -9994.6055   -10114.0622   -10114.0848  1.5378 -5.6153
siesta:    5    -9969.9709   -10037.2840   -10037.3061  0.9194 -5.1329
siesta:    6    -9953.5274   -10005.2353   -10005.2726  0.8399 -5.0766
siesta:    7    -9938.9448    -9976.6530    -9976.6778  0.6441 -4.9394
siesta:    8    -9937.9107    -9961.6772    -9961.7085  0.4707 -4.9133
siesta:    9    -9936.6324    -9955.4021    -9955.4879  0.4952 -4.8624
siesta:   10    -9940.2545    -9935.7312    -9935.7488  0.3789 -4.6669
siesta:   11    -9937.8852    -9931.8924    -9931.9616  0.2680 -4.7360
siesta:   12    -9936.5283    -9927.8973    -9927.9850  0.2706 -4.8001
siesta:   13    -9935.9849    -9918.9290    -9918.9741  0.2247 -4.8860
siesta:   14    -9935.5957    -9921.3062    -9921.3091  0.1817 -4.9301
siesta:   15    -9935.0282    -9924.2550    -9924.2686  0.1170 -4.9541
siesta:   16    -9934.9453    -9925.6936    -9925.7346  0.1205 -4.9709
siesta:   17    -9934.6242    -9928.0244    -9928.0332  0.0978 -4.9669
siesta:   18    -9934.5434    -9928.6228    -9928.6641  0.0751 -4.9791
siesta:   19    -9934.5184    -9929.0710    -9929.1220  0.0659 -4.9824
siesta:   20    -9934.4579    -9929.5315    -9929.5824  0.0611 -4.9895
siesta:   21    -9934.4368    -9931.3352    -9931.3878  0.0547 -4.9980
siesta:   22    -9934.4523    -9932.8000    -9932.8581  0.0398 -4.9937
siesta:   23    -9934.4371    -9934.3125    -9934.3567  0.0257 -4.9987
siesta:   24    -9934.4345    -9934.6079    -9934.6646  0.0221 -4.9938
siesta:   25    -9934.4307    -9935.0088    -9935.0635  0.0160 -4.9925
siesta:   26    -9934.4292    -9935.0524    -9935.1078  0.0124 -4.9887
siesta:   27    -9934.4295    -9934.9076    -9934.9628  0.0091 -4.9863
siesta:   28    -9934.4270    -9934.8834    -9934.9375  0.0087 -4.9846
siesta:   29    -9934.4282    -9934.6606    -9934.7166  0.0046 -4.9833
siesta:   30    -9934.4280    -9934.5660    -9934.6208  0.0027 -4.9832
siesta:   31    -9934.4285    -9934.4385    -9934.4935  0.0015 -4.9830
siesta:   32    -9934.4283    -9934.4179    -9934.4722  0.0014 -4.9822
siesta:   33    -9934.4283    -9934.4176    -9934.4721  0.0012 -4.9815
siesta:   34    -9934.4283    -9934.4207    -9934.4752  0.0008 -4.9813
siesta:   35    -9934.4284    -9934.4113    -9934.4657  0.0005 -4.9816
siesta:   36    -9934.4284    -9934.4037    -9934.4581  0.0003 -4.9818
siesta:   37    -9934.4284    -9934.4019    -9934.4562  0.0002 -4.9819
siesta:   38    -9934.4284    -9934.4017    -9934.4561  0.0001 -4.9819
siesta:   39    -9934.4284    -9934.4047    -9934.4591  0.0001 -4.9819
siesta:   40    -9934.4284    -9934.4092    -9934.4636  0.0001 -4.9819

siesta: E_KS(eV) =            -9934.4153

siesta: E_KS - E_eggbox =     -9934.4153

siesta: Atomic forces (eV/Ang):
----------------------------------------
   Tot   -0.247569   -0.014636    0.000000
----------------------------------------
   Max  563.301789
   Res  157.068575    sqrt( Sum f_i^2 / 3N )
----------------------------------------
   Max  563.301789    constrained

Stress-tensor-Voigt (kbar):     -769.73    -2771.47       -0.43       -3.65        0.00        0.00
(Free)E + p*V (eV/cell)    -8539.4843
Target enthalpy (eV/cell)    -9934.4697

siesta: Stress tensor (static) (eV/Ang**3):
        -0.480423   -0.002279    0.000000
        -0.002279   -1.729797    0.000000
         0.000000    0.000000   -0.000269

siesta: Pressure (static):       1180.54376731  kBar

siesta: Stress tensor (total) (eV/Ang**3):
        -0.480423   -0.002279    0.000000
        -0.002279   -1.729797    0.000000
         0.000000    0.000000   -0.000269

siesta: Pressure (total):       1180.54376731  kBar

siesta: Temp_ion =       0.000 K

* Maximum dynamic memory allocated =   161 MB
Computing bands...

siesta: Program's energy decomposition (eV):
siesta: Ebs     =     -4454.104539
siesta: Eions   =     17378.557381
siesta: Ena     =      4525.530180
siesta: Ekin    =      8904.734829
siesta: Enl     =      -953.301021
siesta: DEna    =      -783.928566
siesta: DUscf   =       103.617432
siesta: DUext   =         0.000000
siesta: Exc     =     -4352.510812
siesta: eta*DQ  =         0.000000
siesta: Emadel  =         0.000000
siesta: Emeta   =         0.000000
siesta: Emolmec =         0.000000
siesta: Ekinion =         0.000000
siesta: Eharris =     -9934.428373
siesta: Etot    =     -9934.415339
siesta: FreeEng =     -9934.469729

siesta: Final energy (eV):
siesta:  Band Struct. =   -4454.104539
siesta:       Kinetic =    8904.734829
siesta:       Hartree =   29181.496634
siesta:    Ext. field =       0.000000
siesta:   Exch.-corr. =   -4352.510812
siesta:  Ion-electron =  -66988.966095
siesta:       Ion-ion =   23320.830105
siesta:       Ekinion =       0.000000
siesta:         Total =   -9934.415339

siesta: Atomic forces (eV/Ang):
siesta:      1    8.994176   -4.082235    0.000000
siesta:      2   -4.340702    1.932773    0.000000
siesta:      3   -1.334560   -1.379810    0.000000
siesta:      4    0.767220   -1.017531    0.000000
siesta:      5   -3.525868   -1.557391    0.000000
siesta:      6    0.105512   -0.388398    0.000000
siesta:      7   19.844568    3.256841    0.000000
siesta:      8    0.153093 -394.235706    0.000000
siesta:      9   -3.677323  546.696163    0.000000
siesta:     10    1.566878 -131.784990    0.000000
siesta:     11    6.093158  119.258832    0.000000
siesta:     12  -15.780361 -548.821784    0.000000
siesta:     13   -5.841315  119.354832    0.000000
siesta:     14   14.832545 -548.818863    0.000000
siesta:     15   26.597678    4.653239    0.000000
siesta:     16   33.722411 -547.098233    0.000000
siesta:     17    2.428053    0.787897    0.000000
siesta:     18   -2.373915    1.917947    0.000000
siesta:     19    2.404383    1.453277    0.000000
siesta:     20   -0.986679    0.481695    0.000000
siesta:     21  -26.832645    5.298498    0.000000
siesta:     22  -34.159878 -547.953436    0.000000
siesta:     23   20.044820  549.977877    0.000000
siesta:     24    0.499752 -125.653174    0.000000
siesta:     25   35.175724  547.658508    0.000000
siesta:     26   26.178826   -6.248781    0.000000
siesta:     27   -2.514068   -1.452763    0.000000
siesta:     28    2.490710   -1.707729    0.000000
siesta:     29   -3.091505   -3.180890    0.000000
siesta:     30    2.116683    9.039464    0.000000
siesta:     31    0.163793   -6.597918    0.000000
siesta:     32  -16.569494  547.333386    0.000000
siesta:     33   -1.553560 -125.095790    0.000000
siesta:     34    0.190551  400.573720    0.000000
siesta:     35    0.567956 -126.882501    0.000000
siesta:     36   22.990951  558.418644    0.000000
siesta:     37   22.094647   -6.210747    0.000000
siesta:     38   -1.184234    2.915584    0.000000
siesta:     39    0.514548   -3.902442    0.000000
siesta:     40    2.864750    1.506285    0.000000
siesta:     41  -34.522071  548.112770    0.000000
siesta:     42  -26.295727   -5.791340    0.000000
siesta:     43  -23.632507  558.498515    0.000000
siesta:     44  -21.994528   -6.226042    0.000000
siesta:     45    0.163262  563.301789    0.000000
siesta:     46   -0.053067   -3.218548    0.000000
siesta:     47   -4.190626    3.263189    0.000000
siesta:     48    2.561323   -2.021417    0.000000
siesta:     49   -2.502090   -0.875534    0.000000
siesta:     50    0.670715    2.583760    0.000000
siesta:     51   -3.060246   -1.427296    0.000000
siesta:     52    0.070198    4.355783    0.000000
siesta:     53    2.295871   -4.261870    0.000000
siesta:     54    3.076835    1.582640    0.000000
siesta:     55    0.368992   -0.598726    0.000000
siesta:     56   -2.710069    9.585414    0.000000
siesta:     57    0.088705   -7.241275    0.000000
siesta:     58   -2.117774    1.740710    0.000000
siesta:     59    0.735096    0.413292    0.000000
siesta:     60    0.352355    2.643909    0.000000
siesta:     61    0.080463   -1.732670    0.000000
siesta:     62    2.171824 -558.375212    0.000000
siesta:     63    0.359540    0.144114    0.000000
siesta:     64    1.078722   -1.718512    0.000000
siesta:     65   21.728918 -552.584437    0.000000
siesta:     66  -22.460484    5.471425    0.000000
siesta:     67  -23.565765 -555.397336    0.000000
siesta:     68   -1.527826    0.261784    0.000000
siesta:     69    2.458545    1.854269    0.000000
siesta:     70    0.206813  129.468967    0.000000
siesta:     71    0.363933  129.643316    0.000000
siesta:     72   -0.084176 -549.914417    0.000000
siesta: ----------------------------------------
siesta:    Tot   -0.247569   -0.014636    0.000000

siesta: Stress tensor (static) (eV/Ang**3):
siesta:    -0.480423   -0.002279    0.000000
siesta:    -0.002279   -1.729797    0.000000
siesta:     0.000000    0.000000   -0.000269

siesta: Cell volume =       1893.226884 Ang**3

siesta: Pressure (static):
siesta:                Solid            Molecule  Units
siesta:           0.00802501          0.12152959  Ry/Bohr**3
siesta:           0.73682950         11.15843393  eV/Ang**3
siesta:        1180.54376731      17877.97535440  kBar
(Free)E+ p_basis*V_orbitals  =       -9901.204483
(Free)Eharris+ p_basis*V_orbitals  =       -9901.223643

siesta: Electric dipole (a.u.)  =    0.000000    0.000000    0.000000
siesta: Electric dipole (Debye) =    0.000000    0.000000    0.000000

* Maximum dynamic memory allocated : Node    0 =   161 MB
* Maximum dynamic memory allocated : Node    1 =    65 MB
* Maximum dynamic memory allocated : Node    2 =    66 MB
* Maximum dynamic memory allocated : Node    3 =   148 MB
* Maximum dynamic memory allocated : Node    4 =   157 MB
* Maximum dynamic memory allocated : Node    5 =    58 MB
* Maximum dynamic memory allocated : Node    6 =    60 MB
* Maximum dynamic memory allocated : Node    7 =   150 MB
* Maximum dynamic memory allocated : Node    8 =   146 MB
* Maximum dynamic memory allocated : Node    9 =    58 MB
* Maximum dynamic memory allocated : Node   10 =    60 MB
* Maximum dynamic memory allocated : Node   11 =   140 MB

* Maximum memory occured during matrixMtoO                    

timer: CPU execution times:
timer:  Routine       Calls   Time/call    Tot.time        %
timer:  siesta            1  118802.028  118802.028   100.00
timer:  Setup             1       3.417       3.417     0.00
timer:  bands             3     226.233     678.700     0.57
timer:  writewave         1       0.023       0.023     0.00
timer:  KSV_init          1       0.003       0.003     0.00
timer:  IterMD            1  118112.984  118112.984    99.42
timer:  hsparse           1       0.278       0.278     0.00
timer:  overlap           1       6.023       6.023     0.01
timer:  IterSCF          40    2949.240  117969.619    99.30
timer:  kinefsm           2       3.072       6.144     0.01
timer:  nlefsm            2      19.851      39.701     0.03
timer:  DHSCF            41      72.202    2960.284     2.49
timer:  DHSCF1            1       1.193       1.193     0.00
timer:  DHSCF2            1      31.785      31.785     0.03
timer:  REORD           330       0.002       0.722     0.00
timer:  POISON           42       0.449      18.855     0.02
timer:  DHSCF3           41      70.763    2901.291     2.44
timer:  rhoofd           41      15.389     630.965     0.53
timer:  cellXC           41       2.454     100.634     0.08
timer:  vmat             41      33.631    1378.868     1.16
timer:  MolMec            2       0.000       0.000     0.00
timer:  diagon           40    2875.911  115036.451    96.83
timer:  c-eigval       9361       5.597   52391.612    44.10
timer:  c-buildHS      9361       0.035     327.100     0.28
timer:  cdiag         18601       5.697  105961.462    89.19
timer:  cdiag1        18601       0.260    4834.801     4.07
timer:  cdiag2        18601       1.835   34140.237    28.74
timer:  cdiag3        18601       3.389   63045.974    53.07
timer:  cdiag4        18601       0.088    1633.253     1.37
timer:  c-eigvec       9240       5.863   54173.178    45.60
timer:  c-buildD       9240       0.985    9100.313     7.66
timer:  DHSCF4            1      25.748      25.748     0.02
timer:  dfscf             1      23.697      23.697     0.02
timer:  overfsm           1       0.311       0.311     0.00
timer:  optical           1       6.318       6.318     0.01
  

elaps: ELAPSED times:
elaps:  Routine       Calls   Time/call    Tot.time        %
elaps:  siesta            1    9923.499    9923.499   100.00
elaps:  Setup             1       0.286       0.286     0.00
elaps:  bands             3      18.913      56.738     0.57
elaps:  writewave         1       0.002       0.002     0.00
elaps:  KSV_init          1       0.000       0.000     0.00
elaps:  IterMD            1    9865.943    9865.943    99.42
elaps:  hsparse           1       0.028       0.028     0.00
elaps:  overlap           1       0.714       0.714     0.01
elaps:  IterSCF          40     246.349    9853.968    99.30
elaps:  kinefsm           2       0.366       0.731     0.01
elaps:  nlefsm            2       1.738       3.475     0.04
elaps:  DHSCF            41       6.081     249.316     2.51
elaps:  DHSCF1            1       0.101       0.101     0.00
elaps:  DHSCF2            1       2.654       2.654     0.03
elaps:  REORD           330       0.000       0.096     0.00
elaps:  POISON           42       0.038       1.592     0.02
elaps:  DHSCF3           41       5.912     242.388     2.44
elaps:  rhoofd           41       2.716     111.374     1.12
elaps:  cellXC           41       0.205       8.387     0.08
elaps:  vmat             41       2.810     115.213     1.16
elaps:  MolMec            2       0.000       0.000     0.00
elaps:  diagon           40     240.229    9609.160    96.83
elaps:  c-eigval       9361       0.467    4376.206    44.10
elaps:  c-buildHS      9361       0.004      34.930     0.35
elaps:  cdiag         18601       0.472    8775.889    88.44
elaps:  cdiag1        18601       0.021     397.057     4.00
elaps:  cdiag2        18601       0.153    2854.312    28.76
elaps:  cdiag3        18601       0.284    5273.513    53.14
elaps:  cdiag4        18601       0.007     131.466     1.32
elaps:  c-eigvec       9240       0.483    4464.267    44.99
elaps:  c-buildD       9240       0.089     820.727     8.27
elaps:  DHSCF4            1       4.133       4.133     0.04
elaps:  dfscf             1       3.883       3.883     0.04
elaps:  overfsm           1       0.033       0.033     0.00
elaps:  optical           1       0.000       0.000     0.00
  
>> End of run:   4-MAY-2016   9:38:57
