Siesta Version:                                        siesta-3.2-pl-3
Architecture  : x86_64-unknown-linux-gnu--unknown
Compiler flags: mpiifort -g -O2 -fPIC -xSSE4.1 -fp-model source -shared-intel 
PARALLEL version

* Running on    8 nodes in parallel
>> Start of run:  27-APR-2016  21:18:12

                           ***********************       
                           *  WELCOME TO SIESTA  *       
                           ***********************       

reinit: Reading from standard input
************************** Dump of input data file ****************************
#(1) General system descriptors
SystemName            GRP_doping    # Descriptive name of the system
SystemLabel           GRP_doping    # Short name for naming files
%include STRUCT.fdf
%include KPT.fdf
%include BASIS.fdf
#%include TS.fdf # for transiesta calculation
#(4) DFT, Grid, SCF
XC.functional         GGA           # LDA or GGA (default = LDA)
XC.authors            PBE           # CA (Ceperley-Aldr) = PZ
                                    #    (Perdew-Zunger) - LDA - Default
                                    # PW92 (Perdew-Wang-92) - LDA
                                    # PBE (Perdew-Burke-Ernzerhof) - GGA
MeshCutoff            200.000000    Ry      # Default: 50.0 Ry ~ 0.444 Bohr
                                    #         100.0 Ry ~ 0.314 Bohr
MaxSCFIterations      500           # Default: 50
DM.MixingWeight       0.05          # Default: 0.25
DM.NumberPulay        10            # Default: 0
DM.PulayOnFile        F             # SystemLabel.P1, SystemLabel.P2
DM.Tolerance          1.d-4         # Default: 1.d-4
DM.UseSaveDM          .true.        # because of the bug
SCFMustConverge       .true.
NeglNonOverlapInt     F             # Default: F
#(5) Eigenvalue problem: order-N or diagonalization
SolutionMethod        Diagon        # or Transiesta
ElectronicTemperature 300.0 K       # Default: 300.0 K
#(6) Molecular dynamics and relaxations
#MD.TypeOfRun          CG            # Type of dynamics:
#MD.VariableCell       F
#MD.NumCGsteps         0           # 0 for single-point / 100 for gopt
#MD.MaxCGDispl         0.2 Bohr      # Default: 0.2 Bohr
#MD.MaxForceTol        0.02 eV/Ang   # Default: 0.04 eV/Ang
#MD.MaxStressTol       1.0 GPa       # Default: 1.0 GPa
# Geometry Constraints
#%block GeometryConstraints
#	position from 1 to 44
#%endblock GeometryConstraints
BandLinesScale   pi/a
%block BandLines
 1   0.00000000  0.00000000  0.00000000
50   0.00000000  0.07809418  0.00000000
50   0.04509075  0.07809242  0.00000000
20   0.00000000  0.00000000  0.00000000
%endblock BandLines
************************** End of input data file *****************************

reinit: -----------------------------------------------------------------------
reinit: System Name: GRP_doping
reinit: -----------------------------------------------------------------------
reinit: System Label: GRP_doping                                                  
reinit: -----------------------------------------------------------------------

initatom: Reading input for the pseudopotentials and atomic orbitals ----------
 Species number:            1  Label: B Atomic number:           5
 Species number:            2  Label: C Atomic number:           6
Ground state valence configuration:   2s02  2p01
Reading pseudopotential information in formatted form from B.psf

Valence configuration for pseudopotential generation:
2s( 2.00) rc: 1.74
2p( 1.00) rc: 1.74
3d( 0.00) rc: 1.74
4f( 0.00) rc: 1.74
Ground state valence configuration:   2s02  2p02
Reading pseudopotential information in formatted form from C.psf

Valence configuration for pseudopotential generation:
2s( 2.00) rc: 1.54
2p( 2.00) rc: 1.54
3d( 0.00) rc: 1.54
4f( 0.00) rc: 1.54
For B, standard SIESTA heuristics set lmxkb to 3
 (one more than the basis l, including polarization orbitals).
Use PS.lmax or PS.KBprojectors blocks to override.
For C, standard SIESTA heuristics set lmxkb to 3
 (one more than the basis l, including polarization orbitals).
Use PS.lmax or PS.KBprojectors blocks to override.

<basis_specs>
===============================================================================
B                    Z=   5    Mass=  10.810        Charge= 0.17977+309
Lmxo=1 Lmxkb= 3    BasisType=split      Semic=F
L=0  Nsemic=0  Cnfigmx=2
          n=1  nzeta=2  polorb=0
            splnorm:   0.15000    
               vcte:    0.0000    
               rinn:    0.0000    
                rcs:    0.0000      0.0000    
            lambdas:    1.0000      1.0000    
L=1  Nsemic=0  Cnfigmx=2
          n=1  nzeta=2  polorb=1
            splnorm:   0.15000    
               vcte:    0.0000    
               rinn:    0.0000    
                rcs:    0.0000      0.0000    
            lambdas:    1.0000      1.0000    
-------------------------------------------------------------------------------
L=0  Nkbl=1  erefs: 0.17977+309
L=1  Nkbl=1  erefs: 0.17977+309
L=2  Nkbl=1  erefs: 0.17977+309
L=3  Nkbl=1  erefs: 0.17977+309
===============================================================================
</basis_specs>

atom: Called for B                     (Z =   5)

read_vps: Pseudopotential generation method:
read_vps: ATM3      Troullier-Martins                       
Total valence charge:    3.00000

read_vps: Pseudopotential includes a core correction:
read_vps: Pseudo-core for xc-correction

xc_check: Exchange-correlation functional:
xc_check: GGA Perdew, Burke & Ernzerhof 1996
V l=0 = -2*Zval/r beyond r=  1.7165
V l=1 = -2*Zval/r beyond r=  1.7165
V l=2 = -2*Zval/r beyond r=  1.7165
V l=3 = -2*Zval/r beyond r=  1.6951
All V_l potentials equal beyond r=  1.7165
This should be close to max(r_c) in ps generation
All pots = -2*Zval/r beyond r=  1.7165

VLOCAL1: 99.0% of the norm of Vloc inside     14.733 Ry
VLOCAL1: 99.9% of the norm of Vloc inside     33.577 Ry
atom: Maximum radius for 4*pi*r*r*local-pseudopot. charge    2.04484
atom: Maximum radius for r*vlocal+2*Zval:    1.75994
GHOST: No ghost state for L =  0
GHOST: No ghost state for L =  1
GHOST: No ghost state for L =  2
GHOST: No ghost state for L =  3

KBgen: Kleinman-Bylander projectors: 
   l= 0   rc=  1.897051   el= -0.693730   Ekb=  4.595746   kbcos=  0.286105
   l= 1   rc=  1.920920   el= -0.265236   Ekb= -2.350715   kbcos= -0.315747
   l= 2   rc=  2.044840   el=  0.002055   Ekb= -0.690767   kbcos= -0.013822
   l= 3   rc=  2.149707   el=  0.003188   Ekb= -0.315358   kbcos= -0.002055

KBgen: Total number of  Kleinman-Bylander projectors:   16
atom: -------------------------------------------------------------------------

atom: SANKEY-TYPE ORBITALS:
atom: Selected multiple-zeta basis: split     

SPLIT: Orbitals with angular momentum L= 0

SPLIT: Basis orbitals for state 2s

SPLIT: PAO cut-off radius determined from an
SPLIT: energy shift=  0.007350 Ry

   izeta = 1
                 lambda =    1.000000
                     rc =    5.422032
                 energy =   -0.686029
                kinetic =    0.576707
    potential(screened) =   -1.262736
       potential(ionic) =   -3.271094

   izeta = 2
                 rmatch =    4.222573
              splitnorm =    0.150000
                 energy =   -0.602132
                kinetic =    0.858975
    potential(screened) =   -1.461107
       potential(ionic) =   -3.582536

SPLIT: Orbitals with angular momentum L= 1

SPLIT: Basis orbitals for state 2p

SPLIT: PAO cut-off radius determined from an
SPLIT: energy shift=  0.007350 Ry

   izeta = 1
                 lambda =    1.000000
                     rc =    6.790259
                 energy =   -0.258578
                kinetic =    1.481412
    potential(screened) =   -1.739989
       potential(ionic) =   -3.657461

   izeta = 2
                 rmatch =    4.608740
              splitnorm =    0.150000
                 energy =   -0.173757
                kinetic =    2.186690
    potential(screened) =   -2.360447
       potential(ionic) =   -4.464260

POLgen: Perturbative polarization orbital with L=  2

POLgen: Polarization orbital for state 2p

   izeta = 1
                     rc =    6.790259
                 energy =    0.684082
                kinetic =    1.471481
    potential(screened) =   -0.787399
       potential(ionic) =   -2.406985
atom: Total number of Sankey-type orbitals: 13

atm_pop: Valence configuration (for local Pseudopot. screening):
 2s( 2.00)                                                            
 2p( 1.00)                                                            
Vna: chval, zval:    3.00000   3.00000

Vna:  Cut-off radius for the neutral-atom potential:   6.790259
comcore: Pseudo-core radius Rcore=  2.122997

atom: _________________________________________________________________________

<basis_specs>
===============================================================================
C                    Z=   6    Mass=  12.010        Charge= 0.17977+309
Lmxo=1 Lmxkb= 3    BasisType=split      Semic=F
L=0  Nsemic=0  Cnfigmx=2
          n=1  nzeta=2  polorb=0
            splnorm:   0.15000    
               vcte:    0.0000    
               rinn:    0.0000    
                rcs:    0.0000      0.0000    
            lambdas:    1.0000      1.0000    
L=1  Nsemic=0  Cnfigmx=2
          n=1  nzeta=2  polorb=1
            splnorm:   0.15000    
               vcte:    0.0000    
               rinn:    0.0000    
                rcs:    0.0000      0.0000    
            lambdas:    1.0000      1.0000    
-------------------------------------------------------------------------------
L=0  Nkbl=1  erefs: 0.17977+309
L=1  Nkbl=1  erefs: 0.17977+309
L=2  Nkbl=1  erefs: 0.17977+309
L=3  Nkbl=1  erefs: 0.17977+309
===============================================================================
</basis_specs>

atom: Called for C                     (Z =   6)

read_vps: Pseudopotential generation method:
read_vps: ATM3      Troullier-Martins                       
Total valence charge:    4.00000

read_vps: Pseudopotential includes a core correction:
read_vps: Pseudo-core for xc-correction

xc_check: Exchange-correlation functional:
xc_check: GGA Perdew, Burke & Ernzerhof 1996
V l=0 = -2*Zval/r beyond r=  1.5227
V l=1 = -2*Zval/r beyond r=  1.5227
V l=2 = -2*Zval/r beyond r=  1.5227
V l=3 = -2*Zval/r beyond r=  1.5038
All V_l potentials equal beyond r=  1.5227
This should be close to max(r_c) in ps generation
All pots = -2*Zval/r beyond r=  1.5227

VLOCAL1: 99.0% of the norm of Vloc inside     18.722 Ry
VLOCAL1: 99.9% of the norm of Vloc inside     42.668 Ry
atom: Maximum radius for 4*pi*r*r*local-pseudopot. charge    1.83678
atom: Maximum radius for r*vlocal+2*Zval:    1.58088
GHOST: No ghost state for L =  0
GHOST: No ghost state for L =  1
GHOST: No ghost state for L =  2
GHOST: No ghost state for L =  3

KBgen: Kleinman-Bylander projectors: 
   l= 0   rc=  1.704034   el= -1.009801   Ekb=  5.335044   kbcos=  0.316824
   l= 1   rc=  1.704034   el= -0.388707   Ekb= -3.785862   kbcos= -0.366464
   l= 2   rc=  1.791422   el=  0.001971   Ekb= -0.970471   kbcos= -0.009212
   l= 3   rc=  1.859892   el=  0.003065   Ekb= -0.399525   kbcos= -0.001223

KBgen: Total number of  Kleinman-Bylander projectors:   16
atom: -------------------------------------------------------------------------

atom: SANKEY-TYPE ORBITALS:
atom: Selected multiple-zeta basis: split     

SPLIT: Orbitals with angular momentum L= 0

SPLIT: Basis orbitals for state 2s

SPLIT: PAO cut-off radius determined from an
SPLIT: energy shift=  0.007350 Ry

   izeta = 1
                 lambda =    1.000000
                     rc =    4.632753
                 energy =   -1.002270
                kinetic =    0.855760
    potential(screened) =   -1.858031
       potential(ionic) =   -5.417575

   izeta = 2
                 rmatch =    3.431921
              splitnorm =    0.150000
                 energy =   -0.867111
                kinetic =    1.300804
    potential(screened) =   -2.167915
       potential(ionic) =   -5.962684

SPLIT: Orbitals with angular momentum L= 1

SPLIT: Basis orbitals for state 2p

SPLIT: PAO cut-off radius determined from an
SPLIT: energy shift=  0.007350 Ry

   izeta = 1
                 lambda =    1.000000
                     rc =    5.658549
                 energy =   -0.381140
                kinetic =    2.399701
    potential(screened) =   -2.780841
       potential(ionic) =   -6.206085

   izeta = 2
                 rmatch =    3.653288
              splitnorm =    0.150000
                 energy =   -0.249149
                kinetic =    3.542762
    potential(screened) =   -3.791911
       potential(ionic) =   -7.581078

POLgen: Perturbative polarization orbital with L=  2

POLgen: Polarization orbital for state 2p

   izeta = 1
                     rc =    5.658549
                 energy =    1.109913
                kinetic =    2.304789
    potential(screened) =   -1.194876
       potential(ionic) =   -4.013592
atom: Total number of Sankey-type orbitals: 13

atm_pop: Valence configuration (for local Pseudopot. screening):
 2s( 2.00)                                                            
 2p( 2.00)                                                            
Vna: chval, zval:    4.00000   4.00000

Vna:  Cut-off radius for the neutral-atom potential:   5.658549
comcore: Pseudo-core radius Rcore=  1.791422

atom: _________________________________________________________________________

prinput: Basis input ----------------------------------------------------------

PAO.BasisType split     

%block ChemicalSpeciesLabel
    1    5 B                       # Species index, atomic number, species label
    2    6 C                       # Species index, atomic number, species label
%endblock ChemicalSpeciesLabel

%block PAO.Basis                 # Define Basis set
B                     2                    # Species label, number of l-shells
 n=2   0   2                         # n, l, Nzeta 
   5.422      4.223   
   1.000      1.000   
 n=2   1   2 P   1                   # n, l, Nzeta, Polarization, NzetaPol
   6.790      4.609   
   1.000      1.000   
C                     2                    # Species label, number of l-shells
 n=2   0   2                         # n, l, Nzeta 
   4.633      3.432   
   1.000      1.000   
 n=2   1   2 P   1                   # n, l, Nzeta, Polarization, NzetaPol
   5.659      3.653   
   1.000      1.000   
%endblock PAO.Basis

prinput: ----------------------------------------------------------------------

coor:   Atomic-coordinates input format  =     Fractional

siesta: Atomic coordinates (Bohr) and species
siesta:     -0.02582   5.28395   0.00000  1        1
siesta:     -2.35420  38.89134   0.00000  1        2
siesta:     -2.35420  41.57980   0.00000  1        3
siesta:      2.30256  38.89134   0.00000  1        4
siesta:      2.30256  41.57980   0.00000  1        5
siesta:      2.30256   6.62836   0.00000  1        6
siesta:      2.30256   9.31683   0.00000  1        7
siesta:     -2.35420   6.62836   0.00000  1        8
siesta:     -2.35420   9.31683   0.00000  1        9
siesta:     -0.02582  10.66124   0.00000  1       10
siesta:     -2.35420  25.44831   0.00000  1       11
siesta:     -9.33934  18.72698   0.00000  1       12
siesta:     -9.33934  21.41544   0.00000  1       13
siesta:     -7.01096  22.75985   0.00000  1       14
siesta:     -7.01096  25.44831   0.00000  1       15
siesta:    -11.66772  22.75985   0.00000  1       16
siesta:    -11.66772  25.44831   0.00000  1       17
siesta:     -9.33934  26.79272   0.00000  1       18
siesta:     -9.33934  29.48119   0.00000  1       19
siesta:     -0.02582  37.54693   0.00000  1       20
siesta:     -0.02582  42.92421   0.00000  1       21
siesta:     -0.02582   2.59549   0.00000  2       22
siesta:      4.63094  34.85847   0.00000  2       23
siesta:      4.63094  37.54693   0.00000  2       24
siesta:      6.95932  30.82560   0.00000  2       25
siesta:      6.95932  33.51406   0.00000  2       26
siesta:      9.28770  26.79272   0.00000  2       27
siesta:      9.28770  29.48119   0.00000  2       28
siesta:     -4.68258  34.85847   0.00000  2       29
siesta:     -4.68258  37.54693   0.00000  2       30
siesta:      4.63094  10.66124   0.00000  2       31
siesta:      4.63094  13.34970   0.00000  2       32
siesta:      6.95932  14.69411   0.00000  2       33
siesta:      6.95932  17.38257   0.00000  2       34
siesta:      9.28770  18.72698   0.00000  2       35
siesta:      9.28770  21.41544   0.00000  2       36
siesta:     11.61608  22.75985   0.00000  2       37
siesta:     11.61608  25.44831   0.00000  2       38
siesta:     -0.02582  13.34970   0.00000  2       39
siesta:      2.30256  14.69411   0.00000  2       40
siesta:      2.30256  17.38257   0.00000  2       41
siesta:      4.63094  18.72698   0.00000  2       42
siesta:      4.63094  21.41544   0.00000  2       43
siesta:      6.95932  22.75985   0.00000  2       44
siesta:      6.95932  25.44831   0.00000  2       45
siesta:     -4.68258  10.66124   0.00000  2       46
siesta:     -4.68258  13.34970   0.00000  2       47
siesta:     -2.35420  14.69411   0.00000  2       48
siesta:     -2.35420  17.38257   0.00000  2       49
siesta:     -0.02582  18.72698   0.00000  2       50
siesta:     -0.02582  21.41544   0.00000  2       51
siesta:      2.30256  22.75985   0.00000  2       52
siesta:      2.30256  25.44831   0.00000  2       53
siesta:     -7.01096  14.69411   0.00000  2       54
siesta:     -7.01096  17.38257   0.00000  2       55
siesta:     -4.68258  18.72698   0.00000  2       56
siesta:     -4.68258  21.41544   0.00000  2       57
siesta:     -2.35420  22.75985   0.00000  2       58
siesta:      4.63094  26.79272   0.00000  2       59
siesta:      4.63094  29.48119   0.00000  2       60
siesta:     -0.02582  26.79272   0.00000  2       61
siesta:     -0.02582  29.48119   0.00000  2       62
siesta:     -4.68258  26.79272   0.00000  2       63
siesta:     -4.68258  29.48119   0.00000  2       64
siesta:      2.30256  30.82560   0.00000  2       65
siesta:      2.30256  33.51406   0.00000  2       66
siesta:     -2.35420  30.82560   0.00000  2       67
siesta:     -2.35420  33.51406   0.00000  2       68
siesta:     -7.01096  30.82560   0.00000  2       69
siesta:     -7.01096  33.51406   0.00000  2       70
siesta:     -0.02582  34.85847   0.00000  2       71
siesta:     -0.02582  45.61267   0.00000  2       72

siesta: System type = slab      

initatomlists: Number of atoms, orbitals, and projectors:     72   936  1152

siesta: ******************** Simulation parameters ****************************
siesta:
siesta: The following are some of the parameters of the simulation.
siesta: A complete list of the parameters used, including default values,
siesta: can be found in file out.fdf
siesta:
redata: Non-Collinear-spin run           =     F
redata: SpinPolarized (Up/Down) run      =     F
redata: Number of spin components        =     1
redata: Long output                      =     F
redata: Number of Atomic Species         =        2
redata: Charge density info will appear in .RHO file
redata: Write Mulliken Pop.              =     NO
redata: Mesh Cutoff                      =   200.0000  Ry
redata: Net charge of the system         =     0.0000 |e|
redata: Max. number of SCF Iter          =      500
redata: SCF convergence failure will abort job
redata: Performing Pulay mixing using    =    10 iterations
redata: Mix DM in first SCF step ?       =     F
redata: Write Pulay info on disk?        =     F
redata: Discard 1st Pulay DM after  kick =     F
redata: New DM Mixing Weight             =     0.0500
redata: New DM Occupancy tolerance       = 0.000000000001
redata: No kicks to SCF
redata: DM Mixing Weight for Kicks       =     0.5000
redata: DM Tolerance for SCF             =     0.000100
redata: Require Energy convergence for SCF =     F
redata: DM Energy tolerance for SCF      =     0.000100 eV
redata: Require Harris convergence for SCF =     F
redata: DM Harris energy tolerance for SCF =     0.000100 eV
redata: Using Saved Data (generic)   =     F
redata: Use continuation files for DM    =     T
redata: Neglect nonoverlap interactions  =     F
redata: Method of Calculation            =     Diagonalization
redata: Divide and Conquer               =     T
redata: Electronic Temperature           =     0.0019  Ry
redata: Fix the spin of the system       =     F
redata: Dynamics option                  =     Verlet MD run
redata: Initial MD time step             =        1
redata:   Final MD time step             =        1
redata: Length of MD time step           =     1.0000  fs
redata: Initial Temperature of MD run    =     0.0000  K
redata: Perform a MD quench              =     F
redata: ***********************************************************************
Total number of electrons:   267.000000
Total ionic charge:   267.000000

* ProcessorY, Blocksize:    2  24

k-point displ. along   1 input, could be:     0.50    0.00
k-point displ. along   2 input, could be:     0.50    0.00
 Kpoints in:          231 . Kpoints trimmed:          231

siesta: k-grid: Number of k-points =   231
siesta: k-grid: Cutoff (effective) =     5.000 Ang
siesta: k-grid: Supercell and displacements
siesta: k-grid:   21   0   0      0.500
siesta: k-grid:    0  21   0      0.500
siesta: k-grid:    0   0   1      0.000
Naive supercell factors:     2    2    2

superc: Internal auxiliary supercell:     2 x     2 x     2  =       8
superc: Number of atoms, orbitals, and projectors:    576   7488   9216

* Maximum dynamic memory allocated =     4 MB

siesta:                 ==============================
                            Begin MD step =      1
                        ==============================

superc: Internal auxiliary supercell:     2 x     2 x     2  =       8
superc: Number of atoms, orbitals, and projectors:    576   7488   9216

outcell: Unit cell vectors (Ang):
       12.804619    7.392750    0.000000
        0.000000   14.785500    0.000000
        0.000000    0.000000   10.000000

outcell: Cell vector modules (Ang)   :   14.785500   14.785500   10.000000
outcell: Cell angles (23,13,12) (deg):     90.0000     90.0000     60.0000
outcell: Cell volume (Ang**3)        :   1893.2269
New_DM. Step:     1
Initializing Density Matrix...

InitMesh: MESH =   120 x   120 x    90 =     1296000
InitMesh: Mesh cutoff (required, used) =   200.000   223.865 Ry

* Maximum dynamic memory allocated =   234 MB

stepf: Fermi-Dirac step function

siesta: Program's energy decomposition (eV):
siesta: Ebs     =     -5471.519657
siesta: Eions   =     15713.820136
siesta: Ena     =      4225.575666
siesta: Ekin    =      5270.679987
siesta: Enl     =       828.847067
siesta: DEna    =        -0.000008
siesta: DUscf   =         0.000000
siesta: DUext   =         0.000000
siesta: Exc     =     -4186.013332
siesta: eta*DQ  =         0.000000
siesta: Emadel  =         0.000000
siesta: Emeta   =         0.000000
siesta: Emolmec =         0.000000
siesta: Ekinion =         0.000000
siesta: Eharris =     -9430.718019
siesta: Etot    =     -9574.730755
siesta: FreeEng =     -9574.730755

siesta: iscf   Eharris(eV)      E_KS(eV)   FreeEng(eV)   dDmax  Ef(eV)
siesta:    1    -9430.7180    -9574.7308    -9574.7308  7.4484 -8.1812
timer: Routine,Calls,Time,% = IterSCF        1    4506.941  99.72
elaps: Routine,Calls,Wall,% = IterSCF        1     564.142  99.72
siesta:    2   -14587.6760    -8498.9741    -8499.0387 11.6460 -7.0766
siesta:    3    -9675.6479    -9334.7828    -9334.8094  1.7665 -4.9810
siesta:    4    -9503.5906    -9323.0657    -9323.1211  1.7476 -4.6718
siesta:    5    -9412.7562    -9307.2740    -9307.3192  1.5266 -4.6565
siesta:    6    -9404.6630    -9286.3089    -9286.3564  1.5492 -4.5102
siesta:    7    -9287.6515    -9220.4730    -9220.5167  1.1492 -4.5303
siesta:    8    -9284.3514    -9219.8006    -9219.8253  1.0474 -4.6376
siesta:    9    -9283.7604    -9219.9130    -9219.9789  1.0205 -4.5734
siesta:   10    -9277.4972    -9221.8423    -9221.8998  0.9520 -4.6992
siesta:   11    -9277.4786    -9221.9076    -9221.9600  0.9609 -4.6847
siesta:   12    -9276.5703    -9236.3957    -9236.4478  0.7876 -4.7667
siesta:   13    -9279.0299    -9240.2105    -9240.2698  0.6524 -4.5504
siesta:   14    -9275.1664    -9240.3974    -9240.4651  0.5752 -4.7007
siesta:   15    -9273.0170    -9247.5855    -9247.6404  0.4844 -4.8655
siesta:   16    -9270.5314    -9257.2452    -9257.2920  0.5486 -4.9761
siesta:   17    -9270.2342    -9256.7512    -9256.8010  0.5127 -5.0096
siesta:   18    -9270.0149    -9257.9218    -9257.9721  0.4960 -5.0384
siesta:   19    -9269.6822    -9256.5081    -9256.5657  0.4769 -5.0227
siesta:   20    -9269.6517    -9257.4723    -9257.5391  0.4230 -5.0236
siesta:   21    -9269.1408    -9258.1665    -9258.2165  0.3590 -5.0198
siesta:   22    -9269.2979    -9259.7857    -9259.8607  0.4738 -4.9659
siesta:   23    -9269.1133    -9261.5020    -9261.5598  0.1149 -5.0207
siesta:   24    -9269.0524    -9262.7552    -9262.8336  0.2827 -5.0356
siesta:   25    -9268.9792    -9265.6247    -9265.7037  0.2205 -5.0273
siesta:   26    -9268.9503    -9266.9929    -9267.0715  0.2154 -5.0288
siesta:   27    -9268.9100    -9266.5554    -9266.6349  0.0820 -5.0048
siesta:   28    -9268.9037    -9266.8563    -9266.9325  0.2057 -5.0213
siesta:   29    -9268.8820    -9267.3195    -9267.3987  0.1063 -5.0182
siesta:   30    -9268.8758    -9267.4541    -9267.5322  0.0589 -5.0133
siesta:   31    -9268.8531    -9268.1321    -9268.2082  0.1141 -5.0196
siesta:   32    -9268.8480    -9268.1179    -9268.2013  0.0485 -5.0123
siesta:   33    -9268.8510    -9268.4726    -9268.5536  0.1075 -5.0174
siesta:   34    -9268.8457    -9268.4582    -9268.5426  0.0879 -5.0168
siesta:   35    -9268.8436    -9268.3835    -9268.4671  0.0537 -5.0138
siesta:   36    -9268.8416    -9268.3807    -9268.4641  0.0524 -5.0136
siesta:   37    -9268.8415    -9268.3477    -9268.4313  0.0202 -5.0116
siesta:   38    -9268.8408    -9268.5894    -9268.6718  0.0224 -5.0135
siesta:   39    -9268.8399    -9268.8072    -9268.8885  0.0272 -5.0140
siesta:   40    -9268.8389    -9268.8986    -9268.9806  0.0039 -5.0075
siesta:   41    -9268.8390    -9268.8853    -9268.9670  0.0056 -5.0065
siesta:   42    -9268.8387    -9268.9109    -9268.9923  0.0028 -5.0070
siesta:   43    -9268.8387    -9268.9000    -9268.9817  0.0043 -5.0070
siesta:   44    -9268.8386    -9268.8834    -9268.9651  0.0012 -5.0083
siesta:   45    -9268.8385    -9268.8831    -9268.9647  0.0010 -5.0085
siesta:   46    -9268.8385    -9268.8812    -9268.9629  0.0007 -5.0084
siesta:   47    -9268.8385    -9268.8659    -9268.9476  0.0007 -5.0082
siesta:   48    -9268.8385    -9268.8583    -9268.9401  0.0002 -5.0081
siesta:   49    -9268.8385    -9268.8515    -9268.9333  0.0006 -5.0081
siesta:   50    -9268.8385    -9268.8489    -9268.9307  0.0002 -5.0082
siesta:   51    -9268.8385    -9268.8445    -9268.9263  0.0003 -5.0082
siesta:   52    -9268.8385    -9268.8426    -9268.9243  0.0001 -5.0082
siesta:   53    -9268.8385    -9268.8414    -9268.9232  0.0001 -5.0082

siesta: E_KS(eV) =            -9268.8412

siesta: E_KS - E_eggbox =     -9268.8412

siesta: Atomic forces (eV/Ang):
----------------------------------------
   Tot   -0.062190   -0.047429    0.000000
----------------------------------------
   Max  571.658343
   Res  137.200521    sqrt( Sum f_i^2 / 3N )
----------------------------------------
   Max  571.658343    constrained

Stress-tensor-Voigt (kbar):     -627.76    -2434.40       -0.63       -0.33        0.00        0.00
(Free)E + p*V (eV/cell)    -8062.5463
Target enthalpy (eV/cell)    -9268.9230

siesta: Stress tensor (static) (eV/Ang**3):
        -0.391815   -0.000209    0.000000
        -0.000209   -1.519414    0.000000
         0.000000    0.000000   -0.000391

siesta: Pressure (static):       1020.92857732  kBar

siesta: Stress tensor (total) (eV/Ang**3):
        -0.391815   -0.000209    0.000000
        -0.000209   -1.519414    0.000000
         0.000000    0.000000   -0.000391

siesta: Pressure (total):       1020.92857732  kBar

siesta: Temp_ion =       0.000 K

* Maximum dynamic memory allocated =   252 MB
Computing bands...

siesta: Program's energy decomposition (eV):
siesta: Ebs     =     -4148.795008
siesta: Eions   =     15713.820136
siesta: Ena     =      4225.575666
siesta: Ekin    =      8002.753286
siesta: Enl     =      -823.197524
siesta: DEna    =      -709.773660
siesta: DUscf   =        92.566300
siesta: DUext   =         0.000000
siesta: Exc     =     -4342.945156
siesta: eta*DQ  =         0.000000
siesta: Emadel  =         0.000000
siesta: Emeta   =         0.000000
siesta: Emolmec =         0.000000
siesta: Ekinion =         0.000000
siesta: Eharris =     -9268.838493
siesta: Etot    =     -9268.841223
siesta: FreeEng =     -9268.922965

siesta: Final energy (eV):
siesta:  Band Struct. =   -4148.795008
siesta:       Kinetic =    8002.753286
siesta:       Hartree =   25594.689546
siesta:    Ext. field =       0.000000
siesta:   Exch.-corr. =   -4342.945156
siesta:  Ion-electron =  -58951.547249
siesta:       Ion-ion =   20428.208350
siesta:       Ekinion =       0.000000
siesta:         Total =   -9268.841223

siesta: Atomic forces (eV/Ang):
siesta:      1    0.174355 -103.294149    0.000000
siesta:      2   -3.617752   99.900353    0.000000
siesta:      3    0.790375 -400.178056    0.000000
siesta:      4    3.557574  100.007371    0.000000
siesta:      5   -1.318958 -399.843006    0.000000
siesta:      6   -1.269133  399.960433    0.000000
siesta:      7    3.556937  -99.998008    0.000000
siesta:      8    0.635624  400.189230    0.000000
siesta:      9   -3.626231  -99.914391    0.000000
siesta:     10    0.064187  299.027987    0.000000
siesta:     11    1.187640    1.253790    0.000000
siesta:     12    0.281714   -4.479806    0.000000
siesta:     13   -5.433339   -0.718601    0.000000
siesta:     14    4.414032   -3.880738    0.000000
siesta:     15    4.433269    4.148939    0.000000
siesta:     16   -5.992136   -2.619820    0.000000
siesta:     17   -6.088019    2.493645    0.000000
siesta:     18   -5.381811    0.796070    0.000000
siesta:     19    0.394252    4.537784    0.000000
siesta:     20    0.091953 -299.086186    0.000000
siesta:     21    0.157934  102.990153    0.000000
siesta:     22   -0.380388  551.515526    0.000000
siesta:     23   24.820344    1.496648    0.000000
siesta:     24   20.733698 -549.577960    0.000000
siesta:     25    1.765581   -0.133111    0.000000
siesta:     26   -1.624809    3.006783    0.000000
siesta:     27    2.056622    1.647048    0.000000
siesta:     28   -0.608197    0.815760    0.000000
siesta:     29  -23.953616    2.559333    0.000000
siesta:     30  -20.775812 -549.777318    0.000000
siesta:     31   20.712703  549.555872    0.000000
siesta:     32   24.800393   -1.525127    0.000000
siesta:     33   -1.618199   -2.978247    0.000000
siesta:     34    1.755967    0.081310    0.000000
siesta:     35   -0.599500   -0.769018    0.000000
siesta:     36    1.987512   -1.664931    0.000000
siesta:     37   -0.276501    6.275650    0.000000
siesta:     38   -0.311465   -6.310929    0.000000
siesta:     39    0.155138 -126.276786    0.000000
siesta:     40   31.352261  410.452908    0.000000
siesta:     41   19.309447   -4.041169    0.000000
siesta:     42   -1.189409    1.778170    0.000000
siesta:     43    0.349920   -0.035792    0.000000
siesta:     44   -0.329521    0.556081    0.000000
siesta:     45   -0.353194   -0.539536    0.000000
siesta:     46  -20.747842  549.757973    0.000000
siesta:     47  -24.155402   -2.361630    0.000000
siesta:     48  -31.261353  411.135260    0.000000
siesta:     49  -19.598106   -4.118617    0.000000
siesta:     50    0.037256  570.850881    0.000000
siesta:     51   -0.878368    1.708110    0.000000
siesta:     52   -0.171548   -0.051934    0.000000
siesta:     53   -0.585392    0.387311    0.000000
siesta:     54    1.303492   -2.072868    0.000000
siesta:     55    0.448735   -3.628380    0.000000
siesta:     56    1.277117    2.276768    0.000000
siesta:     57    2.380404   -1.707287    0.000000
siesta:     58    1.983314   -4.834016    0.000000
siesta:     59    0.615923    0.037829    0.000000
siesta:     60   -1.236950   -1.846134    0.000000
siesta:     61    2.620422    0.385616    0.000000
siesta:     62    0.693676 -571.658343    0.000000
siesta:     63   -0.356870    3.266166    0.000000
siesta:     64    1.306675   -2.600644    0.000000
siesta:     65   19.283903    3.991877    0.000000
siesta:     66   31.262273 -410.453454    0.000000
siesta:     67  -19.533054    4.074364    0.000000
siesta:     68  -31.049926 -411.066816    0.000000
siesta:     69    0.059626    4.028333    0.000000
siesta:     70    1.223283    1.827679    0.000000
siesta:     71    0.070272  126.044699    0.000000
siesta:     72    0.154805 -550.824326    0.000000
siesta: ----------------------------------------
siesta:    Tot   -0.062190   -0.047429    0.000000

siesta: Stress tensor (static) (eV/Ang**3):
siesta:    -0.391815   -0.000209    0.000000
siesta:    -0.000209   -1.519414    0.000000
siesta:     0.000000    0.000000   -0.000391

siesta: Cell volume =       1893.226884 Ang**3

siesta: Pressure (static):
siesta:                Solid            Molecule  Units
siesta:           0.00693999          0.10488178  Ry/Bohr**3
siesta:           0.63720661          9.62988810  eV/Ang**3
siesta:        1020.92857732      15428.94846399  kBar
(Free)E+ p_basis*V_orbitals  =       -9231.550326
(Free)Eharris+ p_basis*V_orbitals  =       -9231.547391

siesta: Electric dipole (a.u.)  =    0.000000    0.000000    0.000000
siesta: Electric dipole (Debye) =    0.000000    0.000000    0.000000

* Maximum dynamic memory allocated : Node    0 =   252 MB
* Maximum dynamic memory allocated : Node    1 =    88 MB
* Maximum dynamic memory allocated : Node    2 =    92 MB
* Maximum dynamic memory allocated : Node    3 =   238 MB
* Maximum dynamic memory allocated : Node    4 =   222 MB
* Maximum dynamic memory allocated : Node    5 =    82 MB
* Maximum dynamic memory allocated : Node    6 =    83 MB
* Maximum dynamic memory allocated : Node    7 =   204 MB

* Maximum memory occured during matrixMtoO                    

timer: CPU execution times:
timer:  Routine       Calls   Time/call    Tot.time        %
timer:  siesta            1  235179.736  235179.736   100.00
timer:  Setup             1       3.874       3.874     0.00
timer:  bands             3     268.786     806.358     0.34
timer:  writewave         1       0.041       0.041     0.00
timer:  KSV_init          1       0.008       0.008     0.00
timer:  IterMD            1  234363.786  234363.786    99.65
timer:  hsparse           1       0.395       0.395     0.00
timer:  overlap           1       7.785       7.785     0.00
timer:  IterSCF          53    4417.326  234118.284    99.55
timer:  kinefsm           2       4.039       8.078     0.00
timer:  nlefsm            2      21.767      43.534     0.02
timer:  DHSCF            54     131.107    7079.779     3.01
timer:  DHSCF1            1       1.003       1.003     0.00
timer:  DHSCF2            1      47.217      47.217     0.02
timer:  REORD           434       0.010       4.224     0.00
timer:  POISON           55       2.230     122.670     0.05
timer:  DHSCF3           54     129.350    6984.919     2.97
timer:  rhoofd           54      26.126    1410.780     0.60
timer:  cellXC           54       3.538     191.036     0.08
timer:  vmat             54      63.521    3430.157     1.46
timer:  MolMec            2       0.000       0.000     0.00
timer:  diagon           53    4284.529  227080.024    96.56
timer:  c-eigval      12364       6.673   82510.058    35.08
timer:  c-buildHS     12364       0.123    1522.441     0.65
timer:  cdiag         24607       6.881  169316.838    71.99
timer:  cdiag1        24607       0.428   10523.636     4.47
timer:  cdiag2        24607       1.912   47059.423    20.01
timer:  cdiag3        24607       3.931   96729.744    41.13
timer:  cdiag4        24607       0.224    5514.285     2.34
timer:  c-eigvec      12243       7.286   89207.964    37.93
timer:  c-buildD      12243       4.582   56101.494    23.85
timer:  DHSCF4            1      43.748      43.748     0.02
timer:  dfscf             1      41.047      41.047     0.02
timer:  overfsm           1       0.477       0.477     0.00
timer:  optical           1       5.018       5.018     0.00
  

elaps: ELAPSED times:
elaps:  Routine       Calls   Time/call    Tot.time        %
elaps:  siesta            1   29432.581   29432.581   100.00
elaps:  Setup             1       0.501       0.501     0.00
elaps:  bands             3      33.651     100.952     0.34
elaps:  writewave         1       0.006       0.006     0.00
elaps:  KSV_init          1       0.001       0.001     0.00
elaps:  IterMD            1   29330.465   29330.465    99.65
elaps:  hsparse           1       0.050       0.050     0.00
elaps:  overlap           1       0.979       0.979     0.00
elaps:  IterSCF          53     552.828   29299.888    99.55
elaps:  kinefsm           2       0.511       1.021     0.00
elaps:  nlefsm            2       2.894       5.788     0.02
elaps:  DHSCF            54      16.511     891.600     3.03
elaps:  DHSCF1            1       0.130       0.130     0.00
elaps:  DHSCF2            1       5.904       5.904     0.02
elaps:  REORD           434       0.001       0.574     0.00
elaps:  POISON           55       0.279      15.362     0.05
elaps:  DHSCF3           54      16.182     873.824     2.97
elaps:  rhoofd           54       7.318     395.155     1.34
elaps:  cellXC           54       0.442      23.847     0.08
elaps:  vmat             54       7.946     429.102     1.46
elaps:  MolMec            2       0.000       0.000     0.00
elaps:  diagon           53     536.228   28420.077    96.56
elaps:  c-eigval      12364       0.835   10323.564    35.08
elaps:  c-buildHS     12364       0.017     209.689     0.71
elaps:  cdiag         24607       0.847   20838.269    70.80
elaps:  cdiag1        24607       0.053    1313.221     4.46
elaps:  cdiag2        24607       0.239    5888.143    20.01
elaps:  cdiag3        24607       0.493   12119.611    41.18
elaps:  cdiag4        24607       0.029     704.313     2.39
elaps:  c-eigvec      12243       0.887   10864.423    36.91
elaps:  c-buildD      12243       0.598    7323.057    24.88
elaps:  DHSCF4            1      11.349      11.349     0.04
elaps:  dfscf             1      10.808      10.808     0.04
elaps:  overfsm           1       0.061       0.061     0.00
elaps:  optical           1       0.001       0.001     0.00
  
>> End of run:  28-APR-2016   5:28:45
