Siesta Version:                                        siesta-3.2-pl-3
Architecture  : x86_64-unknown-linux-gnu--unknown
Compiler flags: mpiifort -g -O2 -fPIC -xSSE4.1 -fp-model source -shared-intel 
PARALLEL version

* Running on   12 nodes in parallel
>> Start of run:   7-MAY-2016  11:26:43

                           ***********************       
                           *  WELCOME TO SIESTA  *       
                           ***********************       

reinit: Reading from standard input
************************** Dump of input data file ****************************
#(1) General system descriptors
SystemName            GRP_doping    # Descriptive name of the system
SystemLabel           GRP_doping    # Short name for naming files
%include STRUCT.fdf
%include KPT.fdf
%include BASIS.fdf
#%include TS.fdf # for transiesta calculation
#(4) DFT, Grid, SCF
XC.functional         GGA           # LDA or GGA (default = LDA)
XC.authors            PBE           # CA (Ceperley-Aldr) = PZ
                                    #    (Perdew-Zunger) - LDA - Default
                                    # PW92 (Perdew-Wang-92) - LDA
                                    # PBE (Perdew-Burke-Ernzerhof) - GGA
MeshCutoff            200.000000    Ry      # Default: 50.0 Ry ~ 0.444 Bohr
                                    #         100.0 Ry ~ 0.314 Bohr
MaxSCFIterations      500           # Default: 50
DM.MixingWeight       0.05          # Default: 0.25
DM.NumberPulay        10            # Default: 0
DM.PulayOnFile        F             # SystemLabel.P1, SystemLabel.P2
DM.Tolerance          1.d-4         # Default: 1.d-4
DM.UseSaveDM          .true.        # because of the bug
SCFMustConverge       .true.
NeglNonOverlapInt     F             # Default: F
#(5) Eigenvalue problem: order-N or diagonalization
SolutionMethod        Diagon        # or Transiesta
ElectronicTemperature 300.0 K       # Default: 300.0 K
#(6) Molecular dynamics and relaxations
#MD.TypeOfRun          CG            # Type of dynamics:
#MD.VariableCell       F
#MD.NumCGsteps         0           # 0 for single-point / 100 for gopt
#MD.MaxCGDispl         0.2 Bohr      # Default: 0.2 Bohr
#MD.MaxForceTol        0.02 eV/Ang   # Default: 0.04 eV/Ang
#MD.MaxStressTol       1.0 GPa       # Default: 1.0 GPa
# Geometry Constraints
#%block GeometryConstraints
#	position from 1 to 44
#%endblock GeometryConstraints
BandLinesScale   pi/a
%block BandLines
 1   0.00000000  0.00000000  0.00000000
50   0.00000000  0.07809418  0.00000000
50   0.04509075  0.07809242  0.00000000
20   0.00000000  0.00000000  0.00000000
%endblock BandLines
************************** End of input data file *****************************

reinit: -----------------------------------------------------------------------
reinit: System Name: GRP_doping
reinit: -----------------------------------------------------------------------
reinit: System Label: GRP_doping                                                  
reinit: -----------------------------------------------------------------------

initatom: Reading input for the pseudopotentials and atomic orbitals ----------
 Species number:            1  Label: N Atomic number:           7
 Species number:            2  Label: C Atomic number:           6
Ground state valence configuration:   2s02  2p03
Reading pseudopotential information in formatted form from N.psf

Valence configuration for pseudopotential generation:
2s( 2.00) rc: 1.48
2p( 3.00) rc: 1.48
3d( 0.00) rc: 1.48
4f( 0.00) rc: 1.48
Ground state valence configuration:   2s02  2p02
Reading pseudopotential information in formatted form from C.psf

Valence configuration for pseudopotential generation:
2s( 2.00) rc: 1.54
2p( 2.00) rc: 1.54
3d( 0.00) rc: 1.54
4f( 0.00) rc: 1.54
For N, standard SIESTA heuristics set lmxkb to 3
 (one more than the basis l, including polarization orbitals).
Use PS.lmax or PS.KBprojectors blocks to override.
For C, standard SIESTA heuristics set lmxkb to 3
 (one more than the basis l, including polarization orbitals).
Use PS.lmax or PS.KBprojectors blocks to override.

<basis_specs>
===============================================================================
N                    Z=   7    Mass=  14.010        Charge= 0.17977+309
Lmxo=1 Lmxkb= 3    BasisType=split      Semic=F
L=0  Nsemic=0  Cnfigmx=2
          n=1  nzeta=2  polorb=0
            splnorm:   0.15000    
               vcte:    0.0000    
               rinn:    0.0000    
                rcs:    0.0000      0.0000    
            lambdas:    1.0000      1.0000    
L=1  Nsemic=0  Cnfigmx=2
          n=1  nzeta=2  polorb=1
            splnorm:   0.15000    
               vcte:    0.0000    
               rinn:    0.0000    
                rcs:    0.0000      0.0000    
            lambdas:    1.0000      1.0000    
-------------------------------------------------------------------------------
L=0  Nkbl=1  erefs: 0.17977+309
L=1  Nkbl=1  erefs: 0.17977+309
L=2  Nkbl=1  erefs: 0.17977+309
L=3  Nkbl=1  erefs: 0.17977+309
===============================================================================
</basis_specs>

atom: Called for N                     (Z =   7)

read_vps: Pseudopotential generation method:
read_vps: ATM3      Troullier-Martins                       
Total valence charge:    5.00000

read_vps: Pseudopotential includes a core correction:
read_vps: Pseudo-core for xc-correction

xc_check: Exchange-correlation functional:
xc_check: GGA Perdew, Burke & Ernzerhof 1996
V l=0 = -2*Zval/r beyond r=  1.4606
V l=1 = -2*Zval/r beyond r=  1.4606
V l=2 = -2*Zval/r beyond r=  1.4606
V l=3 = -2*Zval/r beyond r=  1.4606
All V_l potentials equal beyond r=  1.4606
This should be close to max(r_c) in ps generation
All pots = -2*Zval/r beyond r=  1.4606

VLOCAL1: 99.0% of the norm of Vloc inside     20.347 Ry
VLOCAL1: 99.9% of the norm of Vloc inside     46.372 Ry
atom: Maximum radius for 4*pi*r*r*local-pseudopot. charge    1.76189
atom: Maximum radius for r*vlocal+2*Zval:    1.53550
GHOST: No ghost state for L =  0
GHOST: No ghost state for L =  1
GHOST: No ghost state for L =  2
GHOST: No ghost state for L =  3

KBgen: Kleinman-Bylander projectors: 
   l= 0   rc=  1.634559   el= -1.363963   Ekb=  5.296955   kbcos=  0.335621
   l= 1   rc=  1.614250   el= -0.521451   Ekb= -5.259161   kbcos= -0.433408
   l= 2   rc=  1.718383   el=  0.001991   Ekb= -1.271464   kbcos= -0.007566
   l= 3   rc=  1.761893   el=  0.003093   Ekb= -0.494769   kbcos= -0.001015

KBgen: Total number of  Kleinman-Bylander projectors:   16
atom: -------------------------------------------------------------------------

atom: SANKEY-TYPE ORBITALS:
atom: Selected multiple-zeta basis: split     

SPLIT: Orbitals with angular momentum L= 0

SPLIT: Basis orbitals for state 2s

SPLIT: PAO cut-off radius determined from an
SPLIT: energy shift=  0.007350 Ry

   izeta = 1
                 lambda =    1.000000
                     rc =    4.071465
                 energy =   -1.356470
                kinetic =    1.176977
    potential(screened) =   -2.533447
       potential(ionic) =   -8.057990

   izeta = 2
                 rmatch =    2.905100
              splitnorm =    0.150000
                 energy =   -1.158343
                kinetic =    1.813009
    potential(screened) =   -2.971352
       potential(ionic) =   -8.901931

SPLIT: Orbitals with angular momentum L= 1

SPLIT: Basis orbitals for state 2p

SPLIT: PAO cut-off radius determined from an
SPLIT: energy shift=  0.007350 Ry

   izeta = 1
                 lambda =    1.000000
                     rc =    4.972977
                 energy =   -0.513884
                kinetic =    3.441732
    potential(screened) =   -3.955616
       potential(ionic) =   -9.287901

   izeta = 2
                 rmatch =    3.054066
              splitnorm =    0.150000
                 energy =   -0.318226
                kinetic =    5.125348
    potential(screened) =   -5.443573
       potential(ionic) =  -11.380999

POLgen: Perturbative polarization orbital with L=  2

POLgen: Polarization orbital for state 2p

   izeta = 1
                     rc =    4.972977
                 energy =    1.607437
                kinetic =    3.268125
    potential(screened) =   -1.660688
       potential(ionic) =   -5.973652
atom: Total number of Sankey-type orbitals: 13

atm_pop: Valence configuration (for local Pseudopot. screening):
 2s( 2.00)                                                            
 2p( 3.00)                                                            
Vna: chval, zval:    5.00000   5.00000

Vna:  Cut-off radius for the neutral-atom potential:   4.972977
comcore: Pseudo-core radius Rcore=  1.554824

atom: _________________________________________________________________________

<basis_specs>
===============================================================================
C                    Z=   6    Mass=  12.010        Charge= 0.17977+309
Lmxo=1 Lmxkb= 3    BasisType=split      Semic=F
L=0  Nsemic=0  Cnfigmx=2
          n=1  nzeta=2  polorb=0
            splnorm:   0.15000    
               vcte:    0.0000    
               rinn:    0.0000    
                rcs:    0.0000      0.0000    
            lambdas:    1.0000      1.0000    
L=1  Nsemic=0  Cnfigmx=2
          n=1  nzeta=2  polorb=1
            splnorm:   0.15000    
               vcte:    0.0000    
               rinn:    0.0000    
                rcs:    0.0000      0.0000    
            lambdas:    1.0000      1.0000    
-------------------------------------------------------------------------------
L=0  Nkbl=1  erefs: 0.17977+309
L=1  Nkbl=1  erefs: 0.17977+309
L=2  Nkbl=1  erefs: 0.17977+309
L=3  Nkbl=1  erefs: 0.17977+309
===============================================================================
</basis_specs>

atom: Called for C                     (Z =   6)

read_vps: Pseudopotential generation method:
read_vps: ATM3      Troullier-Martins                       
Total valence charge:    4.00000

read_vps: Pseudopotential includes a core correction:
read_vps: Pseudo-core for xc-correction

xc_check: Exchange-correlation functional:
xc_check: GGA Perdew, Burke & Ernzerhof 1996
V l=0 = -2*Zval/r beyond r=  1.5227
V l=1 = -2*Zval/r beyond r=  1.5227
V l=2 = -2*Zval/r beyond r=  1.5227
V l=3 = -2*Zval/r beyond r=  1.5038
All V_l potentials equal beyond r=  1.5227
This should be close to max(r_c) in ps generation
All pots = -2*Zval/r beyond r=  1.5227

VLOCAL1: 99.0% of the norm of Vloc inside     18.722 Ry
VLOCAL1: 99.9% of the norm of Vloc inside     42.668 Ry
atom: Maximum radius for 4*pi*r*r*local-pseudopot. charge    1.83678
atom: Maximum radius for r*vlocal+2*Zval:    1.58088
GHOST: No ghost state for L =  0
GHOST: No ghost state for L =  1
GHOST: No ghost state for L =  2
GHOST: No ghost state for L =  3

KBgen: Kleinman-Bylander projectors: 
   l= 0   rc=  1.704034   el= -1.009801   Ekb=  5.335044   kbcos=  0.316824
   l= 1   rc=  1.704034   el= -0.388707   Ekb= -3.785862   kbcos= -0.366464
   l= 2   rc=  1.791422   el=  0.001971   Ekb= -0.970471   kbcos= -0.009212
   l= 3   rc=  1.859892   el=  0.003065   Ekb= -0.399525   kbcos= -0.001223

KBgen: Total number of  Kleinman-Bylander projectors:   16
atom: -------------------------------------------------------------------------

atom: SANKEY-TYPE ORBITALS:
atom: Selected multiple-zeta basis: split     

SPLIT: Orbitals with angular momentum L= 0

SPLIT: Basis orbitals for state 2s

SPLIT: PAO cut-off radius determined from an
SPLIT: energy shift=  0.007350 Ry

   izeta = 1
                 lambda =    1.000000
                     rc =    4.632753
                 energy =   -1.002270
                kinetic =    0.855760
    potential(screened) =   -1.858031
       potential(ionic) =   -5.417575

   izeta = 2
                 rmatch =    3.431921
              splitnorm =    0.150000
                 energy =   -0.867111
                kinetic =    1.300804
    potential(screened) =   -2.167915
       potential(ionic) =   -5.962684

SPLIT: Orbitals with angular momentum L= 1

SPLIT: Basis orbitals for state 2p

SPLIT: PAO cut-off radius determined from an
SPLIT: energy shift=  0.007350 Ry

   izeta = 1
                 lambda =    1.000000
                     rc =    5.658549
                 energy =   -0.381140
                kinetic =    2.399701
    potential(screened) =   -2.780841
       potential(ionic) =   -6.206085

   izeta = 2
                 rmatch =    3.653288
              splitnorm =    0.150000
                 energy =   -0.249149
                kinetic =    3.542762
    potential(screened) =   -3.791911
       potential(ionic) =   -7.581078

POLgen: Perturbative polarization orbital with L=  2

POLgen: Polarization orbital for state 2p

   izeta = 1
                     rc =    5.658549
                 energy =    1.109913
                kinetic =    2.304789
    potential(screened) =   -1.194876
       potential(ionic) =   -4.013592
atom: Total number of Sankey-type orbitals: 13

atm_pop: Valence configuration (for local Pseudopot. screening):
 2s( 2.00)                                                            
 2p( 2.00)                                                            
Vna: chval, zval:    4.00000   4.00000

Vna:  Cut-off radius for the neutral-atom potential:   5.658549
comcore: Pseudo-core radius Rcore=  1.791422

atom: _________________________________________________________________________

prinput: Basis input ----------------------------------------------------------

PAO.BasisType split     

%block ChemicalSpeciesLabel
    1    7 N                       # Species index, atomic number, species label
    2    6 C                       # Species index, atomic number, species label
%endblock ChemicalSpeciesLabel

%block PAO.Basis                 # Define Basis set
N                     2                    # Species label, number of l-shells
 n=2   0   2                         # n, l, Nzeta 
   4.071      2.905   
   1.000      1.000   
 n=2   1   2 P   1                   # n, l, Nzeta, Polarization, NzetaPol
   4.973      3.054   
   1.000      1.000   
C                     2                    # Species label, number of l-shells
 n=2   0   2                         # n, l, Nzeta 
   4.633      3.432   
   1.000      1.000   
 n=2   1   2 P   1                   # n, l, Nzeta, Polarization, NzetaPol
   5.659      3.653   
   1.000      1.000   
%endblock PAO.Basis

prinput: ----------------------------------------------------------------------

coor:   Atomic-coordinates input format  =     Fractional

siesta: Atomic coordinates (Bohr) and species
siesta:     -2.35420  38.89134   0.00000  1        1
siesta:      2.30256  38.89134   0.00000  1        2
siesta:     -4.68258  37.54693   0.00000  1        3
siesta:     -0.02582  18.72698   0.00000  1        4
siesta:     -0.02582  21.41544   0.00000  1        5
siesta:      2.30256  22.75985   0.00000  1        6
siesta:     -2.35420  22.75985   0.00000  1        7
siesta:     -2.35420  25.44831   0.00000  1        8
siesta:     -0.02582  34.85847   0.00000  1        9
siesta:     -0.02582  37.54693   0.00000  1       10
siesta:     -0.02582   2.59549   0.00000  2       11
siesta:     -0.02582   5.28395   0.00000  2       12
siesta:     -2.35420  41.57980   0.00000  2       13
siesta:      2.30256  41.57980   0.00000  2       14
siesta:      4.63094  34.85847   0.00000  2       15
siesta:      4.63094  37.54693   0.00000  2       16
siesta:      6.95932  30.82560   0.00000  2       17
siesta:      6.95932  33.51406   0.00000  2       18
siesta:      9.28770  26.79272   0.00000  2       19
siesta:      9.28770  29.48119   0.00000  2       20
siesta:     -4.68258  34.85847   0.00000  2       21
siesta:      2.30256   6.62836   0.00000  2       22
siesta:      2.30256   9.31683   0.00000  2       23
siesta:      4.63094  10.66124   0.00000  2       24
siesta:      4.63094  13.34970   0.00000  2       25
siesta:      6.95932  14.69411   0.00000  2       26
siesta:      6.95932  17.38257   0.00000  2       27
siesta:      9.28770  18.72698   0.00000  2       28
siesta:      9.28770  21.41544   0.00000  2       29
siesta:     11.61608  22.75985   0.00000  2       30
siesta:     11.61608  25.44831   0.00000  2       31
siesta:     -2.35420   6.62836   0.00000  2       32
siesta:     -2.35420   9.31683   0.00000  2       33
siesta:     -0.02582  10.66124   0.00000  2       34
siesta:     -0.02582  13.34970   0.00000  2       35
siesta:      2.30256  14.69411   0.00000  2       36
siesta:      2.30256  17.38257   0.00000  2       37
siesta:      4.63094  18.72698   0.00000  2       38
siesta:      4.63094  21.41544   0.00000  2       39
siesta:      6.95932  22.75985   0.00000  2       40
siesta:      6.95932  25.44831   0.00000  2       41
siesta:     -4.68258  10.66124   0.00000  2       42
siesta:     -4.68258  13.34970   0.00000  2       43
siesta:     -2.35420  14.69411   0.00000  2       44
siesta:     -2.35420  17.38257   0.00000  2       45
siesta:      2.30256  25.44831   0.00000  2       46
siesta:     -7.01096  14.69411   0.00000  2       47
siesta:     -7.01096  17.38257   0.00000  2       48
siesta:     -4.68258  18.72698   0.00000  2       49
siesta:     -4.68258  21.41544   0.00000  2       50
siesta:     -9.33934  18.72698   0.00000  2       51
siesta:     -9.33934  21.41544   0.00000  2       52
siesta:     -7.01096  22.75985   0.00000  2       53
siesta:     -7.01096  25.44831   0.00000  2       54
siesta:    -11.66772  22.75985   0.00000  2       55
siesta:    -11.66772  25.44831   0.00000  2       56
siesta:     -9.33934  26.79272   0.00000  2       57
siesta:     -9.33934  29.48119   0.00000  2       58
siesta:      4.63094  26.79272   0.00000  2       59
siesta:      4.63094  29.48119   0.00000  2       60
siesta:     -0.02582  26.79272   0.00000  2       61
siesta:     -0.02582  29.48119   0.00000  2       62
siesta:     -4.68258  26.79272   0.00000  2       63
siesta:     -4.68258  29.48119   0.00000  2       64
siesta:      2.30256  30.82560   0.00000  2       65
siesta:      2.30256  33.51406   0.00000  2       66
siesta:     -2.35420  30.82560   0.00000  2       67
siesta:     -2.35420  33.51406   0.00000  2       68
siesta:     -7.01096  30.82560   0.00000  2       69
siesta:     -7.01096  33.51406   0.00000  2       70
siesta:     -0.02582  42.92421   0.00000  2       71
siesta:     -0.02582  45.61267   0.00000  2       72

siesta: System type = slab      

initatomlists: Number of atoms, orbitals, and projectors:     72   936  1152

siesta: ******************** Simulation parameters ****************************
siesta:
siesta: The following are some of the parameters of the simulation.
siesta: A complete list of the parameters used, including default values,
siesta: can be found in file out.fdf
siesta:
redata: Non-Collinear-spin run           =     F
redata: SpinPolarized (Up/Down) run      =     F
redata: Number of spin components        =     1
redata: Long output                      =     F
redata: Number of Atomic Species         =        2
redata: Charge density info will appear in .RHO file
redata: Write Mulliken Pop.              =     NO
redata: Mesh Cutoff                      =   200.0000  Ry
redata: Net charge of the system         =     0.0000 |e|
redata: Max. number of SCF Iter          =      500
redata: SCF convergence failure will abort job
redata: Performing Pulay mixing using    =    10 iterations
redata: Mix DM in first SCF step ?       =     F
redata: Write Pulay info on disk?        =     F
redata: Discard 1st Pulay DM after  kick =     F
redata: New DM Mixing Weight             =     0.0500
redata: New DM Occupancy tolerance       = 0.000000000001
redata: No kicks to SCF
redata: DM Mixing Weight for Kicks       =     0.5000
redata: DM Tolerance for SCF             =     0.000100
redata: Require Energy convergence for SCF =     F
redata: DM Energy tolerance for SCF      =     0.000100 eV
redata: Require Harris convergence for SCF =     F
redata: DM Harris energy tolerance for SCF =     0.000100 eV
redata: Using Saved Data (generic)   =     F
redata: Use continuation files for DM    =     T
redata: Neglect nonoverlap interactions  =     F
redata: Method of Calculation            =     Diagonalization
redata: Divide and Conquer               =     T
redata: Electronic Temperature           =     0.0019  Ry
redata: Fix the spin of the system       =     F
redata: Dynamics option                  =     Verlet MD run
redata: Initial MD time step             =        1
redata:   Final MD time step             =        1
redata: Length of MD time step           =     1.0000  fs
redata: Initial Temperature of MD run    =     0.0000  K
redata: Perform a MD quench              =     F
redata: ***********************************************************************
Total number of electrons:   298.000000
Total ionic charge:   298.000000

* ProcessorY, Blocksize:    3  24

k-point displ. along   1 input, could be:     0.50    0.00
k-point displ. along   2 input, could be:     0.50    0.00
 Kpoints in:          231 . Kpoints trimmed:          231

siesta: k-grid: Number of k-points =   231
siesta: k-grid: Cutoff (effective) =     5.000 Ang
siesta: k-grid: Supercell and displacements
siesta: k-grid:   21   0   0      0.500
siesta: k-grid:    0  21   0      0.500
siesta: k-grid:    0   0   1      0.000
Naive supercell factors:     2    2    2

superc: Internal auxiliary supercell:     2 x     2 x     2  =       8
superc: Number of atoms, orbitals, and projectors:    576   7488   9216

* Maximum dynamic memory allocated =     4 MB

siesta:                 ==============================
                            Begin MD step =      1
                        ==============================

superc: Internal auxiliary supercell:     2 x     2 x     2  =       8
superc: Number of atoms, orbitals, and projectors:    576   7488   9216

outcell: Unit cell vectors (Ang):
       12.804619    7.392750    0.000000
        0.000000   14.785500    0.000000
        0.000000    0.000000   10.000000

outcell: Cell vector modules (Ang)   :   14.785500   14.785500   10.000000
outcell: Cell angles (23,13,12) (deg):     90.0000     90.0000     60.0000
outcell: Cell volume (Ang**3)        :   1893.2269
New_DM. Step:     1
Initializing Density Matrix...

InitMesh: MESH =   120 x   120 x    90 =     1296000
InitMesh: Mesh cutoff (required, used) =   200.000   223.865 Ry

* Maximum dynamic memory allocated =   137 MB

stepf: Fermi-Dirac step function

siesta: Program's energy decomposition (eV):
siesta: Ebs     =     -6107.909022
siesta: Eions   =     20010.479513
siesta: Ena     =      4824.875284
siesta: Ekin    =      7217.402668
siesta: Enl     =       323.873832
siesta: DEna    =        -0.000015
siesta: DUscf   =         0.000000
siesta: DUext   =         0.000000
siesta: Exc     =     -4424.175360
siesta: eta*DQ  =         0.000000
siesta: Emadel  =         0.000000
siesta: Emeta   =         0.000000
siesta: Emolmec =         0.000000
siesta: Ekinion =         0.000000
siesta: Eharris =    -11704.363949
siesta: Etot    =    -12068.503104
siesta: FreeEng =    -12068.503104

siesta: iscf   Eharris(eV)      E_KS(eV)   FreeEng(eV)   dDmax  Ef(eV)
siesta:    1   -11704.3639   -12068.5031   -12068.5031  8.7297 -7.3050
timer: Routine,Calls,Time,% = IterSCF        1    3005.381  99.59
elaps: Routine,Calls,Wall,% = IterSCF        1     251.042  99.59
siesta:    2   -15323.9620   -11146.5213   -11146.5217 14.2220 -2.6769
siesta:    3   -11637.4939   -11840.2705   -11840.3450  2.6192 -5.0241
siesta:    4   -11594.3765   -11720.2870   -11720.2921  1.1363 -4.3742
siesta:    5   -11563.7445   -11653.1618   -11653.1994  1.1613 -4.2514
siesta:    6   -11558.5065   -11637.3328   -11637.3983  0.8714 -4.1882
siesta:    7   -11556.2706   -11627.2504   -11627.2711  0.9071 -4.1802
siesta:    8   -11553.2581   -11612.4443   -11612.5206  0.6642 -4.2419
siesta:    9   -11552.1838   -11593.4350   -11593.4745  0.5454 -4.2216
siesta:   10   -11552.5981   -11570.3492   -11570.3917  0.5342 -4.2373
siesta:   11   -11552.1823   -11559.4137   -11559.4488  0.4936 -4.2133
siesta:   12   -11552.0782   -11544.9812   -11545.0384  0.2843 -4.1875
siesta:   13   -11551.6592   -11542.2327   -11542.2897  0.2046 -4.1895
siesta:   14   -11551.3825   -11543.1284   -11543.1897  0.1064 -4.2284
siesta:   15   -11551.1893   -11542.7480   -11542.8066  0.0702 -4.2450
siesta:   16   -11551.1201   -11542.6293   -11542.6858  0.0552 -4.2592
siesta:   17   -11551.0886   -11544.1410   -11544.1938  0.0442 -4.2472
siesta:   18   -11551.0848   -11544.9435   -11544.9990  0.0347 -4.2563
siesta:   19   -11551.0756   -11546.9159   -11546.9697  0.0241 -4.2589
siesta:   20   -11551.0743   -11547.8851   -11547.9394  0.0211 -4.2629
siesta:   21   -11550.1530   -11549.3495   -11549.4045  0.2476 -4.2706
siesta:   22   -11551.0729   -11548.8457   -11548.8997  0.0125 -4.2684
siesta:   23   -11551.0697   -11550.0027   -11550.0570  0.0076 -4.2683
siesta:   24   -11551.0680   -11550.7257   -11550.7801  0.0117 -4.2661
siesta:   25   -11551.0678   -11550.8172   -11550.8721  0.0103 -4.2661
siesta:   26   -11550.1541   -11550.9760   -11551.0306  0.2421 -4.2666
siesta:   27   -11551.0677   -11550.9893   -11551.0437  0.0054 -4.2663
siesta:   28   -11551.0679   -11550.9772   -11551.0316  0.0050 -4.2654
siesta:   29   -11551.0676   -11550.9910   -11551.0452  0.0021 -4.2635
siesta:   30   -11551.0675   -11551.0245   -11551.0788  0.0013 -4.2630
siesta:   31   -11551.0674   -11551.0679   -11551.1223  0.0011 -4.2630
siesta:   32   -11551.0674   -11551.0866   -11551.1411  0.0007 -4.2633
siesta:   33   -11551.0674   -11551.1031   -11551.1576  0.0005 -4.2634
siesta:   34   -11550.1462   -11551.1027   -11551.1572  0.2489 -4.2638
siesta:   35   -11551.0674   -11551.1013   -11551.1557  0.0004 -4.2634
siesta:   36   -11551.0674   -11551.0839   -11551.1384  0.0003 -4.2634
siesta:   37   -11550.1518   -11551.0683   -11551.1228  0.2436 -4.2638
siesta:   38   -11549.2295   -11551.0805   -11551.1350  0.4929 -4.2641
siesta:   39   -11549.2277   -11551.0806   -11551.1350  0.4937 -4.2641
siesta:   40   -11550.1486   -11551.0808   -11551.1352  0.2448 -4.2638
siesta:   41   -11550.1486   -11551.0802   -11551.1347  0.2448 -4.2638
siesta:   42   -11550.1486   -11551.0804   -11551.1349  0.2447 -4.2638
siesta:   43   -11550.1464   -11551.0796   -11551.1340  0.2493 -4.2638
siesta:   44   -11550.1484   -11551.0801   -11551.1345  0.2484 -4.2638
siesta:   45   -11549.2299   -11551.0801   -11551.1346  0.4926 -4.2641
siesta:   46   -11551.0674   -11551.0835   -11551.1380  0.0002 -4.2634
siesta:   47   -11550.1486   -11551.0826   -11551.1370  0.2481 -4.2638
siesta:   48   -11550.1486   -11551.0826   -11551.1370  0.2481 -4.2638
siesta:   49   -11550.1487   -11551.0829   -11551.1373  0.2480 -4.2638
siesta:   50   -11549.2295   -11551.0822   -11551.1367  0.4930 -4.2641
siesta:   51   -11551.0675   -11550.9896   -11551.0440  0.0244 -4.2637
siesta:   52   -11551.0674   -11551.0853   -11551.1397  0.0011 -4.2634
siesta:   53   -11551.0674   -11551.0880   -11551.1425  0.0026 -4.2634
siesta:   54   -11551.0674   -11551.0845   -11551.1389  0.0023 -4.2635
siesta:   55   -11551.0674   -11551.0792   -11551.1337  0.0018 -4.2635
siesta:   56   -11551.0674   -11551.0767   -11551.1312  0.0015 -4.2635
siesta:   57   -11551.0674   -11551.0740   -11551.1285  0.0012 -4.2635
siesta:   58   -11550.1457   -11551.0708   -11551.1252  0.2447 -4.2639
siesta:   59   -11550.1457   -11551.0708   -11551.1253  0.2447 -4.2639
siesta:   60   -11551.0674   -11551.0707   -11551.1252  0.0005 -4.2635
siesta:   61   -11551.0674   -11551.0684   -11551.1228  0.0000 -4.2635

siesta: E_KS(eV) =           -11551.0684

siesta: E_KS - E_eggbox =    -11551.0684

siesta: Atomic forces (eV/Ang):
----------------------------------------
   Tot   -0.400901   -0.039142    0.000000
----------------------------------------
   Max  677.340775
   Res  172.454573    sqrt( Sum f_i^2 / 3N )
----------------------------------------
   Max  677.340775    constrained

Stress-tensor-Voigt (kbar):     -636.82    -3095.52       -0.16        0.72        0.00        0.00
(Free)E + p*V (eV/cell)   -10080.9581
Target enthalpy (eV/cell)   -11551.1228

siesta: Stress tensor (static) (eV/Ang**3):
        -0.397469    0.000450    0.000000
         0.000450   -1.932048    0.000000
         0.000000    0.000000   -0.000101

siesta: Pressure (static):       1244.16630667  kBar

siesta: Stress tensor (total) (eV/Ang**3):
        -0.397469    0.000450    0.000000
         0.000450   -1.932048    0.000000
         0.000000    0.000000   -0.000101

siesta: Pressure (total):       1244.16630667  kBar

siesta: Temp_ion =       0.000 K

* Maximum dynamic memory allocated =   152 MB
Computing bands...

siesta: Program's energy decomposition (eV):
siesta: Ebs     =     -4838.578614
siesta: Eions   =     20010.479513
siesta: Ena     =      4824.875284
siesta: Ekin    =     10324.419058
siesta: Enl     =     -1397.709559
siesta: DEna    =      -797.953808
siesta: DUscf   =       105.235509
siesta: DUext   =         0.000000
siesta: Exc     =     -4599.455337
siesta: eta*DQ  =         0.000000
siesta: Emadel  =         0.000000
siesta: Emeta   =         0.000000
siesta: Emolmec =         0.000000
siesta: Ekinion =         0.000000
siesta: Eharris =    -11551.067390
siesta: Etot    =    -11551.068366
siesta: FreeEng =    -11551.122844

siesta: Final energy (eV):
siesta:  Band Struct. =   -4838.578614
siesta:       Kinetic =   10324.419058
siesta:       Hartree =   34035.939300
siesta:    Ext. field =       0.000000
siesta:   Exch.-corr. =   -4599.455337
siesta:  Ion-electron =  -78009.849694
siesta:       Ion-ion =   26697.878307
siesta:       Ekinion =       0.000000
siesta:         Total =  -11551.068366

siesta: Atomic forces (eV/Ang):
siesta:      1    5.723250  123.858071    0.000000
siesta:      2   -3.852383  117.763402    0.000000
siesta:      3  -37.513225 -658.711595    0.000002
siesta:      4    0.018132  677.340775    0.000002
siesta:      5    0.371245   -1.595152    0.000001
siesta:      6    1.378099    0.934695    0.000000
siesta:      7   -1.747269    0.227802    0.000000
siesta:      8    0.586400    1.219510    0.000000
siesta:      9    0.045224  110.350518   -0.000002
siesta:     10   -1.564401 -665.952241    0.000000
siesta:     11    0.169763  546.934406   -0.000002
siesta:     12   -1.178539 -126.473067    0.000003
siesta:     13   -5.418357 -540.057123    0.000000
siesta:     14    2.546404 -539.334055   -0.000002
siesta:     15   27.496949    4.953922    0.000000
siesta:     16   32.455378 -552.622189    0.000003
siesta:     17    1.763396    0.034506    0.000000
siesta:     18   -2.882269    1.914704    0.000000
siesta:     19    2.399775    1.972120    0.000000
siesta:     20   -1.130688    0.094027    0.000000
siesta:     21  -24.987809    3.381218    0.000000
siesta:     22   -1.789872  546.805059   -0.000002
siesta:     23    0.272882 -120.105159    0.000000
siesta:     24   25.540513  550.401141   -0.000003
siesta:     25   28.095711   -2.199575    0.000000
siesta:     26   -2.704078   -1.683052    0.000000
siesta:     27    2.148998   -0.046422    0.000000
siesta:     28   -1.327057   -0.225638    0.000000
siesta:     29    2.308827   -2.198974    0.000000
siesta:     30   -0.207379    7.281959    0.000000
siesta:     31   -0.180831   -7.262322    0.000000
siesta:     32   -4.188098  547.837704    0.000000
siesta:     33    1.978896 -123.580730    0.000000
siesta:     34   -2.849792  670.699023   -0.000001
siesta:     35   -0.791399 -121.340825   -0.000001
siesta:     36   30.120870  558.596240    0.000001
siesta:     37   24.612354   -9.379800    0.000000
siesta:     38   -1.229505    3.852209    0.000000
siesta:     39   -0.474784   -1.277935    0.000000
siesta:     40   -0.595684    0.997932    0.000000
siesta:     41   -0.446879   -0.574738    0.000000
siesta:     42  -20.083746  655.012716   -0.000003
siesta:     43  -27.775396   -1.855565    0.000000
siesta:     44  -26.493656  560.496526    0.000000
siesta:     45  -25.248892   -9.046650    0.000000
siesta:     46   -2.273866   -0.294239    0.000000
siesta:     47    2.333826   -1.179622    0.000000
siesta:     48   -2.025524   -0.198098    0.000000
siesta:     49    1.456263    4.118654    0.000000
siesta:     50    0.527956   -0.896431    0.000000
siesta:     51    1.111732   -0.419301    0.000000
siesta:     52   -2.228295   -2.053004    0.000000
siesta:     53    0.479642    0.896033    0.000000
siesta:     54    0.629172   -0.702201    0.000000
siesta:     55    0.261669    7.393758    0.000000
siesta:     56    0.259701   -7.400949    0.000000
siesta:     57   -2.266068    2.025747    0.000000
siesta:     58    0.911397    0.435089    0.000000
siesta:     59    1.093616    0.226916    0.000000
siesta:     60   -1.366285   -3.073345    0.000000
siesta:     61    0.201762   -2.892427    0.000001
siesta:     62   -0.698061 -562.034666    0.000000
siesta:     63   -0.280467   -0.031835    0.000000
siesta:     64    2.074467   -3.757036    0.000000
siesta:     65   23.654098    6.087704    0.000000
siesta:     66   26.358648 -563.143987    0.000001
siesta:     67  -23.330346    6.076754    0.000000
siesta:     68  -21.314190 -565.483653    0.000000
siesta:     69   -1.722240    0.322618    0.000000
siesta:     70    2.371145    2.059048    0.000000
siesta:     71   -0.061879  118.716663    0.000001
siesta:     72    0.070146 -642.274712   -0.000003
siesta: ----------------------------------------
siesta:    Tot   -0.400901   -0.039142    0.000000

siesta: Stress tensor (static) (eV/Ang**3):
siesta:    -0.397469    0.000450    0.000000
siesta:     0.000450   -1.932048    0.000000
siesta:     0.000000    0.000000   -0.000101

siesta: Cell volume =       1893.226884 Ang**3

siesta: Pressure (static):
siesta:                Solid            Molecule  Units
siesta:           0.00845750          0.13607376  Ry/Bohr**3
siesta:           0.77653914         12.49382978  eV/Ang**3
siesta:        1244.16630667      20017.53850959  kBar
(Free)E+ p_basis*V_orbitals  =      -11521.814861
(Free)Eharris+ p_basis*V_orbitals  =      -11521.813895

siesta: Electric dipole (a.u.)  =    0.000000    0.000000    0.000000
siesta: Electric dipole (Debye) =    0.000000    0.000000    0.000000

* Maximum dynamic memory allocated : Node    0 =   152 MB
* Maximum dynamic memory allocated : Node    1 =    61 MB
* Maximum dynamic memory allocated : Node    2 =    62 MB
* Maximum dynamic memory allocated : Node    3 =   137 MB
* Maximum dynamic memory allocated : Node    4 =   146 MB
* Maximum dynamic memory allocated : Node    5 =    55 MB
* Maximum dynamic memory allocated : Node    6 =    57 MB
* Maximum dynamic memory allocated : Node    7 =   140 MB
* Maximum dynamic memory allocated : Node    8 =   133 MB
* Maximum dynamic memory allocated : Node    9 =    54 MB
* Maximum dynamic memory allocated : Node   10 =    56 MB
* Maximum dynamic memory allocated : Node   11 =   128 MB

* Maximum memory occured during matrixMtoO                    

timer: CPU execution times:
timer:  Routine       Calls   Time/call    Tot.time        %
timer:  siesta            1  178805.129  178805.129   100.00
timer:  Setup             1       3.403       3.403     0.00
timer:  bands             3     225.913     677.740     0.38
timer:  writewave         1       0.024       0.024     0.00
timer:  KSV_init          1       0.004       0.004     0.00
timer:  IterMD            1  178116.956  178116.956    99.62
timer:  hsparse           1       0.166       0.166     0.00
timer:  overlap           1       6.334       6.334     0.00
timer:  IterSCF          61    2917.918  177993.003    99.55
timer:  kinefsm           2       3.215       6.430     0.00
timer:  nlefsm            2      18.548      37.096     0.02
timer:  DHSCF            62      60.719    3764.549     2.11
timer:  DHSCF1            1       0.900       0.900     0.00
timer:  DHSCF2            1      24.557      24.557     0.01
timer:  REORD           498       0.002       1.090     0.00
timer:  POISON           63       0.447      28.189     0.02
timer:  DHSCF3           62      59.956    3717.261     2.08
timer:  rhoofd           62      12.660     784.922     0.44
timer:  cellXC           62       2.410     149.399     0.08
timer:  vmat             62      28.309    1755.186     0.98
timer:  MolMec            2       0.000       0.001     0.00
timer:  diagon           61    2856.174  174226.607    97.44
timer:  c-eigval      14212       5.585   79375.322    44.39
timer:  c-buildHS     14212       0.033     474.578     0.27
timer:  cdiag         28303       5.685  160900.788    89.99
timer:  cdiag1        28303       0.261    7373.659     4.12
timer:  cdiag2        28303       1.840   52066.516    29.12
timer:  cdiag3        28303       3.375   95529.245    53.43
timer:  cdiag4        28303       0.088    2496.115     1.40
timer:  c-eigvec      14091       5.847   82394.673    46.08
timer:  c-buildD      14091       0.927   13057.354     7.30
timer:  DHSCF4            1      21.464      21.464     0.01
timer:  dfscf             1      20.028      20.028     0.01
timer:  overfsm           1       0.282       0.282     0.00
timer:  optical           1       6.409       6.409     0.00
  

elaps: ELAPSED times:
elaps:  Routine       Calls   Time/call    Tot.time        %
elaps:  siesta            1   14935.443   14935.443   100.00
elaps:  Setup             1       0.282       0.282     0.00
elaps:  bands             3      18.886      56.659     0.38
elaps:  writewave         1       0.002       0.002     0.00
elaps:  KSV_init          1       0.000       0.000     0.00
elaps:  IterMD            1   14877.963   14877.963    99.62
elaps:  hsparse           1       0.017       0.017     0.00
elaps:  overlap           1       0.712       0.712     0.00
elaps:  IterSCF          61     243.731   14867.608    99.55
elaps:  kinefsm           2       0.367       0.733     0.00
elaps:  nlefsm            2       1.695       3.390     0.02
elaps:  DHSCF            62       5.102     316.308     2.12
elaps:  DHSCF1            1       0.077       0.077     0.00
elaps:  DHSCF2            1       2.050       2.050     0.01
elaps:  REORD           498       0.000       0.147     0.00
elaps:  POISON           63       0.038       2.364     0.02
elaps:  DHSCF3           62       5.008     310.516     2.08
elaps:  rhoofd           62       2.294     142.238     0.95
elaps:  cellXC           62       0.201      12.453     0.08
elaps:  vmat             62       2.365     146.626     0.98
elaps:  MolMec            2       0.000       0.000     0.00
elaps:  diagon           61     238.581   14553.413    97.44
elaps:  c-eigval      14212       0.467    6630.069    44.39
elaps:  c-buildHS     14212       0.004      52.120     0.35
elaps:  cdiag         28303       0.470   13298.929    89.04
elaps:  cdiag1        28303       0.021     605.668     4.06
elaps:  cdiag2        28303       0.154    4353.045    29.15
elaps:  cdiag3        28303       0.282    7991.675    53.51
elaps:  cdiag4        28303       0.007     198.917     1.33
elaps:  c-eigvec      14091       0.480    6764.735    45.29
elaps:  c-buildD      14091       0.086    1207.854     8.09
elaps:  DHSCF4            1       3.602       3.602     0.02
elaps:  dfscf             1       3.410       3.410     0.02
elaps:  overfsm           1       0.032       0.032     0.00
elaps:  optical           1       0.000       0.000     0.00
  
>> End of run:   7-MAY-2016  15:35:39
