Siesta Version:                                        siesta-3.2-pl-3
Architecture  : x86_64-unknown-linux-gnu--unknown
Compiler flags: mpiifort -g -O2 -fPIC -xSSE4.1 -fp-model source -shared-intel 
PARALLEL version

* Running on    8 nodes in parallel
>> Start of run:  20-APR-2016   5:54:06

                           ***********************       
                           *  WELCOME TO SIESTA  *       
                           ***********************       

reinit: Reading from standard input
************************** Dump of input data file ****************************
#(1) General system descriptors
SystemName            GRP_doping    # Descriptive name of the system
SystemLabel           GRP_doping    # Short name for naming files
%include STRUCT.fdf
%include KPT.fdf
%include BASIS.fdf
#%include TS.fdf # for transiesta calculation
#(4) DFT, Grid, SCF
XC.functional         GGA           # LDA or GGA (default = LDA)
XC.authors            PBE           # CA (Ceperley-Aldr) = PZ
                                    #    (Perdew-Zunger) - LDA - Default
                                    # PW92 (Perdew-Wang-92) - LDA
                                    # PBE (Perdew-Burke-Ernzerhof) - GGA
MeshCutoff            200.000000    Ry      # Default: 50.0 Ry ~ 0.444 Bohr
                                    #         100.0 Ry ~ 0.314 Bohr
MaxSCFIterations      500           # Default: 50
DM.MixingWeight       0.05          # Default: 0.25
DM.NumberPulay        10            # Default: 0
DM.PulayOnFile        F             # SystemLabel.P1, SystemLabel.P2
DM.Tolerance          1.d-4         # Default: 1.d-4
DM.UseSaveDM          .true.        # because of the bug
SCFMustConverge       .true.
NeglNonOverlapInt     F             # Default: F
#(5) Eigenvalue problem: order-N or diagonalization
SolutionMethod        Diagon        # or Transiesta
ElectronicTemperature 300.0 K       # Default: 300.0 K
#(6) Molecular dynamics and relaxations
#MD.TypeOfRun          CG            # Type of dynamics:
#MD.VariableCell       F
#MD.NumCGsteps         0           # 0 for single-point / 100 for gopt
#MD.MaxCGDispl         0.2 Bohr      # Default: 0.2 Bohr
#MD.MaxForceTol        0.02 eV/Ang   # Default: 0.04 eV/Ang
#MD.MaxStressTol       1.0 GPa       # Default: 1.0 GPa
# Geometry Constraints
#%block GeometryConstraints
#	position from 1 to 44
#%endblock GeometryConstraints
BandLinesScale   pi/a
%block BandLines
 1   0.00000000  0.00000000  0.00000000
50   0.00000000  0.07809418  0.00000000
50   0.04509075  0.07809242  0.00000000
20   0.00000000  0.00000000  0.00000000
%endblock BandLines
************************** End of input data file *****************************

reinit: -----------------------------------------------------------------------
reinit: System Name: GRP_doping
reinit: -----------------------------------------------------------------------
reinit: System Label: GRP_doping                                                  
reinit: -----------------------------------------------------------------------

initatom: Reading input for the pseudopotentials and atomic orbitals ----------
 Species number:            1  Label: B Atomic number:           5
 Species number:            2  Label: C Atomic number:           6
Ground state valence configuration:   2s02  2p01
Reading pseudopotential information in formatted form from B.psf

Valence configuration for pseudopotential generation:
2s( 2.00) rc: 1.74
2p( 1.00) rc: 1.74
3d( 0.00) rc: 1.74
4f( 0.00) rc: 1.74
Ground state valence configuration:   2s02  2p02
Reading pseudopotential information in formatted form from C.psf

Valence configuration for pseudopotential generation:
2s( 2.00) rc: 1.54
2p( 2.00) rc: 1.54
3d( 0.00) rc: 1.54
4f( 0.00) rc: 1.54
For B, standard SIESTA heuristics set lmxkb to 3
 (one more than the basis l, including polarization orbitals).
Use PS.lmax or PS.KBprojectors blocks to override.
For C, standard SIESTA heuristics set lmxkb to 3
 (one more than the basis l, including polarization orbitals).
Use PS.lmax or PS.KBprojectors blocks to override.

<basis_specs>
===============================================================================
B                    Z=   5    Mass=  10.810        Charge= 0.17977+309
Lmxo=1 Lmxkb= 3    BasisType=split      Semic=F
L=0  Nsemic=0  Cnfigmx=2
          n=1  nzeta=2  polorb=0
            splnorm:   0.15000    
               vcte:    0.0000    
               rinn:    0.0000    
                rcs:    0.0000      0.0000    
            lambdas:    1.0000      1.0000    
L=1  Nsemic=0  Cnfigmx=2
          n=1  nzeta=2  polorb=1
            splnorm:   0.15000    
               vcte:    0.0000    
               rinn:    0.0000    
                rcs:    0.0000      0.0000    
            lambdas:    1.0000      1.0000    
-------------------------------------------------------------------------------
L=0  Nkbl=1  erefs: 0.17977+309
L=1  Nkbl=1  erefs: 0.17977+309
L=2  Nkbl=1  erefs: 0.17977+309
L=3  Nkbl=1  erefs: 0.17977+309
===============================================================================
</basis_specs>

atom: Called for B                     (Z =   5)

read_vps: Pseudopotential generation method:
read_vps: ATM3      Troullier-Martins                       
Total valence charge:    3.00000

read_vps: Pseudopotential includes a core correction:
read_vps: Pseudo-core for xc-correction

xc_check: Exchange-correlation functional:
xc_check: GGA Perdew, Burke & Ernzerhof 1996
V l=0 = -2*Zval/r beyond r=  1.7165
V l=1 = -2*Zval/r beyond r=  1.7165
V l=2 = -2*Zval/r beyond r=  1.7165
V l=3 = -2*Zval/r beyond r=  1.6951
All V_l potentials equal beyond r=  1.7165
This should be close to max(r_c) in ps generation
All pots = -2*Zval/r beyond r=  1.7165

VLOCAL1: 99.0% of the norm of Vloc inside     14.733 Ry
VLOCAL1: 99.9% of the norm of Vloc inside     33.577 Ry
atom: Maximum radius for 4*pi*r*r*local-pseudopot. charge    2.04484
atom: Maximum radius for r*vlocal+2*Zval:    1.75994
GHOST: No ghost state for L =  0
GHOST: No ghost state for L =  1
GHOST: No ghost state for L =  2
GHOST: No ghost state for L =  3

KBgen: Kleinman-Bylander projectors: 
   l= 0   rc=  1.897051   el= -0.693730   Ekb=  4.595746   kbcos=  0.286105
   l= 1   rc=  1.920920   el= -0.265236   Ekb= -2.350715   kbcos= -0.315747
   l= 2   rc=  2.044840   el=  0.002055   Ekb= -0.690767   kbcos= -0.013822
   l= 3   rc=  2.149707   el=  0.003188   Ekb= -0.315358   kbcos= -0.002055

KBgen: Total number of  Kleinman-Bylander projectors:   16
atom: -------------------------------------------------------------------------

atom: SANKEY-TYPE ORBITALS:
atom: Selected multiple-zeta basis: split     

SPLIT: Orbitals with angular momentum L= 0

SPLIT: Basis orbitals for state 2s

SPLIT: PAO cut-off radius determined from an
SPLIT: energy shift=  0.007350 Ry

   izeta = 1
                 lambda =    1.000000
                     rc =    5.422032
                 energy =   -0.686029
                kinetic =    0.576707
    potential(screened) =   -1.262736
       potential(ionic) =   -3.271094

   izeta = 2
                 rmatch =    4.222573
              splitnorm =    0.150000
                 energy =   -0.602132
                kinetic =    0.858975
    potential(screened) =   -1.461107
       potential(ionic) =   -3.582536

SPLIT: Orbitals with angular momentum L= 1

SPLIT: Basis orbitals for state 2p

SPLIT: PAO cut-off radius determined from an
SPLIT: energy shift=  0.007350 Ry

   izeta = 1
                 lambda =    1.000000
                     rc =    6.790259
                 energy =   -0.258578
                kinetic =    1.481412
    potential(screened) =   -1.739989
       potential(ionic) =   -3.657461

   izeta = 2
                 rmatch =    4.608740
              splitnorm =    0.150000
                 energy =   -0.173757
                kinetic =    2.186690
    potential(screened) =   -2.360447
       potential(ionic) =   -4.464260

POLgen: Perturbative polarization orbital with L=  2

POLgen: Polarization orbital for state 2p

   izeta = 1
                     rc =    6.790259
                 energy =    0.684082
                kinetic =    1.471481
    potential(screened) =   -0.787399
       potential(ionic) =   -2.406985
atom: Total number of Sankey-type orbitals: 13

atm_pop: Valence configuration (for local Pseudopot. screening):
 2s( 2.00)                                                            
 2p( 1.00)                                                            
Vna: chval, zval:    3.00000   3.00000

Vna:  Cut-off radius for the neutral-atom potential:   6.790259
comcore: Pseudo-core radius Rcore=  2.122997

atom: _________________________________________________________________________

<basis_specs>
===============================================================================
C                    Z=   6    Mass=  12.010        Charge= 0.17977+309
Lmxo=1 Lmxkb= 3    BasisType=split      Semic=F
L=0  Nsemic=0  Cnfigmx=2
          n=1  nzeta=2  polorb=0
            splnorm:   0.15000    
               vcte:    0.0000    
               rinn:    0.0000    
                rcs:    0.0000      0.0000    
            lambdas:    1.0000      1.0000    
L=1  Nsemic=0  Cnfigmx=2
          n=1  nzeta=2  polorb=1
            splnorm:   0.15000    
               vcte:    0.0000    
               rinn:    0.0000    
                rcs:    0.0000      0.0000    
            lambdas:    1.0000      1.0000    
-------------------------------------------------------------------------------
L=0  Nkbl=1  erefs: 0.17977+309
L=1  Nkbl=1  erefs: 0.17977+309
L=2  Nkbl=1  erefs: 0.17977+309
L=3  Nkbl=1  erefs: 0.17977+309
===============================================================================
</basis_specs>

atom: Called for C                     (Z =   6)

read_vps: Pseudopotential generation method:
read_vps: ATM3      Troullier-Martins                       
Total valence charge:    4.00000

read_vps: Pseudopotential includes a core correction:
read_vps: Pseudo-core for xc-correction

xc_check: Exchange-correlation functional:
xc_check: GGA Perdew, Burke & Ernzerhof 1996
V l=0 = -2*Zval/r beyond r=  1.5227
V l=1 = -2*Zval/r beyond r=  1.5227
V l=2 = -2*Zval/r beyond r=  1.5227
V l=3 = -2*Zval/r beyond r=  1.5038
All V_l potentials equal beyond r=  1.5227
This should be close to max(r_c) in ps generation
All pots = -2*Zval/r beyond r=  1.5227

VLOCAL1: 99.0% of the norm of Vloc inside     18.722 Ry
VLOCAL1: 99.9% of the norm of Vloc inside     42.668 Ry
atom: Maximum radius for 4*pi*r*r*local-pseudopot. charge    1.83678
atom: Maximum radius for r*vlocal+2*Zval:    1.58088
GHOST: No ghost state for L =  0
GHOST: No ghost state for L =  1
GHOST: No ghost state for L =  2
GHOST: No ghost state for L =  3

KBgen: Kleinman-Bylander projectors: 
   l= 0   rc=  1.704034   el= -1.009801   Ekb=  5.335044   kbcos=  0.316824
   l= 1   rc=  1.704034   el= -0.388707   Ekb= -3.785862   kbcos= -0.366464
   l= 2   rc=  1.791422   el=  0.001971   Ekb= -0.970471   kbcos= -0.009212
   l= 3   rc=  1.859892   el=  0.003065   Ekb= -0.399525   kbcos= -0.001223

KBgen: Total number of  Kleinman-Bylander projectors:   16
atom: -------------------------------------------------------------------------

atom: SANKEY-TYPE ORBITALS:
atom: Selected multiple-zeta basis: split     

SPLIT: Orbitals with angular momentum L= 0

SPLIT: Basis orbitals for state 2s

SPLIT: PAO cut-off radius determined from an
SPLIT: energy shift=  0.007350 Ry

   izeta = 1
                 lambda =    1.000000
                     rc =    4.632753
                 energy =   -1.002270
                kinetic =    0.855760
    potential(screened) =   -1.858031
       potential(ionic) =   -5.417575

   izeta = 2
                 rmatch =    3.431921
              splitnorm =    0.150000
                 energy =   -0.867111
                kinetic =    1.300804
    potential(screened) =   -2.167915
       potential(ionic) =   -5.962684

SPLIT: Orbitals with angular momentum L= 1

SPLIT: Basis orbitals for state 2p

SPLIT: PAO cut-off radius determined from an
SPLIT: energy shift=  0.007350 Ry

   izeta = 1
                 lambda =    1.000000
                     rc =    5.658549
                 energy =   -0.381140
                kinetic =    2.399701
    potential(screened) =   -2.780841
       potential(ionic) =   -6.206085

   izeta = 2
                 rmatch =    3.653288
              splitnorm =    0.150000
                 energy =   -0.249149
                kinetic =    3.542762
    potential(screened) =   -3.791911
       potential(ionic) =   -7.581078

POLgen: Perturbative polarization orbital with L=  2

POLgen: Polarization orbital for state 2p

   izeta = 1
                     rc =    5.658549
                 energy =    1.109913
                kinetic =    2.304789
    potential(screened) =   -1.194876
       potential(ionic) =   -4.013592
atom: Total number of Sankey-type orbitals: 13

atm_pop: Valence configuration (for local Pseudopot. screening):
 2s( 2.00)                                                            
 2p( 2.00)                                                            
Vna: chval, zval:    4.00000   4.00000

Vna:  Cut-off radius for the neutral-atom potential:   5.658549
comcore: Pseudo-core radius Rcore=  1.791422

atom: _________________________________________________________________________

prinput: Basis input ----------------------------------------------------------

PAO.BasisType split     

%block ChemicalSpeciesLabel
    1    5 B                       # Species index, atomic number, species label
    2    6 C                       # Species index, atomic number, species label
%endblock ChemicalSpeciesLabel

%block PAO.Basis                 # Define Basis set
B                     2                    # Species label, number of l-shells
 n=2   0   2                         # n, l, Nzeta 
   5.422      4.223   
   1.000      1.000   
 n=2   1   2 P   1                   # n, l, Nzeta, Polarization, NzetaPol
   6.790      4.609   
   1.000      1.000   
C                     2                    # Species label, number of l-shells
 n=2   0   2                         # n, l, Nzeta 
   4.633      3.432   
   1.000      1.000   
 n=2   1   2 P   1                   # n, l, Nzeta, Polarization, NzetaPol
   5.659      3.653   
   1.000      1.000   
%endblock PAO.Basis

prinput: ----------------------------------------------------------------------

coor:   Atomic-coordinates input format  =     Fractional

siesta: Atomic coordinates (Bohr) and species
siesta:     -0.02582   2.59549   0.00000  1        1
siesta:     -0.02582   5.28395   0.00000  1        2
siesta:     -2.35420  38.89134   0.00000  1        3
siesta:     -2.35420  41.57980   0.00000  1        4
siesta:      2.30256  38.89134   0.00000  1        5
siesta:      2.30256  41.57980   0.00000  1        6
siesta:      2.30256   6.62836   0.00000  1        7
siesta:      2.30256   9.31683   0.00000  1        8
siesta:     11.61608  22.75985   0.00000  1        9
siesta:     11.61608  25.44831   0.00000  1       10
siesta:     -2.35420   6.62836   0.00000  1       11
siesta:     -2.35420   9.31683   0.00000  1       12
siesta:     -0.02582  10.66124   0.00000  1       13
siesta:     -0.02582  13.34970   0.00000  1       14
siesta:     -9.33934  18.72698   0.00000  1       15
siesta:     -9.33934  21.41544   0.00000  1       16
siesta:     -7.01096  22.75985   0.00000  1       17
siesta:     -7.01096  25.44831   0.00000  1       18
siesta:    -11.66772  22.75985   0.00000  1       19
siesta:    -11.66772  25.44831   0.00000  1       20
siesta:     -9.33934  26.79272   0.00000  1       21
siesta:     -9.33934  29.48119   0.00000  1       22
siesta:     -0.02582  34.85847   0.00000  1       23
siesta:     -0.02582  37.54693   0.00000  1       24
siesta:     -0.02582  42.92421   0.00000  1       25
siesta:     -0.02582  45.61267   0.00000  1       26
siesta:      4.63094  34.85847   0.00000  2       27
siesta:      4.63094  37.54693   0.00000  2       28
siesta:      6.95932  30.82560   0.00000  2       29
siesta:      6.95932  33.51406   0.00000  2       30
siesta:      9.28770  26.79272   0.00000  2       31
siesta:      9.28770  29.48119   0.00000  2       32
siesta:     -4.68258  34.85847   0.00000  2       33
siesta:     -4.68258  37.54693   0.00000  2       34
siesta:      4.63094  10.66124   0.00000  2       35
siesta:      4.63094  13.34970   0.00000  2       36
siesta:      6.95932  14.69411   0.00000  2       37
siesta:      6.95932  17.38257   0.00000  2       38
siesta:      9.28770  18.72698   0.00000  2       39
siesta:      9.28770  21.41544   0.00000  2       40
siesta:      2.30256  14.69411   0.00000  2       41
siesta:      2.30256  17.38257   0.00000  2       42
siesta:      4.63094  18.72698   0.00000  2       43
siesta:      4.63094  21.41544   0.00000  2       44
siesta:      6.95932  22.75985   0.00000  2       45
siesta:      6.95932  25.44831   0.00000  2       46
siesta:     -4.68258  10.66124   0.00000  2       47
siesta:     -4.68258  13.34970   0.00000  2       48
siesta:     -2.35420  14.69411   0.00000  2       49
siesta:     -2.35420  17.38257   0.00000  2       50
siesta:     -0.02582  18.72698   0.00000  2       51
siesta:     -0.02582  21.41544   0.00000  2       52
siesta:      2.30256  22.75985   0.00000  2       53
siesta:      2.30256  25.44831   0.00000  2       54
siesta:     -7.01096  14.69411   0.00000  2       55
siesta:     -7.01096  17.38257   0.00000  2       56
siesta:     -4.68258  18.72698   0.00000  2       57
siesta:     -4.68258  21.41544   0.00000  2       58
siesta:     -2.35420  22.75985   0.00000  2       59
siesta:     -2.35420  25.44831   0.00000  2       60
siesta:      4.63094  26.79272   0.00000  2       61
siesta:      4.63094  29.48119   0.00000  2       62
siesta:     -0.02582  26.79272   0.00000  2       63
siesta:     -0.02582  29.48119   0.00000  2       64
siesta:     -4.68258  26.79272   0.00000  2       65
siesta:     -4.68258  29.48119   0.00000  2       66
siesta:      2.30256  30.82560   0.00000  2       67
siesta:      2.30256  33.51406   0.00000  2       68
siesta:     -2.35420  30.82560   0.00000  2       69
siesta:     -2.35420  33.51406   0.00000  2       70
siesta:     -7.01096  30.82560   0.00000  2       71
siesta:     -7.01096  33.51406   0.00000  2       72

siesta: System type = slab      

initatomlists: Number of atoms, orbitals, and projectors:     72   936  1152

siesta: ******************** Simulation parameters ****************************
siesta:
siesta: The following are some of the parameters of the simulation.
siesta: A complete list of the parameters used, including default values,
siesta: can be found in file out.fdf
siesta:
redata: Non-Collinear-spin run           =     F
redata: SpinPolarized (Up/Down) run      =     F
redata: Number of spin components        =     1
redata: Long output                      =     F
redata: Number of Atomic Species         =        2
redata: Charge density info will appear in .RHO file
redata: Write Mulliken Pop.              =     NO
redata: Mesh Cutoff                      =   200.0000  Ry
redata: Net charge of the system         =     0.0000 |e|
redata: Max. number of SCF Iter          =      500
redata: SCF convergence failure will abort job
redata: Performing Pulay mixing using    =    10 iterations
redata: Mix DM in first SCF step ?       =     F
redata: Write Pulay info on disk?        =     F
redata: Discard 1st Pulay DM after  kick =     F
redata: New DM Mixing Weight             =     0.0500
redata: New DM Occupancy tolerance       = 0.000000000001
redata: No kicks to SCF
redata: DM Mixing Weight for Kicks       =     0.5000
redata: DM Tolerance for SCF             =     0.000100
redata: Require Energy convergence for SCF =     F
redata: DM Energy tolerance for SCF      =     0.000100 eV
redata: Require Harris convergence for SCF =     F
redata: DM Harris energy tolerance for SCF =     0.000100 eV
redata: Using Saved Data (generic)   =     F
redata: Use continuation files for DM    =     T
redata: Neglect nonoverlap interactions  =     F
redata: Method of Calculation            =     Diagonalization
redata: Divide and Conquer               =     T
redata: Electronic Temperature           =     0.0019  Ry
redata: Fix the spin of the system       =     F
redata: Dynamics option                  =     Verlet MD run
redata: Initial MD time step             =        1
redata:   Final MD time step             =        1
redata: Length of MD time step           =     1.0000  fs
redata: Initial Temperature of MD run    =     0.0000  K
redata: Perform a MD quench              =     F
redata: ***********************************************************************
Total number of electrons:   262.000000
Total ionic charge:   262.000000

* ProcessorY, Blocksize:    2  24

k-point displ. along   1 input, could be:     0.50    0.00
k-point displ. along   2 input, could be:     0.50    0.00
 Kpoints in:          231 . Kpoints trimmed:          231

siesta: k-grid: Number of k-points =   231
siesta: k-grid: Cutoff (effective) =     5.000 Ang
siesta: k-grid: Supercell and displacements
siesta: k-grid:   21   0   0      0.500
siesta: k-grid:    0  21   0      0.500
siesta: k-grid:    0   0   1      0.000
Naive supercell factors:     2    2    2

superc: Internal auxiliary supercell:     2 x     2 x     2  =       8
superc: Number of atoms, orbitals, and projectors:    576   7488   9216

* Maximum dynamic memory allocated =     4 MB

siesta:                 ==============================
                            Begin MD step =      1
                        ==============================

superc: Internal auxiliary supercell:     2 x     2 x     2  =       8
superc: Number of atoms, orbitals, and projectors:    576   7488   9216

outcell: Unit cell vectors (Ang):
       12.804619    7.392750    0.000000
        0.000000   14.785500    0.000000
        0.000000    0.000000   10.000000

outcell: Cell vector modules (Ang)   :   14.785500   14.785500   10.000000
outcell: Cell angles (23,13,12) (deg):     90.0000     90.0000     60.0000
outcell: Cell volume (Ang**3)        :   1893.2269
New_DM. Step:     1
Initializing Density Matrix...

InitMesh: MESH =   120 x   120 x    90 =     1296000
InitMesh: Mesh cutoff (required, used) =   200.000   223.865 Ry

* Maximum dynamic memory allocated =   240 MB

stepf: Fermi-Dirac step function

siesta: Program's energy decomposition (eV):
siesta: Ebs     =     -5349.219182
siesta: Eions   =     15073.536580
siesta: Ena     =      4106.082870
siesta: Ekin    =      5006.990805
siesta: Enl     =       877.245492
siesta: DEna    =        -0.000006
siesta: DUscf   =         0.000000
siesta: DUext   =         0.000000
siesta: Exc     =     -4188.725556
siesta: eta*DQ  =         0.000000
siesta: Emadel  =         0.000000
siesta: Emeta   =         0.000000
siesta: Emolmec =         0.000000
siesta: Ekinion =         0.000000
siesta: Eharris =     -9177.577436
siesta: Etot    =     -9271.942974
siesta: FreeEng =     -9271.942974

siesta: iscf   Eharris(eV)      E_KS(eV)   FreeEng(eV)   dDmax  Ef(eV)
siesta:    1    -9177.5774    -9271.9430    -9271.9430  6.2472 -8.3265
timer: Routine,Calls,Time,% = IterSCF        1    4532.038  99.74
elaps: Routine,Calls,Wall,% = IterSCF        1     567.214  99.74
siesta:    2   -14474.7128    -8195.0930    -8195.1239 13.5969 -7.3977
siesta:    3    -9421.8276    -9056.0682    -9056.1323  1.8952 -4.8287
siesta:    4    -9256.9259    -9039.3773    -9039.3774  1.8358 -5.2247
siesta:    5    -9198.4899    -9023.3346    -9023.3405  1.4337 -5.1569
siesta:    6    -9145.8122    -9003.9410    -9003.9651  0.9784 -4.9742
siesta:    7    -9136.8849    -8993.0524    -8993.0948  0.9497 -4.8803
siesta:    8    -9030.8893    -8966.6518    -8966.7114  0.6827 -4.6579
siesta:    9    -9025.9311    -8964.0444    -8964.0472  0.5770 -4.8810
siesta:   10    -9025.0056    -8964.3137    -8964.3850  0.5485 -5.0213
siesta:   11    -9023.1835    -8971.3013    -8971.3605  0.4181 -4.8618
siesta:   12    -9021.9783    -8986.8925    -8986.9649  0.3985 -4.7568
siesta:   13    -9020.7154    -8993.7380    -8993.8020  0.2149 -4.9021
siesta:   14    -9021.1378    -9000.0018    -9000.0473  0.4651 -4.8251
siesta:   15    -9020.8008    -9004.2538    -9004.2729  0.3495 -4.9174
siesta:   16    -9019.7716    -9007.5698    -9007.6069  0.1646 -5.0563
siesta:   17    -9019.3117    -9010.0957    -9010.1414  0.1375 -5.1180
siesta:   18    -9019.1677    -9011.5645    -9011.6101  0.3052 -4.9630
siesta:   19    -9019.1752    -9011.3072    -9011.3615  0.3557 -4.9833
siesta:   20    -9019.0291    -9011.3539    -9011.3905  0.1424 -5.0304
siesta:   21    -9018.9868    -9011.7099    -9011.7724  0.1251 -5.0621
siesta:   22    -9018.9880    -9013.7240    -9013.7773  0.1027 -5.0616
siesta:   23    -9018.9899    -9017.1345    -9017.1896  0.1069 -5.0788
siesta:   24    -9018.9824    -9017.0189    -9017.0777  0.0623 -5.0885
siesta:   25    -9018.9696    -9017.0151    -9017.0736  0.0572 -5.0824
siesta:   26    -9018.9495    -9017.8935    -9017.9525  0.0349 -5.0877
siesta:   27    -9018.9435    -9018.9045    -9018.9613  0.0169 -5.0884
siesta:   28    -9018.9424    -9018.8785    -9018.9364  0.0128 -5.0839
siesta:   29    -9018.9398    -9018.8491    -9018.9073  0.0071 -5.0830
siesta:   30    -9018.9386    -9018.9288    -9018.9875  0.0041 -5.0824
siesta:   31    -9018.9383    -9018.9468    -9019.0060  0.0059 -5.0846
siesta:   32    -9018.9379    -9018.9182    -9018.9768  0.0045 -5.0840
siesta:   33    -9018.9377    -9018.9102    -9018.9691  0.0035 -5.0824
siesta:   34    -9018.9377    -9018.9443    -9019.0032  0.0017 -5.0825
siesta:   35    -9018.9377    -9018.9459    -9019.0048  0.0007 -5.0832
siesta:   36    -9018.9377    -9018.9422    -9019.0011  0.0011 -5.0832
siesta:   37    -9018.9377    -9018.9459    -9019.0048  0.0003 -5.0834
siesta:   38    -9018.9377    -9018.9477    -9019.0065  0.0002 -5.0834
siesta:   39    -9018.9377    -9018.9466    -9019.0055  0.0001 -5.0832
siesta:   40    -9018.9377    -9018.9452    -9019.0041  0.0001 -5.0832
siesta:   41    -9018.9377    -9018.9456    -9019.0045  0.0001 -5.0832

siesta: E_KS(eV) =            -9018.9440

siesta: E_KS - E_eggbox =     -9018.9440

siesta: Atomic forces (eV/Ang):
----------------------------------------
   Tot   -0.055765   -0.004415    0.000000
----------------------------------------
   Max  548.663507
   Res  127.174932    sqrt( Sum f_i^2 / 3N )
----------------------------------------
   Max  548.663507    constrained

Stress-tensor-Voigt (kbar):     -584.74    -2269.82       -0.71       -0.56        0.00        0.00
(Free)E + p*V (eV/cell)    -7894.3617
Target enthalpy (eV/cell)    -9019.0028

siesta: Stress tensor (static) (eV/Ang**3):
        -0.364960   -0.000352    0.000000
        -0.000352   -1.416696    0.000000
         0.000000    0.000000   -0.000446

siesta: Pressure (static):        951.75766442  kBar

siesta: Stress tensor (total) (eV/Ang**3):
        -0.364960   -0.000352    0.000000
        -0.000352   -1.416696    0.000000
         0.000000    0.000000   -0.000446

siesta: Pressure (total):        951.75766442  kBar

siesta: Temp_ion =       0.000 K

* Maximum dynamic memory allocated =   257 MB
Computing bands...

siesta: Program's energy decomposition (eV):
siesta: Ebs     =     -4028.919671
siesta: Eions   =     15073.536580
siesta: Ena     =      4106.082870
siesta: Ekin    =      7638.647078
siesta: Enl     =      -764.272465
siesta: DEna    =      -673.778221
siesta: DUscf   =        86.953949
siesta: DUext   =         0.000000
siesta: Exc     =     -4339.040596
siesta: eta*DQ  =         0.000000
siesta: Emadel  =         0.000000
siesta: Emeta   =         0.000000
siesta: Emolmec =         0.000000
siesta: Ekinion =         0.000000
siesta: Eharris =     -9018.937723
siesta: Etot    =     -9018.943964
siesta: FreeEng =     -9019.002839

siesta: Final energy (eV):
siesta:  Band Struct. =   -4028.919671
siesta:       Kinetic =    7638.647078
siesta:       Hartree =   24382.229627
siesta:    Ext. field =       0.000000
siesta:   Exch.-corr. =   -4339.040596
siesta:  Ion-electron =  -56174.727848
siesta:       Ion-ion =   19473.947774
siesta:       Ekinion =       0.000000
siesta:         Total =   -9018.943964

siesta: Atomic forces (eV/Ang):
siesta:      1    0.076869  410.766994    0.000000
siesta:      2    0.003149  -97.604503    0.000000
siesta:      3   -1.946127  101.206462    0.000000
siesta:      4   -0.620614 -405.259132    0.000000
siesta:      5    1.995177  101.296615    0.000000
siesta:      6   -0.008748 -404.647847    0.000000
siesta:      7   -0.030879  404.653310    0.000000
siesta:      8    1.990713 -101.288623    0.000000
siesta:      9    2.729523   -5.063647    0.000000
siesta:     10    2.733943    5.064024    0.000000
siesta:     11   -0.637157  405.274636    0.000000
siesta:     12   -1.963803 -101.212218    0.000000
siesta:     13    0.013329  298.746379    0.000000
siesta:     14    0.093702 -101.893332    0.000000
siesta:     15    0.396691   -4.413346    0.000000
siesta:     16   -5.278937   -0.670111    0.000000
siesta:     17    4.460584   -3.906586    0.000000
siesta:     18    4.458476    3.902139    0.000000
siesta:     19   -6.020914   -2.620988    0.000000
siesta:     20   -6.021116    2.621215    0.000000
siesta:     21   -5.280442    0.684574    0.000000
siesta:     22    0.400299    4.407400    0.000000
siesta:     23    0.110325  101.893446    0.000000
siesta:     24    0.033515 -298.770471    0.000000
siesta:     25    0.038694   97.589166    0.000000
siesta:     26    0.112306 -410.776607    0.000000
siesta:     27   24.347420    2.099718    0.000000
siesta:     28   21.023379 -548.477204    0.000000
siesta:     29    1.757118    0.194094    0.000000
siesta:     30   -1.655069    2.681130    0.000000
siesta:     31   -0.703897    2.403769    0.000000
siesta:     32   -0.049936    0.232053    0.000000
siesta:     33  -23.523827    3.088628    0.000000
siesta:     34  -21.073909 -548.661204    0.000000
siesta:     35   21.012044  548.453132    0.000000
siesta:     36   24.340773   -2.115961    0.000000
siesta:     37   -1.652809   -2.677372    0.000000
siesta:     38    1.746665   -0.193523    0.000000
siesta:     39   -0.047884   -0.230266    0.000000
siesta:     40   -0.707294   -2.414350    0.000000
siesta:     41   19.998481  411.024463    0.000000
siesta:     42   21.588370   -2.603297    0.000000
siesta:     43   -0.833473    0.899669    0.000000
siesta:     44    0.756238    0.319671    0.000000
siesta:     45   -1.036493    0.111558    0.000000
siesta:     46   -1.044326   -0.107351    0.000000
siesta:     47  -21.058730  548.663507    0.000000
siesta:     48  -23.544797   -3.073302    0.000000
siesta:     49  -19.901818  412.047716    0.000000
siesta:     50  -21.843863   -2.695809    0.000000
siesta:     51   -0.224100  419.218576    0.000000
siesta:     52   -0.238425    3.413597    0.000000
siesta:     53   -0.676635   -0.052855    0.000000
siesta:     54   -0.677194    0.054655    0.000000
siesta:     55    0.935354   -1.979038    0.000000
siesta:     56    0.053637   -3.611946    0.000000
siesta:     57    1.573910    1.704948    0.000000
siesta:     58    2.104516   -1.447642    0.000000
siesta:     59    1.641338   -1.033512    0.000000
siesta:     60    1.640721    1.047601    0.000000
siesta:     61    0.765368   -0.322420    0.000000
siesta:     62   -0.842376   -0.903943    0.000000
siesta:     63   -0.232263   -3.409563    0.000000
siesta:     64   -0.204336 -419.214246    0.000000
siesta:     65    2.107598    1.449156    0.000000
siesta:     66    1.567449   -1.716059    0.000000
siesta:     67   21.604769    2.609775    0.000000
siesta:     68   20.015848 -411.047194    0.000000
siesta:     69  -21.838941    2.709505    0.000000
siesta:     70  -19.869505 -412.032827    0.000000
siesta:     71    0.064199    3.620331    0.000000
siesta:     72    0.942384    1.990262    0.000000
siesta: ----------------------------------------
siesta:    Tot   -0.055765   -0.004415    0.000000

siesta: Stress tensor (static) (eV/Ang**3):
siesta:    -0.364960   -0.000352    0.000000
siesta:    -0.000352   -1.416696    0.000000
siesta:     0.000000    0.000000   -0.000446

siesta: Cell volume =       1893.226884 Ang**3

siesta: Pressure (static):
siesta:                Solid            Molecule  Units
siesta:           0.00646979          0.09767217  Ry/Bohr**3
siesta:           0.59403399          8.96792628  eV/Ang**3
siesta:         951.75766442      14368.35724914  kBar
(Free)E+ p_basis*V_orbitals  =       -8980.050434
(Free)Eharris+ p_basis*V_orbitals  =       -8980.042522

siesta: Electric dipole (a.u.)  =    0.000000    0.000000    0.000000
siesta: Electric dipole (Debye) =    0.000000    0.000000    0.000000

* Maximum dynamic memory allocated : Node    0 =   257 MB
* Maximum dynamic memory allocated : Node    1 =    89 MB
* Maximum dynamic memory allocated : Node    2 =    93 MB
* Maximum dynamic memory allocated : Node    3 =   244 MB
* Maximum dynamic memory allocated : Node    4 =   228 MB
* Maximum dynamic memory allocated : Node    5 =    84 MB
* Maximum dynamic memory allocated : Node    6 =    85 MB
* Maximum dynamic memory allocated : Node    7 =   210 MB

* Maximum memory occured during matrixMtoO                    

timer: CPU execution times:
timer:  Routine       Calls   Time/call    Tot.time        %
timer:  siesta            1  182402.874  182402.874   100.00
timer:  Setup             1       3.041       3.041     0.00
timer:  bands             3     269.287     807.860     0.44
timer:  writewave         1       0.019       0.019     0.00
timer:  KSV_init          1       0.000       0.000     0.00
timer:  IterMD            1  181586.131  181586.131    99.55
timer:  hsparse           1       0.393       0.393     0.00
timer:  overlap           1       7.798       7.798     0.00
timer:  IterSCF          41    4422.386  181317.823    99.41
timer:  kinefsm           2       4.047       8.094     0.00
timer:  nlefsm            2      22.688      45.376     0.02
timer:  DHSCF            42     139.098    5842.113     3.20
timer:  DHSCF1            1       0.989       0.989     0.00
timer:  DHSCF2            1      47.242      47.242     0.03
timer:  REORD           338       0.010       3.447     0.00
timer:  POISON           43       2.240      96.301     0.05
timer:  DHSCF3           42     136.799    5745.541     3.15
timer:  rhoofd           42      27.714    1164.008     0.64
timer:  cellXC           42       3.500     146.996     0.08
timer:  vmat             42      67.890    2851.396     1.56
timer:  MolMec            2       0.000       0.000     0.00
timer:  diagon           41    4282.392  175578.075    96.26
timer:  c-eigval       9592       6.674   64013.840    35.09
timer:  c-buildHS      9592       0.125    1201.547     0.66
timer:  cdiag         19063       6.848  130539.349    71.57
timer:  cdiag1        19063       0.427    8131.615     4.46
timer:  cdiag2        19063       1.905   36307.884    19.91
timer:  cdiag3        19063       3.940   75112.994    41.18
timer:  cdiag4        19063       0.219    4181.420     2.29
timer:  c-eigvec       9471       7.226   68440.582    37.52
timer:  c-buildD       9471       4.633   43878.742    24.06
timer:  DHSCF4            1      46.137      46.137     0.03
timer:  dfscf             1      43.406      43.406     0.02
timer:  overfsm           1       0.490       0.490     0.00
timer:  optical           1       5.100       5.100     0.00
  

elaps: ELAPSED times:
elaps:  Routine       Calls   Time/call    Tot.time        %
elaps:  siesta            1   22827.104   22827.104   100.00
elaps:  Setup             1       0.379       0.379     0.00
elaps:  bands             3      33.712     101.136     0.44
elaps:  writewave         1       0.002       0.002     0.00
elaps:  KSV_init          1       0.000       0.000     0.00
elaps:  IterMD            1   22724.915   22724.915    99.55
elaps:  hsparse           1       0.050       0.050     0.00
elaps:  overlap           1       0.974       0.974     0.00
elaps:  IterSCF          41     553.448   22691.355    99.41
elaps:  kinefsm           2       0.503       1.006     0.00
elaps:  nlefsm            2       2.739       5.477     0.02
elaps:  DHSCF            42      17.550     737.090     3.23
elaps:  DHSCF1            1       0.127       0.127     0.00
elaps:  DHSCF2            1       5.906       5.906     0.03
elaps:  REORD           338       0.001       0.457     0.00
elaps:  POISON           43       0.280      12.034     0.05
elaps:  DHSCF3           42      17.113     718.760     3.15
elaps:  rhoofd           42       7.804     327.761     1.44
elaps:  cellXC           42       0.437      18.360     0.08
elaps:  vmat             42       8.492     356.674     1.56
elaps:  MolMec            2       0.000       0.000     0.00
elaps:  diagon           41     535.950   21973.960    96.26
elaps:  c-eigval       9592       0.835    8009.331    35.09
elaps:  c-buildHS      9592       0.017     164.011     0.72
elaps:  cdiag         19063       0.847   16155.800    70.77
elaps:  cdiag1        19063       0.053    1018.569     4.46
elaps:  cdiag2        19063       0.238    4542.938    19.90
elaps:  cdiag3        19063       0.494    9410.993    41.23
elaps:  cdiag4        19063       0.027     523.961     2.30
elaps:  c-eigvec       9471       0.890    8426.553    36.91
elaps:  c-buildD       9471       0.595    5631.684    24.67
elaps:  DHSCF4            1      11.997      11.997     0.05
elaps:  dfscf             1      11.446      11.446     0.05
elaps:  overfsm           1       0.058       0.058     0.00
elaps:  optical           1       0.000       0.000     0.00
  
>> End of run:  20-APR-2016  12:14:33
