Siesta Version:                                        siesta-3.2-pl-3
Architecture  : x86_64-unknown-linux-gnu--unknown
Compiler flags: mpiifort -g -O2 -fPIC -xSSE4.1 -fp-model source -shared-intel 
PARALLEL version

* Running on    8 nodes in parallel
>> Start of run:  23-APR-2016  22:36:25

                           ***********************       
                           *  WELCOME TO SIESTA  *       
                           ***********************       

reinit: Reading from standard input
************************** Dump of input data file ****************************
#(1) General system descriptors
SystemName            GRP_doping    # Descriptive name of the system
SystemLabel           GRP_doping    # Short name for naming files
%include STRUCT.fdf
%include KPT.fdf
%include BASIS.fdf
#%include TS.fdf # for transiesta calculation
#(4) DFT, Grid, SCF
XC.functional         GGA           # LDA or GGA (default = LDA)
XC.authors            PBE           # CA (Ceperley-Aldr) = PZ
                                    #    (Perdew-Zunger) - LDA - Default
                                    # PW92 (Perdew-Wang-92) - LDA
                                    # PBE (Perdew-Burke-Ernzerhof) - GGA
MeshCutoff            200.000000    Ry      # Default: 50.0 Ry ~ 0.444 Bohr
                                    #         100.0 Ry ~ 0.314 Bohr
MaxSCFIterations      500           # Default: 50
DM.MixingWeight       0.05          # Default: 0.25
DM.NumberPulay        10            # Default: 0
DM.PulayOnFile        F             # SystemLabel.P1, SystemLabel.P2
DM.Tolerance          1.d-4         # Default: 1.d-4
DM.UseSaveDM          .true.        # because of the bug
SCFMustConverge       .true.
NeglNonOverlapInt     F             # Default: F
#(5) Eigenvalue problem: order-N or diagonalization
SolutionMethod        Diagon        # or Transiesta
ElectronicTemperature 300.0 K       # Default: 300.0 K
#(6) Molecular dynamics and relaxations
#MD.TypeOfRun          CG            # Type of dynamics:
#MD.VariableCell       F
#MD.NumCGsteps         0           # 0 for single-point / 100 for gopt
#MD.MaxCGDispl         0.2 Bohr      # Default: 0.2 Bohr
#MD.MaxForceTol        0.02 eV/Ang   # Default: 0.04 eV/Ang
#MD.MaxStressTol       1.0 GPa       # Default: 1.0 GPa
# Geometry Constraints
#%block GeometryConstraints
#	position from 1 to 44
#%endblock GeometryConstraints
BandLinesScale   pi/a
%block BandLines
 1   0.00000000  0.00000000  0.00000000
50   0.00000000  0.07809418  0.00000000
50   0.04509075  0.07809242  0.00000000
20   0.00000000  0.00000000  0.00000000
%endblock BandLines
************************** End of input data file *****************************

reinit: -----------------------------------------------------------------------
reinit: System Name: GRP_doping
reinit: -----------------------------------------------------------------------
reinit: System Label: GRP_doping                                                  
reinit: -----------------------------------------------------------------------

initatom: Reading input for the pseudopotentials and atomic orbitals ----------
 Species number:            1  Label: N Atomic number:           7
 Species number:            2  Label: C Atomic number:           6
Ground state valence configuration:   2s02  2p03
Reading pseudopotential information in formatted form from N.psf

Valence configuration for pseudopotential generation:
2s( 2.00) rc: 1.48
2p( 3.00) rc: 1.48
3d( 0.00) rc: 1.48
4f( 0.00) rc: 1.48
Ground state valence configuration:   2s02  2p02
Reading pseudopotential information in formatted form from C.psf

Valence configuration for pseudopotential generation:
2s( 2.00) rc: 1.54
2p( 2.00) rc: 1.54
3d( 0.00) rc: 1.54
4f( 0.00) rc: 1.54
For N, standard SIESTA heuristics set lmxkb to 3
 (one more than the basis l, including polarization orbitals).
Use PS.lmax or PS.KBprojectors blocks to override.
For C, standard SIESTA heuristics set lmxkb to 3
 (one more than the basis l, including polarization orbitals).
Use PS.lmax or PS.KBprojectors blocks to override.

<basis_specs>
===============================================================================
N                    Z=   7    Mass=  14.010        Charge= 0.17977+309
Lmxo=1 Lmxkb= 3    BasisType=split      Semic=F
L=0  Nsemic=0  Cnfigmx=2
          n=1  nzeta=2  polorb=0
            splnorm:   0.15000    
               vcte:    0.0000    
               rinn:    0.0000    
                rcs:    0.0000      0.0000    
            lambdas:    1.0000      1.0000    
L=1  Nsemic=0  Cnfigmx=2
          n=1  nzeta=2  polorb=1
            splnorm:   0.15000    
               vcte:    0.0000    
               rinn:    0.0000    
                rcs:    0.0000      0.0000    
            lambdas:    1.0000      1.0000    
-------------------------------------------------------------------------------
L=0  Nkbl=1  erefs: 0.17977+309
L=1  Nkbl=1  erefs: 0.17977+309
L=2  Nkbl=1  erefs: 0.17977+309
L=3  Nkbl=1  erefs: 0.17977+309
===============================================================================
</basis_specs>

atom: Called for N                     (Z =   7)

read_vps: Pseudopotential generation method:
read_vps: ATM3      Troullier-Martins                       
Total valence charge:    5.00000

read_vps: Pseudopotential includes a core correction:
read_vps: Pseudo-core for xc-correction

xc_check: Exchange-correlation functional:
xc_check: GGA Perdew, Burke & Ernzerhof 1996
V l=0 = -2*Zval/r beyond r=  1.4606
V l=1 = -2*Zval/r beyond r=  1.4606
V l=2 = -2*Zval/r beyond r=  1.4606
V l=3 = -2*Zval/r beyond r=  1.4606
All V_l potentials equal beyond r=  1.4606
This should be close to max(r_c) in ps generation
All pots = -2*Zval/r beyond r=  1.4606

VLOCAL1: 99.0% of the norm of Vloc inside     20.347 Ry
VLOCAL1: 99.9% of the norm of Vloc inside     46.372 Ry
atom: Maximum radius for 4*pi*r*r*local-pseudopot. charge    1.76189
atom: Maximum radius for r*vlocal+2*Zval:    1.53550
GHOST: No ghost state for L =  0
GHOST: No ghost state for L =  1
GHOST: No ghost state for L =  2
GHOST: No ghost state for L =  3

KBgen: Kleinman-Bylander projectors: 
   l= 0   rc=  1.634559   el= -1.363963   Ekb=  5.296955   kbcos=  0.335621
   l= 1   rc=  1.614250   el= -0.521451   Ekb= -5.259161   kbcos= -0.433408
   l= 2   rc=  1.718383   el=  0.001991   Ekb= -1.271464   kbcos= -0.007566
   l= 3   rc=  1.761893   el=  0.003093   Ekb= -0.494769   kbcos= -0.001015

KBgen: Total number of  Kleinman-Bylander projectors:   16
atom: -------------------------------------------------------------------------

atom: SANKEY-TYPE ORBITALS:
atom: Selected multiple-zeta basis: split     

SPLIT: Orbitals with angular momentum L= 0

SPLIT: Basis orbitals for state 2s

SPLIT: PAO cut-off radius determined from an
SPLIT: energy shift=  0.007350 Ry

   izeta = 1
                 lambda =    1.000000
                     rc =    4.071465
                 energy =   -1.356470
                kinetic =    1.176977
    potential(screened) =   -2.533447
       potential(ionic) =   -8.057990

   izeta = 2
                 rmatch =    2.905100
              splitnorm =    0.150000
                 energy =   -1.158343
                kinetic =    1.813009
    potential(screened) =   -2.971352
       potential(ionic) =   -8.901931

SPLIT: Orbitals with angular momentum L= 1

SPLIT: Basis orbitals for state 2p

SPLIT: PAO cut-off radius determined from an
SPLIT: energy shift=  0.007350 Ry

   izeta = 1
                 lambda =    1.000000
                     rc =    4.972977
                 energy =   -0.513884
                kinetic =    3.441732
    potential(screened) =   -3.955616
       potential(ionic) =   -9.287901

   izeta = 2
                 rmatch =    3.054066
              splitnorm =    0.150000
                 energy =   -0.318226
                kinetic =    5.125348
    potential(screened) =   -5.443573
       potential(ionic) =  -11.380999

POLgen: Perturbative polarization orbital with L=  2

POLgen: Polarization orbital for state 2p

   izeta = 1
                     rc =    4.972977
                 energy =    1.607437
                kinetic =    3.268125
    potential(screened) =   -1.660688
       potential(ionic) =   -5.973652
atom: Total number of Sankey-type orbitals: 13

atm_pop: Valence configuration (for local Pseudopot. screening):
 2s( 2.00)                                                            
 2p( 3.00)                                                            
Vna: chval, zval:    5.00000   5.00000

Vna:  Cut-off radius for the neutral-atom potential:   4.972977
comcore: Pseudo-core radius Rcore=  1.554824

atom: _________________________________________________________________________

<basis_specs>
===============================================================================
C                    Z=   6    Mass=  12.010        Charge= 0.17977+309
Lmxo=1 Lmxkb= 3    BasisType=split      Semic=F
L=0  Nsemic=0  Cnfigmx=2
          n=1  nzeta=2  polorb=0
            splnorm:   0.15000    
               vcte:    0.0000    
               rinn:    0.0000    
                rcs:    0.0000      0.0000    
            lambdas:    1.0000      1.0000    
L=1  Nsemic=0  Cnfigmx=2
          n=1  nzeta=2  polorb=1
            splnorm:   0.15000    
               vcte:    0.0000    
               rinn:    0.0000    
                rcs:    0.0000      0.0000    
            lambdas:    1.0000      1.0000    
-------------------------------------------------------------------------------
L=0  Nkbl=1  erefs: 0.17977+309
L=1  Nkbl=1  erefs: 0.17977+309
L=2  Nkbl=1  erefs: 0.17977+309
L=3  Nkbl=1  erefs: 0.17977+309
===============================================================================
</basis_specs>

atom: Called for C                     (Z =   6)

read_vps: Pseudopotential generation method:
read_vps: ATM3      Troullier-Martins                       
Total valence charge:    4.00000

read_vps: Pseudopotential includes a core correction:
read_vps: Pseudo-core for xc-correction

xc_check: Exchange-correlation functional:
xc_check: GGA Perdew, Burke & Ernzerhof 1996
V l=0 = -2*Zval/r beyond r=  1.5227
V l=1 = -2*Zval/r beyond r=  1.5227
V l=2 = -2*Zval/r beyond r=  1.5227
V l=3 = -2*Zval/r beyond r=  1.5038
All V_l potentials equal beyond r=  1.5227
This should be close to max(r_c) in ps generation
All pots = -2*Zval/r beyond r=  1.5227

VLOCAL1: 99.0% of the norm of Vloc inside     18.722 Ry
VLOCAL1: 99.9% of the norm of Vloc inside     42.668 Ry
atom: Maximum radius for 4*pi*r*r*local-pseudopot. charge    1.83678
atom: Maximum radius for r*vlocal+2*Zval:    1.58088
GHOST: No ghost state for L =  0
GHOST: No ghost state for L =  1
GHOST: No ghost state for L =  2
GHOST: No ghost state for L =  3

KBgen: Kleinman-Bylander projectors: 
   l= 0   rc=  1.704034   el= -1.009801   Ekb=  5.335044   kbcos=  0.316824
   l= 1   rc=  1.704034   el= -0.388707   Ekb= -3.785862   kbcos= -0.366464
   l= 2   rc=  1.791422   el=  0.001971   Ekb= -0.970471   kbcos= -0.009212
   l= 3   rc=  1.859892   el=  0.003065   Ekb= -0.399525   kbcos= -0.001223

KBgen: Total number of  Kleinman-Bylander projectors:   16
atom: -------------------------------------------------------------------------

atom: SANKEY-TYPE ORBITALS:
atom: Selected multiple-zeta basis: split     

SPLIT: Orbitals with angular momentum L= 0

SPLIT: Basis orbitals for state 2s

SPLIT: PAO cut-off radius determined from an
SPLIT: energy shift=  0.007350 Ry

   izeta = 1
                 lambda =    1.000000
                     rc =    4.632753
                 energy =   -1.002270
                kinetic =    0.855760
    potential(screened) =   -1.858031
       potential(ionic) =   -5.417575

   izeta = 2
                 rmatch =    3.431921
              splitnorm =    0.150000
                 energy =   -0.867111
                kinetic =    1.300804
    potential(screened) =   -2.167915
       potential(ionic) =   -5.962684

SPLIT: Orbitals with angular momentum L= 1

SPLIT: Basis orbitals for state 2p

SPLIT: PAO cut-off radius determined from an
SPLIT: energy shift=  0.007350 Ry

   izeta = 1
                 lambda =    1.000000
                     rc =    5.658549
                 energy =   -0.381140
                kinetic =    2.399701
    potential(screened) =   -2.780841
       potential(ionic) =   -6.206085

   izeta = 2
                 rmatch =    3.653288
              splitnorm =    0.150000
                 energy =   -0.249149
                kinetic =    3.542762
    potential(screened) =   -3.791911
       potential(ionic) =   -7.581078

POLgen: Perturbative polarization orbital with L=  2

POLgen: Polarization orbital for state 2p

   izeta = 1
                     rc =    5.658549
                 energy =    1.109913
                kinetic =    2.304789
    potential(screened) =   -1.194876
       potential(ionic) =   -4.013592
atom: Total number of Sankey-type orbitals: 13

atm_pop: Valence configuration (for local Pseudopot. screening):
 2s( 2.00)                                                            
 2p( 2.00)                                                            
Vna: chval, zval:    4.00000   4.00000

Vna:  Cut-off radius for the neutral-atom potential:   5.658549
comcore: Pseudo-core radius Rcore=  1.791422

atom: _________________________________________________________________________

prinput: Basis input ----------------------------------------------------------

PAO.BasisType split     

%block ChemicalSpeciesLabel
    1    7 N                       # Species index, atomic number, species label
    2    6 C                       # Species index, atomic number, species label
%endblock ChemicalSpeciesLabel

%block PAO.Basis                 # Define Basis set
N                     2                    # Species label, number of l-shells
 n=2   0   2                         # n, l, Nzeta 
   4.071      2.905   
   1.000      1.000   
 n=2   1   2 P   1                   # n, l, Nzeta, Polarization, NzetaPol
   4.973      3.054   
   1.000      1.000   
C                     2                    # Species label, number of l-shells
 n=2   0   2                         # n, l, Nzeta 
   4.633      3.432   
   1.000      1.000   
 n=2   1   2 P   1                   # n, l, Nzeta, Polarization, NzetaPol
   5.659      3.653   
   1.000      1.000   
%endblock PAO.Basis

prinput: ----------------------------------------------------------------------

coor:   Atomic-coordinates input format  =     Fractional

siesta: Atomic coordinates (Bohr) and species
siesta:     -2.35420  38.89134   0.00000  1        1
siesta:     -2.35420  41.57980   0.00000  1        2
siesta:      2.30256  38.89134   0.00000  1        3
siesta:      2.30256  41.57980   0.00000  1        4
siesta:      4.63094  34.85847   0.00000  1        5
siesta:      4.63094  37.54693   0.00000  1        6
siesta:      6.95932  30.82560   0.00000  1        7
siesta:      6.95932  33.51406   0.00000  1        8
siesta:     -4.68258  34.85847   0.00000  1        9
siesta:     -4.68258  37.54693   0.00000  1       10
siesta:     -9.33934  29.48119   0.00000  1       11
siesta:      4.63094  29.48119   0.00000  1       12
siesta:     -0.02582  29.48119   0.00000  1       13
siesta:     -4.68258  29.48119   0.00000  1       14
siesta:      2.30256  30.82560   0.00000  1       15
siesta:      2.30256  33.51406   0.00000  1       16
siesta:     -2.35420  30.82560   0.00000  1       17
siesta:     -2.35420  33.51406   0.00000  1       18
siesta:     -7.01096  30.82560   0.00000  1       19
siesta:     -7.01096  33.51406   0.00000  1       20
siesta:     -0.02582  34.85847   0.00000  1       21
siesta:     -0.02582  37.54693   0.00000  1       22
siesta:     -0.02582  42.92421   0.00000  1       23
siesta:     -0.02582  45.61267   0.00000  1       24
siesta:     -0.02582   2.59549   0.00000  2       25
siesta:     -0.02582   5.28395   0.00000  2       26
siesta:      9.28770  26.79272   0.00000  2       27
siesta:      9.28770  29.48119   0.00000  2       28
siesta:      2.30256   6.62836   0.00000  2       29
siesta:      2.30256   9.31683   0.00000  2       30
siesta:      4.63094  10.66124   0.00000  2       31
siesta:      4.63094  13.34970   0.00000  2       32
siesta:      6.95932  14.69411   0.00000  2       33
siesta:      6.95932  17.38257   0.00000  2       34
siesta:      9.28770  18.72698   0.00000  2       35
siesta:      9.28770  21.41544   0.00000  2       36
siesta:     11.61608  22.75985   0.00000  2       37
siesta:     11.61608  25.44831   0.00000  2       38
siesta:     -2.35420   6.62836   0.00000  2       39
siesta:     -2.35420   9.31683   0.00000  2       40
siesta:     -0.02582  10.66124   0.00000  2       41
siesta:     -0.02582  13.34970   0.00000  2       42
siesta:      2.30256  14.69411   0.00000  2       43
siesta:      2.30256  17.38257   0.00000  2       44
siesta:      4.63094  18.72698   0.00000  2       45
siesta:      4.63094  21.41544   0.00000  2       46
siesta:      6.95932  22.75985   0.00000  2       47
siesta:      6.95932  25.44831   0.00000  2       48
siesta:     -4.68258  10.66124   0.00000  2       49
siesta:     -4.68258  13.34970   0.00000  2       50
siesta:     -2.35420  14.69411   0.00000  2       51
siesta:     -2.35420  17.38257   0.00000  2       52
siesta:     -0.02582  18.72698   0.00000  2       53
siesta:     -0.02582  21.41544   0.00000  2       54
siesta:      2.30256  22.75985   0.00000  2       55
siesta:      2.30256  25.44831   0.00000  2       56
siesta:     -7.01096  14.69411   0.00000  2       57
siesta:     -7.01096  17.38257   0.00000  2       58
siesta:     -4.68258  18.72698   0.00000  2       59
siesta:     -4.68258  21.41544   0.00000  2       60
siesta:     -2.35420  22.75985   0.00000  2       61
siesta:     -2.35420  25.44831   0.00000  2       62
siesta:     -9.33934  18.72698   0.00000  2       63
siesta:     -9.33934  21.41544   0.00000  2       64
siesta:     -7.01096  22.75985   0.00000  2       65
siesta:     -7.01096  25.44831   0.00000  2       66
siesta:    -11.66772  22.75985   0.00000  2       67
siesta:    -11.66772  25.44831   0.00000  2       68
siesta:     -9.33934  26.79272   0.00000  2       69
siesta:      4.63094  26.79272   0.00000  2       70
siesta:     -0.02582  26.79272   0.00000  2       71
siesta:     -4.68258  26.79272   0.00000  2       72

siesta: System type = slab      

initatomlists: Number of atoms, orbitals, and projectors:     72   936  1152

siesta: ******************** Simulation parameters ****************************
siesta:
siesta: The following are some of the parameters of the simulation.
siesta: A complete list of the parameters used, including default values,
siesta: can be found in file out.fdf
siesta:
redata: Non-Collinear-spin run           =     F
redata: SpinPolarized (Up/Down) run      =     F
redata: Number of spin components        =     1
redata: Long output                      =     F
redata: Number of Atomic Species         =        2
redata: Charge density info will appear in .RHO file
redata: Write Mulliken Pop.              =     NO
redata: Mesh Cutoff                      =   200.0000  Ry
redata: Net charge of the system         =     0.0000 |e|
redata: Max. number of SCF Iter          =      500
redata: SCF convergence failure will abort job
redata: Performing Pulay mixing using    =    10 iterations
redata: Mix DM in first SCF step ?       =     F
redata: Write Pulay info on disk?        =     F
redata: Discard 1st Pulay DM after  kick =     F
redata: New DM Mixing Weight             =     0.0500
redata: New DM Occupancy tolerance       = 0.000000000001
redata: No kicks to SCF
redata: DM Mixing Weight for Kicks       =     0.5000
redata: DM Tolerance for SCF             =     0.000100
redata: Require Energy convergence for SCF =     F
redata: DM Energy tolerance for SCF      =     0.000100 eV
redata: Require Harris convergence for SCF =     F
redata: DM Harris energy tolerance for SCF =     0.000100 eV
redata: Using Saved Data (generic)   =     F
redata: Use continuation files for DM    =     T
redata: Neglect nonoverlap interactions  =     F
redata: Method of Calculation            =     Diagonalization
redata: Divide and Conquer               =     T
redata: Electronic Temperature           =     0.0019  Ry
redata: Fix the spin of the system       =     F
redata: Dynamics option                  =     Verlet MD run
redata: Initial MD time step             =        1
redata:   Final MD time step             =        1
redata: Length of MD time step           =     1.0000  fs
redata: Initial Temperature of MD run    =     0.0000  K
redata: Perform a MD quench              =     F
redata: ***********************************************************************
Total number of electrons:   312.000000
Total ionic charge:   312.000000

* ProcessorY, Blocksize:    2  24

k-point displ. along   1 input, could be:     0.50    0.00
k-point displ. along   2 input, could be:     0.50    0.00
 Kpoints in:          231 . Kpoints trimmed:          231

siesta: k-grid: Number of k-points =   231
siesta: k-grid: Cutoff (effective) =     5.000 Ang
siesta: k-grid: Supercell and displacements
siesta: k-grid:   21   0   0      0.500
siesta: k-grid:    0  21   0      0.500
siesta: k-grid:    0   0   1      0.000
Naive supercell factors:     2    2    2

superc: Internal auxiliary supercell:     2 x     2 x     2  =       8
superc: Number of atoms, orbitals, and projectors:    576   7488   9216

* Maximum dynamic memory allocated =     4 MB

siesta:                 ==============================
                            Begin MD step =      1
                        ==============================

superc: Internal auxiliary supercell:     2 x     2 x     2  =       8
superc: Number of atoms, orbitals, and projectors:    576   7488   9216

outcell: Unit cell vectors (Ang):
       12.804619    7.392750    0.000000
        0.000000   14.785500    0.000000
        0.000000    0.000000   10.000000

outcell: Cell vector modules (Ang)   :   14.785500   14.785500   10.000000
outcell: Cell angles (23,13,12) (deg):     90.0000     90.0000     60.0000
outcell: Cell volume (Ang**3)        :   1893.2269
New_DM. Step:     1
Initializing Density Matrix...

InitMesh: MESH =   120 x   120 x    90 =     1296000
InitMesh: Mesh cutoff (required, used) =   200.000   223.865 Ry

* Maximum dynamic memory allocated =   177 MB

stepf: Fermi-Dirac step function

siesta: Program's energy decomposition (eV):
siesta: Ebs     =     -6458.776609
siesta: Eions   =     22260.935331
siesta: Ena     =      4996.604882
siesta: Ekin    =      8392.322035
siesta: Enl     =       -82.557575
siesta: DEna    =        -0.000015
siesta: DUscf   =         0.000000
siesta: DUext   =         0.000000
siesta: Exc     =     -4788.121640
siesta: eta*DQ  =         0.000000
siesta: Emadel  =         0.000000
siesta: Emeta   =         0.000000
siesta: Emolmec =         0.000000
siesta: Ekinion =         0.000000
siesta: Eharris =    -13334.477005
siesta: Etot    =    -13742.687644
siesta: FreeEng =    -13742.687644

siesta: iscf   Eharris(eV)      E_KS(eV)   FreeEng(eV)   dDmax  Ef(eV)
siesta:    1   -13334.4770   -13742.6876   -13742.6876  5.6377 -6.4446
timer: Routine,Calls,Time,% = IterSCF        1    3369.522  99.66
elaps: Routine,Calls,Wall,% = IterSCF        1     422.056  99.65
siesta:    2   -14494.6896   -12971.1910   -12971.1915  9.8443 -1.0508
siesta:    3   -13214.9146   -13465.7836   -13465.8004  1.4490 -4.2125
siesta:    4   -13197.9946   -13386.1048   -13386.1511  0.9134 -3.7222
siesta:    5   -13183.2207   -13352.3380   -13352.3747  0.7516 -3.7896
siesta:    6   -13180.0047   -13334.6635   -13334.7330  0.9133 -3.7757
siesta:    7   -13179.0125   -13334.1666   -13334.1959  0.7850 -3.8727
siesta:    8   -13176.4484   -13305.0574   -13305.0799  0.6325 -3.8866
siesta:    9   -13177.1138   -13260.3970   -13260.4061  0.4846 -3.9190
siesta:   10   -13178.1198   -13224.5039   -13224.5660  0.5544 -3.8564
siesta:   11   -13177.2310   -13191.0850   -13191.1077  0.4603 -3.8121
siesta:   12   -13176.1508   -13184.8052   -13184.8128  0.2915 -3.8641
siesta:   13   -13175.7453   -13182.1326   -13182.1790  0.2559 -3.8553
siesta:   14   -13174.9864   -13176.0054   -13176.0485  0.2590 -3.8113
siesta:   15   -13174.7507   -13174.5128   -13174.5625  0.3030 -3.7828
siesta:   16   -13174.4840   -13173.6763   -13173.7045  0.2081 -3.8015
siesta:   17   -13174.4190   -13174.4138   -13174.4697  0.1822 -3.8261
siesta:   18   -13174.3435   -13173.6812   -13173.7258  0.0664 -3.8376
siesta:   19   -13174.3308   -13174.2564   -13174.3172  0.1536 -3.8466
siesta:   20   -13174.3113   -13175.7945   -13175.8600  0.0696 -3.8595
siesta:   21   -13174.3181   -13177.6742   -13177.7345  0.0582 -3.8687
siesta:   22   -13174.3041   -13177.5409   -13177.5966  0.0272 -3.8598
siesta:   23   -13174.3039   -13176.5436   -13176.6054  0.0368 -3.8503
siesta:   24   -13174.3015   -13175.8974   -13175.9609  0.0245 -3.8484
siesta:   25   -13174.3019   -13174.8110   -13174.8750  0.0082 -3.8450
siesta:   26   -13174.3005   -13174.5420   -13174.6041  0.0206 -3.8480
siesta:   27   -13174.3001   -13174.4586   -13174.5207  0.0060 -3.8490
siesta:   28   -13174.2992   -13174.4955   -13174.5576  0.0133 -3.8504
siesta:   29   -13174.2995   -13174.5688   -13174.6318  0.0070 -3.8496
siesta:   30   -13174.2996   -13174.5525   -13174.6151  0.0041 -3.8489
siesta:   31   -13174.2996   -13174.5395   -13174.6020  0.0013 -3.8487
siesta:   32   -13174.2997   -13174.5183   -13174.5806  0.0007 -3.8487
siesta:   33   -13174.2997   -13174.4348   -13174.4971  0.0007 -3.8489
siesta:   34   -13174.2996   -13174.3741   -13174.4365  0.0003 -3.8491
siesta:   35   -13174.2996   -13174.3489   -13174.4112  0.0002 -3.8492
siesta:   36   -13174.2997   -13174.3135   -13174.3758  0.0001 -3.8493
siesta:   37   -13174.2997   -13174.3092   -13174.3715  0.0002 -3.8493
siesta:   38   -13174.2997   -13174.3049   -13174.3672  0.0001 -3.8493
siesta:   39   -13174.2996   -13174.3023   -13174.3646  0.0001 -3.8493
siesta:   40   -13174.2997   -13174.3004   -13174.3628  0.0001 -3.8493

siesta: E_KS(eV) =           -13174.2995

siesta: E_KS - E_eggbox =    -13174.2995

siesta: Atomic forces (eV/Ang):
----------------------------------------
   Tot   -0.238394   -0.143053    0.000000
----------------------------------------
   Max  690.426026
   Res  193.618175    sqrt( Sum f_i^2 / 3N )
----------------------------------------
   Max  690.426026    constrained

Stress-tensor-Voigt (kbar):     -644.49    -3568.33       -0.05        0.73        0.00        0.00
(Free)E + p*V (eV/cell)   -11514.9846
Target enthalpy (eV/cell)   -13174.3618

siesta: Stress tensor (static) (eV/Ang**3):
        -0.402255    0.000453    0.000000
         0.000453   -2.227155    0.000000
         0.000000    0.000000   -0.000033

siesta: Pressure (static):       1404.29242843  kBar

siesta: Stress tensor (total) (eV/Ang**3):
        -0.402255    0.000453    0.000000
         0.000453   -2.227155    0.000000
         0.000000    0.000000   -0.000033

siesta: Pressure (total):       1404.29242843  kBar

siesta: Temp_ion =       0.000 K

* Maximum dynamic memory allocated =   194 MB
Computing bands...

siesta: Program's energy decomposition (eV):
siesta: Ebs     =     -5071.953865
siesta: Eions   =     22260.935331
siesta: Ena     =      4996.604882
siesta: Ekin    =     11731.260024
siesta: Enl     =     -1879.641701
siesta: DEna    =      -898.258910
siesta: DUscf   =       124.531338
siesta: DUext   =         0.000000
siesta: Exc     =     -4987.859792
siesta: eta*DQ  =         0.000000
siesta: Emadel  =         0.000000
siesta: Emeta   =         0.000000
siesta: Emolmec =         0.000000
siesta: Ekinion =         0.000000
siesta: Eharris =    -13174.299652
siesta: Etot    =    -13174.299491
siesta: FreeEng =    -13174.361835

siesta: Final energy (eV):
siesta:  Band Struct. =   -5071.953865
siesta:       Kinetic =   11731.260024
siesta:       Hartree =   38530.170871
siesta:    Ext. field =       0.000000
siesta:   Exch.-corr. =   -4987.859792
siesta:  Ion-electron =  -88180.559628
siesta:       Ion-ion =   29732.689035
siesta:       Ekinion =       0.000000
siesta:         Total =  -13174.299491

siesta: Atomic forces (eV/Ang):
siesta:      1    0.217194  106.177654    0.000000
siesta:      2  -25.957452 -657.901562    0.000000
siesta:      3   -0.009932  106.572211    0.000000
siesta:      4   26.121428 -657.880166    0.000000
siesta:      5   30.264207    6.233129    0.000000
siesta:      6   24.677388 -655.820572    0.000000
siesta:      7    3.062789    0.284945    0.000000
siesta:      8    0.824298   -3.332902    0.000000
siesta:      9  -30.443390    6.138503    0.000000
siesta:     10  -24.961115 -655.296351    0.000000
siesta:     11    1.395988    1.129072    0.000000
siesta:     12    0.862145   -3.164576    0.000000
siesta:     13    0.785175 -690.426026    0.000000
siesta:     14   -2.222901   -2.681917    0.000000
siesta:     15   32.589597    9.716414    0.000000
siesta:     16    1.492385 -679.110793    0.000000
siesta:     17  -33.108131   10.519153    0.000000
siesta:     18   -2.174187 -680.014769    0.000000
siesta:     19   -1.776904    0.478496    0.000000
siesta:     20   -1.270295   -4.660040    0.000000
siesta:     21    0.065370  104.537836    0.000000
siesta:     22   -0.407721 -665.265227    0.000000
siesta:     23    0.066794  108.515277    0.000000
siesta:     24   -0.110292 -644.419590    0.000000
siesta:     25    0.168902  641.835163    0.000000
siesta:     26    0.326314 -116.549512    0.000000
siesta:     27    1.377562    2.322292    0.000000
siesta:     28   -1.850738    2.517255    0.000000
siesta:     29   20.214170  654.438868    0.000000
siesta:     30   -1.735242 -114.602229    0.000000
siesta:     31   22.047351  658.060757    0.000000
siesta:     32   26.277908   -3.591970    0.000000
siesta:     33   -2.703059   -1.361759    0.000000
siesta:     34    1.379228    0.075482    0.000000
siesta:     35   -1.132863    0.246684    0.000000
siesta:     36    1.637822   -2.681953    0.000000
siesta:     37    0.133118    7.794695    0.000000
siesta:     38   -0.395105   -6.967112    0.000000
siesta:     39  -19.207654  655.445256    0.000000
siesta:     40    1.949900 -114.536777    0.000000
siesta:     41   -0.157782  676.376753    0.000000
siesta:     42   -0.209181 -114.901368    0.000000
siesta:     43   -1.978933  686.357596    0.000000
siesta:     44   24.847291   -4.236139    0.000000
siesta:     45   -1.516620    3.071465    0.000000
siesta:     46    0.526133    0.140437    0.000000
siesta:     47   -0.456019    0.661530    0.000000
siesta:     48   -0.343386   -0.430110    0.000000
siesta:     49  -22.286445  657.984557    0.000000
siesta:     50  -26.202637   -3.654083    0.000000
siesta:     51    2.018478  686.529363    0.000000
siesta:     52  -24.983747   -4.063950    0.000000
siesta:     53    0.079599  684.313487    0.000000
siesta:     54   -0.282467    1.014899    0.000000
siesta:     55    0.684450   -0.068510    0.000000
siesta:     56   -0.032847    0.638208    0.000000
siesta:     57    2.619218   -1.288813    0.000000
siesta:     58   -1.354802   -0.202678    0.000000
siesta:     59    1.561873    3.162701    0.000000
siesta:     60   -0.598467    0.150842    0.000000
siesta:     61   -0.325370   -0.531382    0.000000
siesta:     62   -0.332667    1.121624    0.000000
siesta:     63    1.006092    0.318825    0.000000
siesta:     64   -1.822762   -2.659324    0.000000
siesta:     65    0.426573    0.862350    0.000000
siesta:     66    0.048532   -0.457290    0.000000
siesta:     67    0.098195    7.406080    0.000000
siesta:     68    0.642922   -5.611592    0.000000
siesta:     69   -0.827712    2.644319    0.000000
siesta:     70    0.729944    0.744287    0.000000
siesta:     71    0.126537    1.474536    0.000000
siesta:     72   -0.412442    0.214987    0.000000
siesta: ----------------------------------------
siesta:    Tot   -0.238394   -0.143053    0.000000

siesta: Stress tensor (static) (eV/Ang**3):
siesta:    -0.402255    0.000453    0.000000
siesta:     0.000453   -2.227155    0.000000
siesta:     0.000000    0.000000   -0.000033

siesta: Cell volume =       1893.226884 Ang**3

siesta: Pressure (static):
siesta:                Solid            Molecule  Units
siesta:           0.00954600          0.15679215  Ry/Bohr**3
siesta:           0.87648092         14.39612244  eV/Ang**3
siesta:        1404.29242843      23065.38031022  kBar
(Free)E+ p_basis*V_orbitals  =      -13147.055344
(Free)Eharris+ p_basis*V_orbitals  =      -13147.054595

siesta: Electric dipole (a.u.)  =    0.000000    0.000000    0.000000
siesta: Electric dipole (Debye) =    0.000000    0.000000    0.000000

* Maximum dynamic memory allocated : Node    0 =   194 MB
* Maximum dynamic memory allocated : Node    1 =    70 MB
* Maximum dynamic memory allocated : Node    2 =    71 MB
* Maximum dynamic memory allocated : Node    3 =   182 MB
* Maximum dynamic memory allocated : Node    4 =   189 MB
* Maximum dynamic memory allocated : Node    5 =    72 MB
* Maximum dynamic memory allocated : Node    6 =    73 MB
* Maximum dynamic memory allocated : Node    7 =   176 MB

* Maximum memory occured during matrixMtoO                    

timer: CPU execution times:
timer:  Routine       Calls   Time/call    Tot.time        %
timer:  siesta            1  133040.396  133040.396   100.00
timer:  Setup             1       3.857       3.857     0.00
timer:  bands             3     243.856     731.568     0.55
timer:  writewave         1       0.046       0.046     0.00
timer:  KSV_init          1       0.006       0.006     0.00
timer:  IterMD            1  132299.738  132299.738    99.44
timer:  hsparse           1       0.283       0.283     0.00
timer:  overlap           1       7.131       7.131     0.01
timer:  IterSCF          40    3303.937  132157.468    99.34
timer:  kinefsm           2       3.670       7.340     0.01
timer:  nlefsm            2      17.080      34.161     0.03
timer:  DHSCF            41      68.117    2792.807     2.10
timer:  DHSCF1            1       0.746       0.746     0.00
timer:  DHSCF2            1      29.424      29.424     0.02
timer:  REORD           330       0.005       1.658     0.00
timer:  POISON           42       0.869      36.480     0.03
timer:  DHSCF3           41      66.695    2734.515     2.06
timer:  rhoofd           41      14.801     606.832     0.46
timer:  cellXC           41       3.241     132.879     0.10
timer:  vmat             41      31.069    1273.827     0.96
timer:  MolMec            2       0.000       0.000     0.00
timer:  diagon           40    3234.494  129379.744    97.25
timer:  c-eigval       9361       6.036   56505.147    42.47
timer:  c-buildHS      9361       0.046     432.200     0.32
timer:  cdiag         18601       6.171  114786.954    86.28
timer:  cdiag1        18601       0.385    7158.946     5.38
timer:  cdiag2        18601       1.770   32930.199    24.75
timer:  cdiag3        18601       3.744   69645.780    52.35
timer:  cdiag4        18601       0.152    2836.622     2.13
timer:  c-eigvec       9240       6.392   59063.124    44.39
timer:  c-buildD       9240       1.569   14496.853    10.90
timer:  DHSCF4            1      27.355      27.355     0.02
timer:  dfscf             1      25.506      25.506     0.02
timer:  overfsm           1       0.379       0.379     0.00
timer:  optical           1       4.602       4.602     0.00
  

elaps: ELAPSED times:
elaps:  Routine       Calls   Time/call    Tot.time        %
elaps:  siesta            1   16661.471   16661.471   100.00
elaps:  Setup             1       0.501       0.501     0.00
elaps:  bands             3      30.559      91.676     0.55
elaps:  writewave         1       0.006       0.006     0.00
elaps:  KSV_init          1       0.001       0.001     0.00
elaps:  IterMD            1   16568.689   16568.689    99.44
elaps:  hsparse           1       0.038       0.038     0.00
elaps:  overlap           1       0.900       0.900     0.01
elaps:  IterSCF          40     413.775   16550.985    99.34
elaps:  kinefsm           2       0.464       0.927     0.01
elaps:  nlefsm            2       2.157       4.314     0.03
elaps:  DHSCF            41       8.613     353.126     2.12
elaps:  DHSCF1            1       0.095       0.095     0.00
elaps:  DHSCF2            1       3.683       3.683     0.02
elaps:  REORD           330       0.001       0.217     0.00
elaps:  POISON           42       0.109       4.591     0.03
elaps:  DHSCF3           41       8.353     342.480     2.06
elaps:  rhoofd           41       3.909     160.252     0.96
elaps:  cellXC           41       0.406      16.627     0.10
elaps:  vmat             41       3.891     159.541     0.96
elaps:  MolMec            2       0.000       0.000     0.00
elaps:  diagon           40     405.071   16202.821    97.25
elaps:  c-eigval       9361       0.756    7076.222    42.47
elaps:  c-buildHS      9361       0.006      60.616     0.36
elaps:  cdiag         18601       0.768   14293.414    85.79
elaps:  cdiag1        18601       0.048     893.402     5.36
elaps:  cdiag2        18601       0.222    4124.925    24.76
elaps:  cdiag3        18601       0.470    8733.446    52.42
elaps:  cdiag4        18601       0.019     352.438     2.12
elaps:  c-eigvec       9240       0.793    7325.458    43.97
elaps:  c-buildD       9240       0.204    1886.488    11.32
elaps:  DHSCF4            1       6.770       6.770     0.04
elaps:  dfscf             1       6.385       6.385     0.04
elaps:  overfsm           1       0.051       0.051     0.00
elaps:  optical           1       0.001       0.001     0.00
  
>> End of run:  24-APR-2016   3:14:07
