Siesta Version:                                        siesta-3.2-pl-3
Architecture  : x86_64-unknown-linux-gnu--unknown
Compiler flags: mpiifort -g -O2 -fPIC -xSSE4.1 -fp-model source -shared-intel 
PARALLEL version

* Running on    8 nodes in parallel
>> Start of run:  25-APR-2016   4:36:52

                           ***********************       
                           *  WELCOME TO SIESTA  *       
                           ***********************       

reinit: Reading from standard input
************************** Dump of input data file ****************************
#(1) General system descriptors
SystemName            GRP_doping    # Descriptive name of the system
SystemLabel           GRP_doping    # Short name for naming files
%include STRUCT.fdf
%include KPT.fdf
%include BASIS.fdf
#%include TS.fdf # for transiesta calculation
#(4) DFT, Grid, SCF
XC.functional         GGA           # LDA or GGA (default = LDA)
XC.authors            PBE           # CA (Ceperley-Aldr) = PZ
                                    #    (Perdew-Zunger) - LDA - Default
                                    # PW92 (Perdew-Wang-92) - LDA
                                    # PBE (Perdew-Burke-Ernzerhof) - GGA
MeshCutoff            200.000000    Ry      # Default: 50.0 Ry ~ 0.444 Bohr
                                    #         100.0 Ry ~ 0.314 Bohr
MaxSCFIterations      500           # Default: 50
DM.MixingWeight       0.05          # Default: 0.25
DM.NumberPulay        10            # Default: 0
DM.PulayOnFile        F             # SystemLabel.P1, SystemLabel.P2
DM.Tolerance          1.d-4         # Default: 1.d-4
DM.UseSaveDM          .true.        # because of the bug
SCFMustConverge       .true.
NeglNonOverlapInt     F             # Default: F
#(5) Eigenvalue problem: order-N or diagonalization
SolutionMethod        Diagon        # or Transiesta
ElectronicTemperature 300.0 K       # Default: 300.0 K
#(6) Molecular dynamics and relaxations
#MD.TypeOfRun          CG            # Type of dynamics:
#MD.VariableCell       F
#MD.NumCGsteps         0           # 0 for single-point / 100 for gopt
#MD.MaxCGDispl         0.2 Bohr      # Default: 0.2 Bohr
#MD.MaxForceTol        0.02 eV/Ang   # Default: 0.04 eV/Ang
#MD.MaxStressTol       1.0 GPa       # Default: 1.0 GPa
# Geometry Constraints
#%block GeometryConstraints
#	position from 1 to 44
#%endblock GeometryConstraints
BandLinesScale   pi/a
%block BandLines
 1   0.00000000  0.00000000  0.00000000
50   0.00000000  0.07809418  0.00000000
50   0.04509075  0.07809242  0.00000000
20   0.00000000  0.00000000  0.00000000
%endblock BandLines
************************** End of input data file *****************************

reinit: -----------------------------------------------------------------------
reinit: System Name: GRP_doping
reinit: -----------------------------------------------------------------------
reinit: System Label: GRP_doping                                                  
reinit: -----------------------------------------------------------------------

initatom: Reading input for the pseudopotentials and atomic orbitals ----------
 Species number:            1  Label: B Atomic number:           5
 Species number:            2  Label: C Atomic number:           6
Ground state valence configuration:   2s02  2p01
Reading pseudopotential information in formatted form from B.psf

Valence configuration for pseudopotential generation:
2s( 2.00) rc: 1.74
2p( 1.00) rc: 1.74
3d( 0.00) rc: 1.74
4f( 0.00) rc: 1.74
Ground state valence configuration:   2s02  2p02
Reading pseudopotential information in formatted form from C.psf

Valence configuration for pseudopotential generation:
2s( 2.00) rc: 1.54
2p( 2.00) rc: 1.54
3d( 0.00) rc: 1.54
4f( 0.00) rc: 1.54
For B, standard SIESTA heuristics set lmxkb to 3
 (one more than the basis l, including polarization orbitals).
Use PS.lmax or PS.KBprojectors blocks to override.
For C, standard SIESTA heuristics set lmxkb to 3
 (one more than the basis l, including polarization orbitals).
Use PS.lmax or PS.KBprojectors blocks to override.

<basis_specs>
===============================================================================
B                    Z=   5    Mass=  10.810        Charge= 0.17977+309
Lmxo=1 Lmxkb= 3    BasisType=split      Semic=F
L=0  Nsemic=0  Cnfigmx=2
          n=1  nzeta=2  polorb=0
            splnorm:   0.15000    
               vcte:    0.0000    
               rinn:    0.0000    
                rcs:    0.0000      0.0000    
            lambdas:    1.0000      1.0000    
L=1  Nsemic=0  Cnfigmx=2
          n=1  nzeta=2  polorb=1
            splnorm:   0.15000    
               vcte:    0.0000    
               rinn:    0.0000    
                rcs:    0.0000      0.0000    
            lambdas:    1.0000      1.0000    
-------------------------------------------------------------------------------
L=0  Nkbl=1  erefs: 0.17977+309
L=1  Nkbl=1  erefs: 0.17977+309
L=2  Nkbl=1  erefs: 0.17977+309
L=3  Nkbl=1  erefs: 0.17977+309
===============================================================================
</basis_specs>

atom: Called for B                     (Z =   5)

read_vps: Pseudopotential generation method:
read_vps: ATM3      Troullier-Martins                       
Total valence charge:    3.00000

read_vps: Pseudopotential includes a core correction:
read_vps: Pseudo-core for xc-correction

xc_check: Exchange-correlation functional:
xc_check: GGA Perdew, Burke & Ernzerhof 1996
V l=0 = -2*Zval/r beyond r=  1.7165
V l=1 = -2*Zval/r beyond r=  1.7165
V l=2 = -2*Zval/r beyond r=  1.7165
V l=3 = -2*Zval/r beyond r=  1.6951
All V_l potentials equal beyond r=  1.7165
This should be close to max(r_c) in ps generation
All pots = -2*Zval/r beyond r=  1.7165

VLOCAL1: 99.0% of the norm of Vloc inside     14.733 Ry
VLOCAL1: 99.9% of the norm of Vloc inside     33.577 Ry
atom: Maximum radius for 4*pi*r*r*local-pseudopot. charge    2.04484
atom: Maximum radius for r*vlocal+2*Zval:    1.75994
GHOST: No ghost state for L =  0
GHOST: No ghost state for L =  1
GHOST: No ghost state for L =  2
GHOST: No ghost state for L =  3

KBgen: Kleinman-Bylander projectors: 
   l= 0   rc=  1.897051   el= -0.693730   Ekb=  4.595746   kbcos=  0.286105
   l= 1   rc=  1.920920   el= -0.265236   Ekb= -2.350715   kbcos= -0.315747
   l= 2   rc=  2.044840   el=  0.002055   Ekb= -0.690767   kbcos= -0.013822
   l= 3   rc=  2.149707   el=  0.003188   Ekb= -0.315358   kbcos= -0.002055

KBgen: Total number of  Kleinman-Bylander projectors:   16
atom: -------------------------------------------------------------------------

atom: SANKEY-TYPE ORBITALS:
atom: Selected multiple-zeta basis: split     

SPLIT: Orbitals with angular momentum L= 0

SPLIT: Basis orbitals for state 2s

SPLIT: PAO cut-off radius determined from an
SPLIT: energy shift=  0.007350 Ry

   izeta = 1
                 lambda =    1.000000
                     rc =    5.422032
                 energy =   -0.686029
                kinetic =    0.576707
    potential(screened) =   -1.262736
       potential(ionic) =   -3.271094

   izeta = 2
                 rmatch =    4.222573
              splitnorm =    0.150000
                 energy =   -0.602132
                kinetic =    0.858975
    potential(screened) =   -1.461107
       potential(ionic) =   -3.582536

SPLIT: Orbitals with angular momentum L= 1

SPLIT: Basis orbitals for state 2p

SPLIT: PAO cut-off radius determined from an
SPLIT: energy shift=  0.007350 Ry

   izeta = 1
                 lambda =    1.000000
                     rc =    6.790259
                 energy =   -0.258578
                kinetic =    1.481412
    potential(screened) =   -1.739989
       potential(ionic) =   -3.657461

   izeta = 2
                 rmatch =    4.608740
              splitnorm =    0.150000
                 energy =   -0.173757
                kinetic =    2.186690
    potential(screened) =   -2.360447
       potential(ionic) =   -4.464260

POLgen: Perturbative polarization orbital with L=  2

POLgen: Polarization orbital for state 2p

   izeta = 1
                     rc =    6.790259
                 energy =    0.684082
                kinetic =    1.471481
    potential(screened) =   -0.787399
       potential(ionic) =   -2.406985
atom: Total number of Sankey-type orbitals: 13

atm_pop: Valence configuration (for local Pseudopot. screening):
 2s( 2.00)                                                            
 2p( 1.00)                                                            
Vna: chval, zval:    3.00000   3.00000

Vna:  Cut-off radius for the neutral-atom potential:   6.790259
comcore: Pseudo-core radius Rcore=  2.122997

atom: _________________________________________________________________________

<basis_specs>
===============================================================================
C                    Z=   6    Mass=  12.010        Charge= 0.17977+309
Lmxo=1 Lmxkb= 3    BasisType=split      Semic=F
L=0  Nsemic=0  Cnfigmx=2
          n=1  nzeta=2  polorb=0
            splnorm:   0.15000    
               vcte:    0.0000    
               rinn:    0.0000    
                rcs:    0.0000      0.0000    
            lambdas:    1.0000      1.0000    
L=1  Nsemic=0  Cnfigmx=2
          n=1  nzeta=2  polorb=1
            splnorm:   0.15000    
               vcte:    0.0000    
               rinn:    0.0000    
                rcs:    0.0000      0.0000    
            lambdas:    1.0000      1.0000    
-------------------------------------------------------------------------------
L=0  Nkbl=1  erefs: 0.17977+309
L=1  Nkbl=1  erefs: 0.17977+309
L=2  Nkbl=1  erefs: 0.17977+309
L=3  Nkbl=1  erefs: 0.17977+309
===============================================================================
</basis_specs>

atom: Called for C                     (Z =   6)

read_vps: Pseudopotential generation method:
read_vps: ATM3      Troullier-Martins                       
Total valence charge:    4.00000

read_vps: Pseudopotential includes a core correction:
read_vps: Pseudo-core for xc-correction

xc_check: Exchange-correlation functional:
xc_check: GGA Perdew, Burke & Ernzerhof 1996
V l=0 = -2*Zval/r beyond r=  1.5227
V l=1 = -2*Zval/r beyond r=  1.5227
V l=2 = -2*Zval/r beyond r=  1.5227
V l=3 = -2*Zval/r beyond r=  1.5038
All V_l potentials equal beyond r=  1.5227
This should be close to max(r_c) in ps generation
All pots = -2*Zval/r beyond r=  1.5227

VLOCAL1: 99.0% of the norm of Vloc inside     18.722 Ry
VLOCAL1: 99.9% of the norm of Vloc inside     42.668 Ry
atom: Maximum radius for 4*pi*r*r*local-pseudopot. charge    1.83678
atom: Maximum radius for r*vlocal+2*Zval:    1.58088
GHOST: No ghost state for L =  0
GHOST: No ghost state for L =  1
GHOST: No ghost state for L =  2
GHOST: No ghost state for L =  3

KBgen: Kleinman-Bylander projectors: 
   l= 0   rc=  1.704034   el= -1.009801   Ekb=  5.335044   kbcos=  0.316824
   l= 1   rc=  1.704034   el= -0.388707   Ekb= -3.785862   kbcos= -0.366464
   l= 2   rc=  1.791422   el=  0.001971   Ekb= -0.970471   kbcos= -0.009212
   l= 3   rc=  1.859892   el=  0.003065   Ekb= -0.399525   kbcos= -0.001223

KBgen: Total number of  Kleinman-Bylander projectors:   16
atom: -------------------------------------------------------------------------

atom: SANKEY-TYPE ORBITALS:
atom: Selected multiple-zeta basis: split     

SPLIT: Orbitals with angular momentum L= 0

SPLIT: Basis orbitals for state 2s

SPLIT: PAO cut-off radius determined from an
SPLIT: energy shift=  0.007350 Ry

   izeta = 1
                 lambda =    1.000000
                     rc =    4.632753
                 energy =   -1.002270
                kinetic =    0.855760
    potential(screened) =   -1.858031
       potential(ionic) =   -5.417575

   izeta = 2
                 rmatch =    3.431921
              splitnorm =    0.150000
                 energy =   -0.867111
                kinetic =    1.300804
    potential(screened) =   -2.167915
       potential(ionic) =   -5.962684

SPLIT: Orbitals with angular momentum L= 1

SPLIT: Basis orbitals for state 2p

SPLIT: PAO cut-off radius determined from an
SPLIT: energy shift=  0.007350 Ry

   izeta = 1
                 lambda =    1.000000
                     rc =    5.658549
                 energy =   -0.381140
                kinetic =    2.399701
    potential(screened) =   -2.780841
       potential(ionic) =   -6.206085

   izeta = 2
                 rmatch =    3.653288
              splitnorm =    0.150000
                 energy =   -0.249149
                kinetic =    3.542762
    potential(screened) =   -3.791911
       potential(ionic) =   -7.581078

POLgen: Perturbative polarization orbital with L=  2

POLgen: Polarization orbital for state 2p

   izeta = 1
                     rc =    5.658549
                 energy =    1.109913
                kinetic =    2.304789
    potential(screened) =   -1.194876
       potential(ionic) =   -4.013592
atom: Total number of Sankey-type orbitals: 13

atm_pop: Valence configuration (for local Pseudopot. screening):
 2s( 2.00)                                                            
 2p( 2.00)                                                            
Vna: chval, zval:    4.00000   4.00000

Vna:  Cut-off radius for the neutral-atom potential:   5.658549
comcore: Pseudo-core radius Rcore=  1.791422

atom: _________________________________________________________________________

prinput: Basis input ----------------------------------------------------------

PAO.BasisType split     

%block ChemicalSpeciesLabel
    1    5 B                       # Species index, atomic number, species label
    2    6 C                       # Species index, atomic number, species label
%endblock ChemicalSpeciesLabel

%block PAO.Basis                 # Define Basis set
B                     2                    # Species label, number of l-shells
 n=2   0   2                         # n, l, Nzeta 
   5.422      4.223   
   1.000      1.000   
 n=2   1   2 P   1                   # n, l, Nzeta, Polarization, NzetaPol
   6.790      4.609   
   1.000      1.000   
C                     2                    # Species label, number of l-shells
 n=2   0   2                         # n, l, Nzeta 
   4.633      3.432   
   1.000      1.000   
 n=2   1   2 P   1                   # n, l, Nzeta, Polarization, NzetaPol
   5.659      3.653   
   1.000      1.000   
%endblock PAO.Basis

prinput: ----------------------------------------------------------------------

coor:   Atomic-coordinates input format  =     Fractional

siesta: Atomic coordinates (Bohr) and species
siesta:      2.30256  38.89134   0.00000  1        1
siesta:      4.63094  34.85847   0.00000  1        2
siesta:      4.63094  37.54693   0.00000  1        3
siesta:      6.95932  30.82560   0.00000  1        4
siesta:      6.95932  33.51406   0.00000  1        5
siesta:      2.30256  14.69411   0.00000  1        6
siesta:      2.30256  17.38257   0.00000  1        7
siesta:      4.63094  18.72698   0.00000  1        8
siesta:      4.63094  21.41544   0.00000  1        9
siesta:     -0.02582  18.72698   0.00000  1       10
siesta:     -0.02582  21.41544   0.00000  1       11
siesta:      2.30256  22.75985   0.00000  1       12
siesta:     -4.68258  21.41544   0.00000  1       13
siesta:     -2.35420  22.75985   0.00000  1       14
siesta:     -7.01096  22.75985   0.00000  1       15
siesta:     -7.01096  25.44831   0.00000  1       16
siesta:     -4.68258  26.79272   0.00000  1       17
siesta:     -4.68258  29.48119   0.00000  1       18
siesta:      2.30256  33.51406   0.00000  1       19
siesta:     -2.35420  30.82560   0.00000  1       20
siesta:     -2.35420  33.51406   0.00000  1       21
siesta:     -0.02582  34.85847   0.00000  1       22
siesta:     -0.02582   2.59549   0.00000  2       23
siesta:     -0.02582   5.28395   0.00000  2       24
siesta:     -2.35420  38.89134   0.00000  2       25
siesta:     -2.35420  41.57980   0.00000  2       26
siesta:      2.30256  41.57980   0.00000  2       27
siesta:      9.28770  26.79272   0.00000  2       28
siesta:      9.28770  29.48119   0.00000  2       29
siesta:     -4.68258  34.85847   0.00000  2       30
siesta:     -4.68258  37.54693   0.00000  2       31
siesta:      2.30256   6.62836   0.00000  2       32
siesta:      2.30256   9.31683   0.00000  2       33
siesta:      4.63094  10.66124   0.00000  2       34
siesta:      4.63094  13.34970   0.00000  2       35
siesta:      6.95932  14.69411   0.00000  2       36
siesta:      6.95932  17.38257   0.00000  2       37
siesta:      9.28770  18.72698   0.00000  2       38
siesta:      9.28770  21.41544   0.00000  2       39
siesta:     11.61608  22.75985   0.00000  2       40
siesta:     11.61608  25.44831   0.00000  2       41
siesta:     -2.35420   6.62836   0.00000  2       42
siesta:     -2.35420   9.31683   0.00000  2       43
siesta:     -0.02582  10.66124   0.00000  2       44
siesta:     -0.02582  13.34970   0.00000  2       45
siesta:      6.95932  22.75985   0.00000  2       46
siesta:      6.95932  25.44831   0.00000  2       47
siesta:     -4.68258  10.66124   0.00000  2       48
siesta:     -4.68258  13.34970   0.00000  2       49
siesta:     -2.35420  14.69411   0.00000  2       50
siesta:     -2.35420  17.38257   0.00000  2       51
siesta:      2.30256  25.44831   0.00000  2       52
siesta:     -7.01096  14.69411   0.00000  2       53
siesta:     -7.01096  17.38257   0.00000  2       54
siesta:     -4.68258  18.72698   0.00000  2       55
siesta:     -2.35420  25.44831   0.00000  2       56
siesta:     -9.33934  18.72698   0.00000  2       57
siesta:     -9.33934  21.41544   0.00000  2       58
siesta:    -11.66772  22.75985   0.00000  2       59
siesta:    -11.66772  25.44831   0.00000  2       60
siesta:     -9.33934  26.79272   0.00000  2       61
siesta:     -9.33934  29.48119   0.00000  2       62
siesta:      4.63094  26.79272   0.00000  2       63
siesta:      4.63094  29.48119   0.00000  2       64
siesta:     -0.02582  26.79272   0.00000  2       65
siesta:     -0.02582  29.48119   0.00000  2       66
siesta:      2.30256  30.82560   0.00000  2       67
siesta:     -7.01096  30.82560   0.00000  2       68
siesta:     -7.01096  33.51406   0.00000  2       69
siesta:     -0.02582  37.54693   0.00000  2       70
siesta:     -0.02582  42.92421   0.00000  2       71
siesta:     -0.02582  45.61267   0.00000  2       72

siesta: System type = slab      

initatomlists: Number of atoms, orbitals, and projectors:     72   936  1152

siesta: ******************** Simulation parameters ****************************
siesta:
siesta: The following are some of the parameters of the simulation.
siesta: A complete list of the parameters used, including default values,
siesta: can be found in file out.fdf
siesta:
redata: Non-Collinear-spin run           =     F
redata: SpinPolarized (Up/Down) run      =     F
redata: Number of spin components        =     1
redata: Long output                      =     F
redata: Number of Atomic Species         =        2
redata: Charge density info will appear in .RHO file
redata: Write Mulliken Pop.              =     NO
redata: Mesh Cutoff                      =   200.0000  Ry
redata: Net charge of the system         =     0.0000 |e|
redata: Max. number of SCF Iter          =      500
redata: SCF convergence failure will abort job
redata: Performing Pulay mixing using    =    10 iterations
redata: Mix DM in first SCF step ?       =     F
redata: Write Pulay info on disk?        =     F
redata: Discard 1st Pulay DM after  kick =     F
redata: New DM Mixing Weight             =     0.0500
redata: New DM Occupancy tolerance       = 0.000000000001
redata: No kicks to SCF
redata: DM Mixing Weight for Kicks       =     0.5000
redata: DM Tolerance for SCF             =     0.000100
redata: Require Energy convergence for SCF =     F
redata: DM Energy tolerance for SCF      =     0.000100 eV
redata: Require Harris convergence for SCF =     F
redata: DM Harris energy tolerance for SCF =     0.000100 eV
redata: Using Saved Data (generic)   =     F
redata: Use continuation files for DM    =     T
redata: Neglect nonoverlap interactions  =     F
redata: Method of Calculation            =     Diagonalization
redata: Divide and Conquer               =     T
redata: Electronic Temperature           =     0.0019  Ry
redata: Fix the spin of the system       =     F
redata: Dynamics option                  =     Verlet MD run
redata: Initial MD time step             =        1
redata:   Final MD time step             =        1
redata: Length of MD time step           =     1.0000  fs
redata: Initial Temperature of MD run    =     0.0000  K
redata: Perform a MD quench              =     F
redata: ***********************************************************************
Total number of electrons:   266.000000
Total ionic charge:   266.000000

* ProcessorY, Blocksize:    2  24

k-point displ. along   1 input, could be:     0.50    0.00
k-point displ. along   2 input, could be:     0.50    0.00
 Kpoints in:          231 . Kpoints trimmed:          231

siesta: k-grid: Number of k-points =   231
siesta: k-grid: Cutoff (effective) =     5.000 Ang
siesta: k-grid: Supercell and displacements
siesta: k-grid:   21   0   0      0.500
siesta: k-grid:    0  21   0      0.500
siesta: k-grid:    0   0   1      0.000
Naive supercell factors:     2    2    2

superc: Internal auxiliary supercell:     2 x     2 x     2  =       8
superc: Number of atoms, orbitals, and projectors:    576   7488   9216

* Maximum dynamic memory allocated =     4 MB

siesta:                 ==============================
                            Begin MD step =      1
                        ==============================

superc: Internal auxiliary supercell:     2 x     2 x     2  =       8
superc: Number of atoms, orbitals, and projectors:    576   7488   9216

outcell: Unit cell vectors (Ang):
       12.804619    7.392750    0.000000
        0.000000   14.785500    0.000000
        0.000000    0.000000   10.000000

outcell: Cell vector modules (Ang)   :   14.785500   14.785500   10.000000
outcell: Cell angles (23,13,12) (deg):     90.0000     90.0000     60.0000
outcell: Cell volume (Ang**3)        :   1893.2269
New_DM. Step:     1
Initializing Density Matrix...

InitMesh: MESH =   120 x   120 x    90 =     1296000
InitMesh: Mesh cutoff (required, used) =   200.000   223.865 Ry

* Maximum dynamic memory allocated =   228 MB

stepf: Fermi-Dirac step function

siesta: Program's energy decomposition (eV):
siesta: Ebs     =     -5485.305927
siesta: Eions   =     15585.763425
siesta: Ena     =      4187.285282
siesta: Ekin    =      5217.942150
siesta: Enl     =       827.457988
siesta: DEna    =        -0.000007
siesta: DUscf   =         0.000000
siesta: DUext   =         0.000000
siesta: Exc     =     -4199.952426
siesta: eta*DQ  =         0.000000
siesta: Emadel  =         0.000000
siesta: Emeta   =         0.000000
siesta: Emolmec =         0.000000
siesta: Ekinion =         0.000000
siesta: Eharris =     -9332.694163
siesta: Etot    =     -9553.030437
siesta: FreeEng =     -9553.030437

siesta: iscf   Eharris(eV)      E_KS(eV)   FreeEng(eV)   dDmax  Ef(eV)
siesta:    1    -9332.6942    -9553.0304    -9553.0304  6.7806 -8.4647
timer: Routine,Calls,Time,% = IterSCF        1    4466.585  99.64
elaps: Routine,Calls,Wall,% = IterSCF        1     559.077  99.65
siesta:    2   -15343.7809    -8419.9874    -8420.0446 20.4024 -4.7964
siesta:    3    -9296.8395    -9418.0883    -9418.1010  3.0020 -6.7749
siesta:    4    -9269.3075    -9314.3061    -9314.3799  1.7066 -6.0652
siesta:    5    -9215.5493    -9239.7007    -9239.7649  1.2116 -5.8130
siesta:    6    -9189.8461    -9178.6059    -9178.6292  1.1327 -5.2471
siesta:    7    -9180.9588    -9163.9196    -9163.9336  0.9653 -5.2316
siesta:    8    -9178.0370    -9159.1349    -9159.2065  0.8986 -5.2680
siesta:    9    -9173.9625    -9149.9917    -9150.0690  0.6652 -5.3793
siesta:   10    -9173.3381    -9147.3704    -9147.4331  0.6187 -5.3550
siesta:   11    -9172.7644    -9143.1846    -9143.2459  0.4267 -5.3017
siesta:   12    -9173.3345    -9139.6399    -9139.7294  0.2025 -5.1937
siesta:   13    -9172.8034    -9140.2342    -9140.3063  0.1769 -5.1938
siesta:   14    -9172.1765    -9144.9140    -9144.9811  0.1141 -5.2140
siesta:   15    -9171.6774    -9150.2002    -9150.2798  0.1403 -5.2325
siesta:   16    -9171.5323    -9155.7466    -9155.8289  0.1413 -5.2430
siesta:   17    -9171.4238    -9159.4799    -9159.5645  0.0908 -5.2538
siesta:   18    -9171.3843    -9162.6090    -9162.6942  0.0849 -5.2500
siesta:   19    -9171.3556    -9164.2729    -9164.3585  0.0695 -5.2576
siesta:   20    -9171.3402    -9166.0673    -9166.1510  0.0293 -5.2667
siesta:   21    -9171.3405    -9168.5990    -9168.6812  0.0185 -5.2714
siesta:   22    -9171.3358    -9170.1922    -9170.2725  0.0170 -5.2733
siesta:   23    -9171.3339    -9170.9819    -9171.0637  0.0160 -5.2723
siesta:   24    -9171.3334    -9171.1413    -9171.2241  0.0147 -5.2711
siesta:   25    -9171.3330    -9171.3523    -9171.4355  0.0113 -5.2696
siesta:   26    -9171.3329    -9171.4037    -9171.4866  0.0086 -5.2651
siesta:   27    -9171.3324    -9171.5337    -9171.6163  0.0071 -5.2603
siesta:   28    -9171.3321    -9171.4808    -9171.5634  0.0044 -5.2600
siesta:   29    -9171.3318    -9171.4667    -9171.5494  0.0021 -5.2590
siesta:   30    -9171.3318    -9171.4821    -9171.5651  0.0022 -5.2590
siesta:   31    -9171.3318    -9171.4564    -9171.5393  0.0011 -5.2598
siesta:   32    -9171.3318    -9171.4441    -9171.5270  0.0013 -5.2600
siesta:   33    -9171.3318    -9171.4196    -9171.5025  0.0012 -5.2602
siesta:   34    -9171.3318    -9171.3861    -9171.4689  0.0005 -5.2602
siesta:   35    -9171.3318    -9171.3481    -9171.4310  0.0004 -5.2602
siesta:   36    -9171.3318    -9171.3263    -9171.4092  0.0002 -5.2602
siesta:   37    -9171.3318    -9171.3241    -9171.4070  0.0002 -5.2602
siesta:   38    -9171.3318    -9171.3241    -9171.4070  0.0002 -5.2602
siesta:   39    -9171.3318    -9171.3278    -9171.4106  0.0001 -5.2602
siesta:   40    -9171.3318    -9171.3301    -9171.4130  0.0001 -5.2602

siesta: E_KS(eV) =            -9171.3310

siesta: E_KS - E_eggbox =     -9171.3310

siesta: Atomic forces (eV/Ang):
----------------------------------------
   Tot   -0.006104    0.156875    0.000000
----------------------------------------
   Max  558.380115
   Res  139.406750    sqrt( Sum f_i^2 / 3N )
----------------------------------------
   Max  558.380115    constrained

Stress-tensor-Voigt (kbar):     -746.64    -2580.41       -0.67        3.09        0.00        0.00
(Free)E + p*V (eV/cell)    -7860.6839
Target enthalpy (eV/cell)    -9171.4139

siesta: Stress tensor (static) (eV/Ang**3):
        -0.466008    0.001929    0.000000
         0.001929   -1.610549    0.000000
         0.000000    0.000000   -0.000421

siesta: Pressure (static):       1109.24037132  kBar

siesta: Stress tensor (total) (eV/Ang**3):
        -0.466008    0.001929    0.000000
         0.001929   -1.610549    0.000000
         0.000000    0.000000   -0.000421

siesta: Pressure (total):       1109.24037132  kBar

siesta: Temp_ion =       0.000 K

* Maximum dynamic memory allocated =   245 MB
Computing bands...

siesta: Program's energy decomposition (eV):
siesta: Ebs     =     -4108.566083
siesta: Eions   =     15585.763425
siesta: Ena     =      4187.285282
siesta: Ekin    =      8031.786854
siesta: Enl     =      -779.634974
siesta: DEna    =      -762.553185
siesta: DUscf   =       102.463564
siesta: DUext   =         0.000000
siesta: Exc     =     -4364.915121
siesta: eta*DQ  =         0.000000
siesta: Emadel  =         0.000000
siesta: Emeta   =         0.000000
siesta: Emolmec =         0.000000
siesta: Ekinion =         0.000000
siesta: Eharris =     -9171.331763
siesta: Etot    =     -9171.331005
siesta: FreeEng =     -9171.413876

siesta: Final energy (eV):
siesta:  Band Struct. =   -4108.566083
siesta:       Kinetic =    8031.786854
siesta:       Hartree =   25876.245891
siesta:    Ext. field =       0.000000
siesta:   Exch.-corr. =   -4364.915121
siesta:  Ion-electron =  -59500.411765
siesta:       Ion-ion =   20785.963136
siesta:       Ekinion =       0.000000
siesta:         Total =   -9171.331005

siesta: Atomic forces (eV/Ang):
siesta:      1    2.106159  105.025006    0.000000
siesta:      2   14.892495    0.343542    0.000000
siesta:      3   17.900197 -395.549662    0.000000
siesta:      4    3.452056   -1.715657    0.000000
siesta:      5    3.578821    4.476939    0.000000
siesta:      6   24.928465  407.968732    0.000000
siesta:      7   14.843208   -0.514865    0.000000
siesta:      8    2.221328   -3.130514    0.000000
siesta:      9    3.480781    1.201081    0.000000
siesta:     10    0.674136  408.734034    0.000000
siesta:     11   -0.000421   -3.845451    0.000000
siesta:     12   -1.747544    5.758013    0.000000
siesta:     13    0.985637   -5.804098    0.000000
siesta:     14    0.116081    6.606176    0.000000
siesta:     15   -2.094579   -1.269440    0.000000
siesta:     16   -4.248311    2.793312    0.000000
siesta:     17    4.791408   -3.502500    0.000000
siesta:     18   -1.689163    4.060882    0.000000
siesta:     19   18.147792 -401.741228    0.000000
siesta:     20  -15.735797    2.285100    0.000000
siesta:     21  -13.862895 -398.158509    0.000000
siesta:     22   -1.234433  104.198841    0.000000
siesta:     23    4.045057  549.156149    0.000000
siesta:     24   -2.418655 -131.754315    0.000000
siesta:     25    0.198912  125.804391    0.000000
siesta:     26  -20.881628 -552.356839    0.000000
siesta:     27   14.769358 -406.960755    0.000000
siesta:     28    3.415903    2.763763    0.000000
siesta:     29    1.272283   -2.764743    0.000000
siesta:     30  -25.521390    0.037841    0.000000
siesta:     31  -31.170339 -552.215796    0.000000
siesta:     32   15.214308  402.210623    0.000000
siesta:     33    3.208966 -124.391750    0.000000
siesta:     34   32.626711  405.429966    0.000000
siesta:     35   21.473646    3.553018    0.000000
siesta:     36   -2.771024   -2.019525    0.000000
siesta:     37    6.170388   -2.097335    0.000000
siesta:     38   -1.184677   -0.119111    0.000000
siesta:     39    2.773411   -2.229012    0.000000
siesta:     40   -0.137911    7.155264    0.000000
siesta:     41    0.009489   -7.349047    0.000000
siesta:     42  -18.516631  407.292689    0.000000
siesta:     43    1.060290 -124.565619    0.000000
siesta:     44   -0.436280  556.043933    0.000000
siesta:     45    6.961080 -121.648585    0.000000
siesta:     46    1.796442    3.328338    0.000000
siesta:     47   -0.116427   -1.218026    0.000000
siesta:     48  -32.440718  551.307394    0.000000
siesta:     49  -26.125501   -4.041355    0.000000
siesta:     50  -24.798189  558.380115    0.000000
siesta:     51  -23.607594   -3.006824    0.000000
siesta:     52    0.493905    3.806037    0.000000
siesta:     53    2.334403   -1.689758    0.000000
siesta:     54   -2.181003   -1.302259    0.000000
siesta:     55    1.773534   -2.562840    0.000000
siesta:     56    3.845594    3.731454    0.000000
siesta:     57    1.311015   -0.002930    0.000000
siesta:     58   -5.750116   -3.561504    0.000000
siesta:     59   -0.708924    5.028374    0.000000
siesta:     60    0.592050   -5.326132    0.000000
siesta:     61   -6.708995    3.388395    0.000000
siesta:     62    2.060737    0.296774    0.000000
siesta:     63   -0.374629    0.693380    0.000000
siesta:     64   -4.328704   -3.735701    0.000000
siesta:     65   -0.102894   -1.505075    0.000000
siesta:     66   -3.342756 -557.577428    0.000000
siesta:     67   23.074298    5.081467    0.000000
siesta:     68   -6.744270    1.872837    0.000000
siesta:     69    2.955056    2.078031    0.000000
siesta:     70    9.935479 -539.725185    0.000000
siesta:     71    8.619885  124.278228    0.000000
siesta:     72   -3.134471 -405.053877    0.000000
siesta: ----------------------------------------
siesta:    Tot   -0.006104    0.156875    0.000000

siesta: Stress tensor (static) (eV/Ang**3):
siesta:    -0.466008    0.001929    0.000000
siesta:     0.001929   -1.610549    0.000000
siesta:     0.000000    0.000000   -0.000421

siesta: Cell volume =       1893.226884 Ang**3

siesta: Pressure (static):
siesta:                Solid            Molecule  Units
siesta:           0.00754031          0.10624534  Ry/Bohr**3
siesta:           0.69232590          9.75508581  eV/Ang**3
siesta:        1109.24037132      15629.53948424  kBar
(Free)E+ p_basis*V_orbitals  =       -9133.725284
(Free)Eharris+ p_basis*V_orbitals  =       -9133.726954

siesta: Electric dipole (a.u.)  =    0.000000    0.000000    0.000000
siesta: Electric dipole (Debye) =    0.000000    0.000000    0.000000

* Maximum dynamic memory allocated : Node    0 =   245 MB
* Maximum dynamic memory allocated : Node    1 =    85 MB
* Maximum dynamic memory allocated : Node    2 =    89 MB
* Maximum dynamic memory allocated : Node    3 =   233 MB
* Maximum dynamic memory allocated : Node    4 =   227 MB
* Maximum dynamic memory allocated : Node    5 =    82 MB
* Maximum dynamic memory allocated : Node    6 =    85 MB
* Maximum dynamic memory allocated : Node    7 =   208 MB

* Maximum memory occured during matrixMtoO                    

timer: CPU execution times:
timer:  Routine       Calls   Time/call    Tot.time        %
timer:  siesta            1  176575.433  176575.433   100.00
timer:  Setup             1       6.842       6.842     0.00
timer:  bands             3     269.016     807.049     0.46
timer:  writewave         1       0.043       0.043     0.00
timer:  KSV_init          1       0.007       0.007     0.00
timer:  IterMD            1  175755.415  175755.415    99.54
timer:  hsparse           1       0.394       0.394     0.00
timer:  overlap           1       7.802       7.802     0.00
timer:  IterSCF          40    4387.905  175516.216    99.40
timer:  kinefsm           2       4.107       8.213     0.00
timer:  nlefsm            2      21.543      43.085     0.02
timer:  DHSCF            41     126.085    5169.492     2.93
timer:  DHSCF1            1       0.998       0.998     0.00
timer:  DHSCF2            1      45.748      45.748     0.03
timer:  REORD           330       0.010       3.313     0.00
timer:  POISON           42       2.240      94.093     0.05
timer:  DHSCF3           41     123.814    5076.380     2.87
timer:  rhoofd           41      26.335    1079.724     0.61
timer:  cellXC           41       3.490     143.079     0.08
timer:  vmat             41      60.581    2483.818     1.41
timer:  MolMec            2       0.000       0.000     0.00
timer:  diagon           40    4260.109  170404.351    96.51
timer:  c-eigval       9361       6.676   62496.044    35.39
timer:  c-buildHS      9361       0.122    1145.263     0.65
timer:  cdiag         18601       6.923  128765.502    72.92
timer:  cdiag1        18601       0.427    7941.708     4.50
timer:  cdiag2        18601       1.910   35519.393    20.12
timer:  cdiag3        18601       3.939   73269.588    41.49
timer:  cdiag4        18601       0.225    4183.245     2.37
timer:  c-eigvec       9240       7.356   67968.273    38.49
timer:  c-buildD       9240       4.404   40695.915    23.05
timer:  DHSCF4            1      44.170      44.170     0.03
timer:  dfscf             1      41.467      41.467     0.02
timer:  overfsm           1       0.484       0.484     0.00
timer:  optical           1       5.064       5.064     0.00
  

elaps: ELAPSED times:
elaps:  Routine       Calls   Time/call    Tot.time        %
elaps:  siesta            1   22097.828   22097.828   100.00
elaps:  Setup             1       0.791       0.791     0.00
elaps:  bands             3      33.679     101.037     0.46
elaps:  writewave         1       0.006       0.006     0.00
elaps:  KSV_init          1       0.001       0.001     0.00
elaps:  IterMD            1   21995.280   21995.280    99.54
elaps:  hsparse           1       0.051       0.051     0.00
elaps:  overlap           1       0.982       0.982     0.00
elaps:  IterSCF          40     549.137   21965.474    99.40
elaps:  kinefsm           2       0.539       1.077     0.00
elaps:  nlefsm            2       2.781       5.562     0.03
elaps:  DHSCF            41      15.915     652.522     2.95
elaps:  DHSCF1            1       0.125       0.125     0.00
elaps:  DHSCF2            1       5.721       5.721     0.03
elaps:  REORD           330       0.001       0.445     0.00
elaps:  POISON           42       0.281      11.785     0.05
elaps:  DHSCF3           41      15.489     635.051     2.87
elaps:  rhoofd           41       7.141     292.763     1.32
elaps:  cellXC           41       0.436      17.872     0.08
elaps:  vmat             41       7.578     310.705     1.41
elaps:  MolMec            2       0.000       0.000     0.00
elaps:  diagon           40     533.159   21326.361    96.51
elaps:  c-eigval       9361       0.835    7819.453    35.39
elaps:  c-buildHS      9361       0.017     156.470     0.71
elaps:  cdiag         18601       0.854   15880.473    71.86
elaps:  cdiag1        18601       0.053     984.482     4.46
elaps:  cdiag2        18601       0.239    4444.232    20.11
elaps:  cdiag3        18601       0.494    9180.114    41.54
elaps:  cdiag4        18601       0.028     526.879     2.38
elaps:  c-eigvec       9240       0.900    8316.838    37.64
elaps:  c-buildD       9240       0.572    5284.062    23.91
elaps:  DHSCF4            1      11.324      11.324     0.05
elaps:  dfscf             1      10.786      10.786     0.05
elaps:  overfsm           1       0.060       0.060     0.00
elaps:  optical           1       0.001       0.001     0.00
  
>> End of run:  25-APR-2016  10:45:10
