Siesta Version:                                        siesta-3.2-pl-3
Architecture  : x86_64-unknown-linux-gnu--unknown
Compiler flags: mpiifort -g -O2 -fPIC -xSSE4.1 -fp-model source -shared-intel 
PARALLEL version

* Running on   12 nodes in parallel
>> Start of run:   5-MAY-2016   0:44:40

                           ***********************       
                           *  WELCOME TO SIESTA  *       
                           ***********************       

reinit: Reading from standard input
************************** Dump of input data file ****************************
#(1) General system descriptors
SystemName            GRP_doping    # Descriptive name of the system
SystemLabel           GRP_doping    # Short name for naming files
%include STRUCT.fdf
%include KPT.fdf
%include BASIS.fdf
#%include TS.fdf # for transiesta calculation
#(4) DFT, Grid, SCF
XC.functional         GGA           # LDA or GGA (default = LDA)
XC.authors            PBE           # CA (Ceperley-Aldr) = PZ
                                    #    (Perdew-Zunger) - LDA - Default
                                    # PW92 (Perdew-Wang-92) - LDA
                                    # PBE (Perdew-Burke-Ernzerhof) - GGA
MeshCutoff            200.000000    Ry      # Default: 50.0 Ry ~ 0.444 Bohr
                                    #         100.0 Ry ~ 0.314 Bohr
MaxSCFIterations      500           # Default: 50
DM.MixingWeight       0.05          # Default: 0.25
DM.NumberPulay        10            # Default: 0
DM.PulayOnFile        F             # SystemLabel.P1, SystemLabel.P2
DM.Tolerance          1.d-4         # Default: 1.d-4
DM.UseSaveDM          .true.        # because of the bug
SCFMustConverge       .true.
NeglNonOverlapInt     F             # Default: F
#(5) Eigenvalue problem: order-N or diagonalization
SolutionMethod        Diagon        # or Transiesta
ElectronicTemperature 300.0 K       # Default: 300.0 K
#(6) Molecular dynamics and relaxations
#MD.TypeOfRun          CG            # Type of dynamics:
#MD.VariableCell       F
#MD.NumCGsteps         0           # 0 for single-point / 100 for gopt
#MD.MaxCGDispl         0.2 Bohr      # Default: 0.2 Bohr
#MD.MaxForceTol        0.02 eV/Ang   # Default: 0.04 eV/Ang
#MD.MaxStressTol       1.0 GPa       # Default: 1.0 GPa
# Geometry Constraints
#%block GeometryConstraints
#	position from 1 to 44
#%endblock GeometryConstraints
BandLinesScale   pi/a
%block BandLines
 1   0.00000000  0.00000000  0.00000000
50   0.00000000  0.07809418  0.00000000
50   0.04509075  0.07809242  0.00000000
20   0.00000000  0.00000000  0.00000000
%endblock BandLines
************************** End of input data file *****************************

reinit: -----------------------------------------------------------------------
reinit: System Name: GRP_doping
reinit: -----------------------------------------------------------------------
reinit: System Label: GRP_doping                                                  
reinit: -----------------------------------------------------------------------

initatom: Reading input for the pseudopotentials and atomic orbitals ----------
 Species number:            1  Label: B Atomic number:           5
 Species number:            2  Label: C Atomic number:           6
Ground state valence configuration:   2s02  2p01
Reading pseudopotential information in formatted form from B.psf

Valence configuration for pseudopotential generation:
2s( 2.00) rc: 1.74
2p( 1.00) rc: 1.74
3d( 0.00) rc: 1.74
4f( 0.00) rc: 1.74
Ground state valence configuration:   2s02  2p02
Reading pseudopotential information in formatted form from C.psf

Valence configuration for pseudopotential generation:
2s( 2.00) rc: 1.54
2p( 2.00) rc: 1.54
3d( 0.00) rc: 1.54
4f( 0.00) rc: 1.54
For B, standard SIESTA heuristics set lmxkb to 3
 (one more than the basis l, including polarization orbitals).
Use PS.lmax or PS.KBprojectors blocks to override.
For C, standard SIESTA heuristics set lmxkb to 3
 (one more than the basis l, including polarization orbitals).
Use PS.lmax or PS.KBprojectors blocks to override.

<basis_specs>
===============================================================================
B                    Z=   5    Mass=  10.810        Charge= 0.17977+309
Lmxo=1 Lmxkb= 3    BasisType=split      Semic=F
L=0  Nsemic=0  Cnfigmx=2
          n=1  nzeta=2  polorb=0
            splnorm:   0.15000    
               vcte:    0.0000    
               rinn:    0.0000    
                rcs:    0.0000      0.0000    
            lambdas:    1.0000      1.0000    
L=1  Nsemic=0  Cnfigmx=2
          n=1  nzeta=2  polorb=1
            splnorm:   0.15000    
               vcte:    0.0000    
               rinn:    0.0000    
                rcs:    0.0000      0.0000    
            lambdas:    1.0000      1.0000    
-------------------------------------------------------------------------------
L=0  Nkbl=1  erefs: 0.17977+309
L=1  Nkbl=1  erefs: 0.17977+309
L=2  Nkbl=1  erefs: 0.17977+309
L=3  Nkbl=1  erefs: 0.17977+309
===============================================================================
</basis_specs>

atom: Called for B                     (Z =   5)

read_vps: Pseudopotential generation method:
read_vps: ATM3      Troullier-Martins                       
Total valence charge:    3.00000

read_vps: Pseudopotential includes a core correction:
read_vps: Pseudo-core for xc-correction

xc_check: Exchange-correlation functional:
xc_check: GGA Perdew, Burke & Ernzerhof 1996
V l=0 = -2*Zval/r beyond r=  1.7165
V l=1 = -2*Zval/r beyond r=  1.7165
V l=2 = -2*Zval/r beyond r=  1.7165
V l=3 = -2*Zval/r beyond r=  1.6951
All V_l potentials equal beyond r=  1.7165
This should be close to max(r_c) in ps generation
All pots = -2*Zval/r beyond r=  1.7165

VLOCAL1: 99.0% of the norm of Vloc inside     14.733 Ry
VLOCAL1: 99.9% of the norm of Vloc inside     33.577 Ry
atom: Maximum radius for 4*pi*r*r*local-pseudopot. charge    2.04484
atom: Maximum radius for r*vlocal+2*Zval:    1.75994
GHOST: No ghost state for L =  0
GHOST: No ghost state for L =  1
GHOST: No ghost state for L =  2
GHOST: No ghost state for L =  3

KBgen: Kleinman-Bylander projectors: 
   l= 0   rc=  1.897051   el= -0.693730   Ekb=  4.595746   kbcos=  0.286105
   l= 1   rc=  1.920920   el= -0.265236   Ekb= -2.350715   kbcos= -0.315747
   l= 2   rc=  2.044840   el=  0.002055   Ekb= -0.690767   kbcos= -0.013822
   l= 3   rc=  2.149707   el=  0.003188   Ekb= -0.315358   kbcos= -0.002055

KBgen: Total number of  Kleinman-Bylander projectors:   16
atom: -------------------------------------------------------------------------

atom: SANKEY-TYPE ORBITALS:
atom: Selected multiple-zeta basis: split     

SPLIT: Orbitals with angular momentum L= 0

SPLIT: Basis orbitals for state 2s

SPLIT: PAO cut-off radius determined from an
SPLIT: energy shift=  0.007350 Ry

   izeta = 1
                 lambda =    1.000000
                     rc =    5.422032
                 energy =   -0.686029
                kinetic =    0.576707
    potential(screened) =   -1.262736
       potential(ionic) =   -3.271094

   izeta = 2
                 rmatch =    4.222573
              splitnorm =    0.150000
                 energy =   -0.602132
                kinetic =    0.858975
    potential(screened) =   -1.461107
       potential(ionic) =   -3.582536

SPLIT: Orbitals with angular momentum L= 1

SPLIT: Basis orbitals for state 2p

SPLIT: PAO cut-off radius determined from an
SPLIT: energy shift=  0.007350 Ry

   izeta = 1
                 lambda =    1.000000
                     rc =    6.790259
                 energy =   -0.258578
                kinetic =    1.481412
    potential(screened) =   -1.739989
       potential(ionic) =   -3.657461

   izeta = 2
                 rmatch =    4.608740
              splitnorm =    0.150000
                 energy =   -0.173757
                kinetic =    2.186690
    potential(screened) =   -2.360447
       potential(ionic) =   -4.464260

POLgen: Perturbative polarization orbital with L=  2

POLgen: Polarization orbital for state 2p

   izeta = 1
                     rc =    6.790259
                 energy =    0.684082
                kinetic =    1.471481
    potential(screened) =   -0.787399
       potential(ionic) =   -2.406985
atom: Total number of Sankey-type orbitals: 13

atm_pop: Valence configuration (for local Pseudopot. screening):
 2s( 2.00)                                                            
 2p( 1.00)                                                            
Vna: chval, zval:    3.00000   3.00000

Vna:  Cut-off radius for the neutral-atom potential:   6.790259
comcore: Pseudo-core radius Rcore=  2.122997

atom: _________________________________________________________________________

<basis_specs>
===============================================================================
C                    Z=   6    Mass=  12.010        Charge= 0.17977+309
Lmxo=1 Lmxkb= 3    BasisType=split      Semic=F
L=0  Nsemic=0  Cnfigmx=2
          n=1  nzeta=2  polorb=0
            splnorm:   0.15000    
               vcte:    0.0000    
               rinn:    0.0000    
                rcs:    0.0000      0.0000    
            lambdas:    1.0000      1.0000    
L=1  Nsemic=0  Cnfigmx=2
          n=1  nzeta=2  polorb=1
            splnorm:   0.15000    
               vcte:    0.0000    
               rinn:    0.0000    
                rcs:    0.0000      0.0000    
            lambdas:    1.0000      1.0000    
-------------------------------------------------------------------------------
L=0  Nkbl=1  erefs: 0.17977+309
L=1  Nkbl=1  erefs: 0.17977+309
L=2  Nkbl=1  erefs: 0.17977+309
L=3  Nkbl=1  erefs: 0.17977+309
===============================================================================
</basis_specs>

atom: Called for C                     (Z =   6)

read_vps: Pseudopotential generation method:
read_vps: ATM3      Troullier-Martins                       
Total valence charge:    4.00000

read_vps: Pseudopotential includes a core correction:
read_vps: Pseudo-core for xc-correction

xc_check: Exchange-correlation functional:
xc_check: GGA Perdew, Burke & Ernzerhof 1996
V l=0 = -2*Zval/r beyond r=  1.5227
V l=1 = -2*Zval/r beyond r=  1.5227
V l=2 = -2*Zval/r beyond r=  1.5227
V l=3 = -2*Zval/r beyond r=  1.5038
All V_l potentials equal beyond r=  1.5227
This should be close to max(r_c) in ps generation
All pots = -2*Zval/r beyond r=  1.5227

VLOCAL1: 99.0% of the norm of Vloc inside     18.722 Ry
VLOCAL1: 99.9% of the norm of Vloc inside     42.668 Ry
atom: Maximum radius for 4*pi*r*r*local-pseudopot. charge    1.83678
atom: Maximum radius for r*vlocal+2*Zval:    1.58088
GHOST: No ghost state for L =  0
GHOST: No ghost state for L =  1
GHOST: No ghost state for L =  2
GHOST: No ghost state for L =  3

KBgen: Kleinman-Bylander projectors: 
   l= 0   rc=  1.704034   el= -1.009801   Ekb=  5.335044   kbcos=  0.316824
   l= 1   rc=  1.704034   el= -0.388707   Ekb= -3.785862   kbcos= -0.366464
   l= 2   rc=  1.791422   el=  0.001971   Ekb= -0.970471   kbcos= -0.009212
   l= 3   rc=  1.859892   el=  0.003065   Ekb= -0.399525   kbcos= -0.001223

KBgen: Total number of  Kleinman-Bylander projectors:   16
atom: -------------------------------------------------------------------------

atom: SANKEY-TYPE ORBITALS:
atom: Selected multiple-zeta basis: split     

SPLIT: Orbitals with angular momentum L= 0

SPLIT: Basis orbitals for state 2s

SPLIT: PAO cut-off radius determined from an
SPLIT: energy shift=  0.007350 Ry

   izeta = 1
                 lambda =    1.000000
                     rc =    4.632753
                 energy =   -1.002270
                kinetic =    0.855760
    potential(screened) =   -1.858031
       potential(ionic) =   -5.417575

   izeta = 2
                 rmatch =    3.431921
              splitnorm =    0.150000
                 energy =   -0.867111
                kinetic =    1.300804
    potential(screened) =   -2.167915
       potential(ionic) =   -5.962684

SPLIT: Orbitals with angular momentum L= 1

SPLIT: Basis orbitals for state 2p

SPLIT: PAO cut-off radius determined from an
SPLIT: energy shift=  0.007350 Ry

   izeta = 1
                 lambda =    1.000000
                     rc =    5.658549
                 energy =   -0.381140
                kinetic =    2.399701
    potential(screened) =   -2.780841
       potential(ionic) =   -6.206085

   izeta = 2
                 rmatch =    3.653288
              splitnorm =    0.150000
                 energy =   -0.249149
                kinetic =    3.542762
    potential(screened) =   -3.791911
       potential(ionic) =   -7.581078

POLgen: Perturbative polarization orbital with L=  2

POLgen: Polarization orbital for state 2p

   izeta = 1
                     rc =    5.658549
                 energy =    1.109913
                kinetic =    2.304789
    potential(screened) =   -1.194876
       potential(ionic) =   -4.013592
atom: Total number of Sankey-type orbitals: 13

atm_pop: Valence configuration (for local Pseudopot. screening):
 2s( 2.00)                                                            
 2p( 2.00)                                                            
Vna: chval, zval:    4.00000   4.00000

Vna:  Cut-off radius for the neutral-atom potential:   5.658549
comcore: Pseudo-core radius Rcore=  1.791422

atom: _________________________________________________________________________

prinput: Basis input ----------------------------------------------------------

PAO.BasisType split     

%block ChemicalSpeciesLabel
    1    5 B                       # Species index, atomic number, species label
    2    6 C                       # Species index, atomic number, species label
%endblock ChemicalSpeciesLabel

%block PAO.Basis                 # Define Basis set
B                     2                    # Species label, number of l-shells
 n=2   0   2                         # n, l, Nzeta 
   5.422      4.223   
   1.000      1.000   
 n=2   1   2 P   1                   # n, l, Nzeta, Polarization, NzetaPol
   6.790      4.609   
   1.000      1.000   
C                     2                    # Species label, number of l-shells
 n=2   0   2                         # n, l, Nzeta 
   4.633      3.432   
   1.000      1.000   
 n=2   1   2 P   1                   # n, l, Nzeta, Polarization, NzetaPol
   5.659      3.653   
   1.000      1.000   
%endblock PAO.Basis

prinput: ----------------------------------------------------------------------

coor:   Atomic-coordinates input format  =     Fractional

siesta: Atomic coordinates (Bohr) and species
siesta:     -2.35420  17.38257   0.00000  1        1
siesta:     -0.02582  18.72698   0.00000  1        2
siesta:     -0.02582  21.41544   0.00000  1        3
siesta:      2.30256  22.75985   0.00000  1        4
siesta:      2.30256  25.44831   0.00000  1        5
siesta:     -4.68258  18.72698   0.00000  1        6
siesta:     -4.68258  21.41544   0.00000  1        7
siesta:     -2.35420  22.75985   0.00000  1        8
siesta:     -2.35420  25.44831   0.00000  1        9
siesta:     -0.02582  26.79272   0.00000  1       10
siesta:     -0.02582  29.48119   0.00000  1       11
siesta:     -0.02582   2.59549   0.00000  2       12
siesta:     -0.02582   5.28395   0.00000  2       13
siesta:     -2.35420  38.89134   0.00000  2       14
siesta:     -2.35420  41.57980   0.00000  2       15
siesta:      2.30256  38.89134   0.00000  2       16
siesta:      2.30256  41.57980   0.00000  2       17
siesta:      4.63094  34.85847   0.00000  2       18
siesta:      4.63094  37.54693   0.00000  2       19
siesta:      6.95932  30.82560   0.00000  2       20
siesta:      6.95932  33.51406   0.00000  2       21
siesta:      9.28770  26.79272   0.00000  2       22
siesta:      9.28770  29.48119   0.00000  2       23
siesta:     -4.68258  34.85847   0.00000  2       24
siesta:     -4.68258  37.54693   0.00000  2       25
siesta:      2.30256   6.62836   0.00000  2       26
siesta:      2.30256   9.31683   0.00000  2       27
siesta:      4.63094  10.66124   0.00000  2       28
siesta:      4.63094  13.34970   0.00000  2       29
siesta:      6.95932  14.69411   0.00000  2       30
siesta:      6.95932  17.38257   0.00000  2       31
siesta:      9.28770  18.72698   0.00000  2       32
siesta:      9.28770  21.41544   0.00000  2       33
siesta:     11.61608  22.75985   0.00000  2       34
siesta:     11.61608  25.44831   0.00000  2       35
siesta:     -2.35420   6.62836   0.00000  2       36
siesta:     -2.35420   9.31683   0.00000  2       37
siesta:     -0.02582  10.66124   0.00000  2       38
siesta:     -0.02582  13.34970   0.00000  2       39
siesta:      2.30256  14.69411   0.00000  2       40
siesta:      2.30256  17.38257   0.00000  2       41
siesta:      4.63094  18.72698   0.00000  2       42
siesta:      4.63094  21.41544   0.00000  2       43
siesta:      6.95932  22.75985   0.00000  2       44
siesta:      6.95932  25.44831   0.00000  2       45
siesta:     -4.68258  10.66124   0.00000  2       46
siesta:     -4.68258  13.34970   0.00000  2       47
siesta:     -2.35420  14.69411   0.00000  2       48
siesta:     -7.01096  14.69411   0.00000  2       49
siesta:     -7.01096  17.38257   0.00000  2       50
siesta:     -9.33934  18.72698   0.00000  2       51
siesta:     -9.33934  21.41544   0.00000  2       52
siesta:     -7.01096  22.75985   0.00000  2       53
siesta:     -7.01096  25.44831   0.00000  2       54
siesta:    -11.66772  22.75985   0.00000  2       55
siesta:    -11.66772  25.44831   0.00000  2       56
siesta:     -9.33934  26.79272   0.00000  2       57
siesta:     -9.33934  29.48119   0.00000  2       58
siesta:      4.63094  26.79272   0.00000  2       59
siesta:      4.63094  29.48119   0.00000  2       60
siesta:     -4.68258  26.79272   0.00000  2       61
siesta:     -4.68258  29.48119   0.00000  2       62
siesta:      2.30256  30.82560   0.00000  2       63
siesta:      2.30256  33.51406   0.00000  2       64
siesta:     -2.35420  30.82560   0.00000  2       65
siesta:     -2.35420  33.51406   0.00000  2       66
siesta:     -7.01096  30.82560   0.00000  2       67
siesta:     -7.01096  33.51406   0.00000  2       68
siesta:     -0.02582  34.85847   0.00000  2       69
siesta:     -0.02582  37.54693   0.00000  2       70
siesta:     -0.02582  42.92421   0.00000  2       71
siesta:     -0.02582  45.61267   0.00000  2       72

siesta: System type = slab      

initatomlists: Number of atoms, orbitals, and projectors:     72   936  1152

siesta: ******************** Simulation parameters ****************************
siesta:
siesta: The following are some of the parameters of the simulation.
siesta: A complete list of the parameters used, including default values,
siesta: can be found in file out.fdf
siesta:
redata: Non-Collinear-spin run           =     F
redata: SpinPolarized (Up/Down) run      =     F
redata: Number of spin components        =     1
redata: Long output                      =     F
redata: Number of Atomic Species         =        2
redata: Charge density info will appear in .RHO file
redata: Write Mulliken Pop.              =     NO
redata: Mesh Cutoff                      =   200.0000  Ry
redata: Net charge of the system         =     0.0000 |e|
redata: Max. number of SCF Iter          =      500
redata: SCF convergence failure will abort job
redata: Performing Pulay mixing using    =    10 iterations
redata: Mix DM in first SCF step ?       =     F
redata: Write Pulay info on disk?        =     F
redata: Discard 1st Pulay DM after  kick =     F
redata: New DM Mixing Weight             =     0.0500
redata: New DM Occupancy tolerance       = 0.000000000001
redata: No kicks to SCF
redata: DM Mixing Weight for Kicks       =     0.5000
redata: DM Tolerance for SCF             =     0.000100
redata: Require Energy convergence for SCF =     F
redata: DM Energy tolerance for SCF      =     0.000100 eV
redata: Require Harris convergence for SCF =     F
redata: DM Harris energy tolerance for SCF =     0.000100 eV
redata: Using Saved Data (generic)   =     F
redata: Use continuation files for DM    =     T
redata: Neglect nonoverlap interactions  =     F
redata: Method of Calculation            =     Diagonalization
redata: Divide and Conquer               =     T
redata: Electronic Temperature           =     0.0019  Ry
redata: Fix the spin of the system       =     F
redata: Dynamics option                  =     Verlet MD run
redata: Initial MD time step             =        1
redata:   Final MD time step             =        1
redata: Length of MD time step           =     1.0000  fs
redata: Initial Temperature of MD run    =     0.0000  K
redata: Perform a MD quench              =     F
redata: ***********************************************************************
Total number of electrons:   277.000000
Total ionic charge:   277.000000

* ProcessorY, Blocksize:    3  24

k-point displ. along   1 input, could be:     0.50    0.00
k-point displ. along   2 input, could be:     0.50    0.00
 Kpoints in:          231 . Kpoints trimmed:          231

siesta: k-grid: Number of k-points =   231
siesta: k-grid: Cutoff (effective) =     5.000 Ang
siesta: k-grid: Supercell and displacements
siesta: k-grid:   21   0   0      0.500
siesta: k-grid:    0  21   0      0.500
siesta: k-grid:    0   0   1      0.000
Naive supercell factors:     2    2    2

superc: Internal auxiliary supercell:     2 x     2 x     2  =       8
superc: Number of atoms, orbitals, and projectors:    576   7488   9216

* Maximum dynamic memory allocated =     4 MB

siesta:                 ==============================
                            Begin MD step =      1
                        ==============================

superc: Internal auxiliary supercell:     2 x     2 x     2  =       8
superc: Number of atoms, orbitals, and projectors:    576   7488   9216

outcell: Unit cell vectors (Ang):
       12.804619    7.392750    0.000000
        0.000000   14.785500    0.000000
        0.000000    0.000000   10.000000

outcell: Cell vector modules (Ang)   :   14.785500   14.785500   10.000000
outcell: Cell angles (23,13,12) (deg):     90.0000     90.0000     60.0000
outcell: Cell volume (Ang**3)        :   1893.2269
New_DM. Step:     1
Initializing Density Matrix...

InitMesh: MESH =   120 x   120 x    90 =     1296000
InitMesh: Mesh cutoff (required, used) =   200.000   223.865 Ry

* Maximum dynamic memory allocated =   149 MB

stepf: Fermi-Dirac step function

siesta: Program's energy decomposition (eV):
siesta: Ebs     =     -5682.124306
siesta: Eions   =     16994.387248
siesta: Ena     =      4446.270876
siesta: Ekin    =      5798.058349
siesta: Enl     =       719.906507
siesta: DEna    =        -0.000011
siesta: DUscf   =         0.000000
siesta: DUext   =         0.000000
siesta: Exc     =     -4187.353912
siesta: eta*DQ  =         0.000000
siesta: Emadel  =         0.000000
siesta: Emeta   =         0.000000
siesta: Emolmec =         0.000000
siesta: Ekinion =         0.000000
siesta: Eharris =     -9914.689982
siesta: Etot    =    -10217.505438
siesta: FreeEng =    -10217.505438

siesta: iscf   Eharris(eV)      E_KS(eV)   FreeEng(eV)   dDmax  Ef(eV)
siesta:    1    -9914.6900   -10217.5054   -10217.5054  6.3864 -8.0993
timer: Routine,Calls,Time,% = IterSCF        1    3048.224  99.59
elaps: Routine,Calls,Wall,% = IterSCF        1     254.622  99.59
siesta:    2   -14481.0604    -9211.8851    -9211.9445 16.6489 -3.4193
siesta:    3    -9862.1030   -10067.1281   -10067.1704  3.2769 -6.5114
siesta:    4    -9842.5976    -9916.3782    -9916.3905  1.1867 -5.3613
siesta:    5    -9794.5794    -9840.4888    -9840.5019  0.7932 -5.4907
siesta:    6    -9779.1708    -9808.8252    -9808.8449  0.7260 -5.3698
siesta:    7    -9773.3436    -9799.6779    -9799.7220  0.7253 -5.2486
siesta:    8    -9768.8945    -9791.1632    -9791.1988  0.7125 -5.1407
siesta:    9    -9768.9152    -9771.3045    -9771.3451  0.6066 -5.1824
siesta:   10    -9766.8651    -9767.1639    -9767.1979  0.5730 -5.1505
siesta:   11    -9766.3966    -9762.8343    -9762.8850  0.5008 -5.1077
siesta:   12    -9766.7296    -9745.8435    -9745.9064  0.2073 -4.9788
siesta:   13    -9766.1361    -9739.6624    -9739.7037  0.1697 -4.8276
siesta:   14    -9765.6042    -9742.6898    -9742.7333  0.1518 -4.8201
siesta:   15    -9765.2829    -9745.5889    -9745.6317  0.1338 -4.8324
siesta:   16    -9764.9637    -9749.6443    -9749.6856  0.1188 -4.9037
siesta:   17    -9764.8077    -9750.9496    -9750.9915  0.0996 -4.9307
siesta:   18    -9764.7216    -9753.6881    -9753.7298  0.0728 -4.9705
siesta:   19    -9764.6746    -9758.9342    -9758.9793  0.0427 -4.9885
siesta:   20    -9764.6637    -9761.4328    -9761.4753  0.0372 -4.9960
siesta:   21    -9764.6491    -9762.5575    -9762.6015  0.0301 -5.0105
siesta:   22    -9764.6506    -9762.6356    -9762.6821  0.0280 -5.0060
siesta:   23    -9764.6342    -9764.4600    -9764.5063  0.0154 -5.0102
siesta:   24    -9764.6358    -9764.3692    -9764.4212  0.0077 -5.0020
siesta:   25    -9764.6320    -9765.2484    -9765.2970  0.0072 -5.0032
siesta:   26    -9764.6317    -9765.0479    -9765.0976  0.0038 -4.9983
siesta:   27    -9764.6308    -9765.0033    -9765.0513  0.0029 -4.9974
siesta:   28    -9764.6307    -9764.8803    -9764.9284  0.0023 -4.9977
siesta:   29    -9764.6304    -9764.8358    -9764.8841  0.0021 -4.9989
siesta:   30    -9764.6306    -9764.7308    -9764.7791  0.0013 -4.9990
siesta:   31    -9764.6306    -9764.7141    -9764.7623  0.0008 -4.9992
siesta:   32    -9764.6306    -9764.6814    -9764.7296  0.0008 -4.9991
siesta:   33    -9764.6306    -9764.6502    -9764.6984  0.0007 -4.9989
siesta:   34    -9764.6306    -9764.6518    -9764.7000  0.0003 -4.9989
siesta:   35    -9764.6306    -9764.6516    -9764.6997  0.0003 -4.9990
siesta:   36    -9764.6306    -9764.6501    -9764.6983  0.0002 -4.9990
siesta:   37    -9764.6306    -9764.6422    -9764.6904  0.0002 -4.9990
siesta:   38    -9764.6306    -9764.6407    -9764.6889  0.0001 -4.9990

siesta: E_KS(eV) =            -9764.6387

siesta: E_KS - E_eggbox =     -9764.6387

siesta: Atomic forces (eV/Ang):
----------------------------------------
   Tot   -0.162882   -0.060801    0.000000
----------------------------------------
   Max  557.855768
   Res  152.961080    sqrt( Sum f_i^2 / 3N )
----------------------------------------
   Max  557.855768    constrained

Stress-tensor-Voigt (kbar):     -787.58    -2743.19       -0.48       -1.56        0.00        0.00
(Free)E + p*V (eV/cell)    -8373.7916
Target enthalpy (eV/cell)    -9764.6869

siesta: Stress tensor (static) (eV/Ang**3):
        -0.491562   -0.000973    0.000000
        -0.000973   -1.712148    0.000000
         0.000000    0.000000   -0.000297

siesta: Pressure (static):       1177.08239326  kBar

siesta: Stress tensor (total) (eV/Ang**3):
        -0.491562   -0.000973    0.000000
        -0.000973   -1.712148    0.000000
         0.000000    0.000000   -0.000297

siesta: Pressure (total):       1177.08239326  kBar

siesta: Temp_ion =       0.000 K

* Maximum dynamic memory allocated =   162 MB
Computing bands...

siesta: Program's energy decomposition (eV):
siesta: Ebs     =     -4355.707147
siesta: Eions   =     16994.387248
siesta: Ena     =      4446.270876
siesta: Ekin    =      8709.039302
siesta: Enl     =      -892.692197
siesta: DEna    =      -779.432602
siesta: DUscf   =       103.379079
siesta: DUext   =         0.000000
siesta: Exc     =     -4356.815941
siesta: eta*DQ  =         0.000000
siesta: Emadel  =         0.000000
siesta: Emeta   =         0.000000
siesta: Emolmec =         0.000000
siesta: Ekinion =         0.000000
siesta: Eharris =     -9764.630556
siesta: Etot    =     -9764.638731
siesta: FreeEng =     -9764.686887

siesta: Final energy (eV):
siesta:  Band Struct. =   -4355.707147
siesta:       Kinetic =    8709.039302
siesta:       Hartree =   28571.397965
siesta:    Ext. field =       0.000000
siesta:   Exch.-corr. =   -4356.815941
siesta:  Ion-electron =  -65545.563045
siesta:       Ion-ion =   22857.302987
siesta:       Ekinion =       0.000000
siesta:         Total =   -9764.638731

siesta: Atomic forces (eV/Ang):
siesta:      1  -15.485123   -3.278406    0.000000
siesta:      2    0.863687  408.663516    0.000000
siesta:      3   -1.050721    0.090475    0.000000
siesta:      4    4.248307   -3.549732    0.000000
siesta:      5    3.337357    4.085912    0.000000
siesta:      6   -1.570413   -3.089253    0.000000
siesta:      7   -4.630863    3.661262    0.000000
siesta:      8    3.319973   -3.127809    0.000000
siesta:      9   -5.497010    3.600277    0.000000
siesta:     10    0.491356   -0.004756    0.000000
siesta:     11   -0.280738 -409.285618    0.000000
siesta:     12   -0.099949  405.537705    0.000000
siesta:     13   -0.075461 -125.341023    0.000000
siesta:     14    1.808513  127.015769    0.000000
siesta:     15  -18.084243 -552.859853    0.000000
siesta:     16   -1.311813  126.944688    0.000000
siesta:     17   15.746723 -548.413402    0.000000
siesta:     18   26.675173    5.008443    0.000000
siesta:     19   33.299507 -548.905418    0.000000
siesta:     20    2.370589    0.253028    0.000000
siesta:     21   -2.448821    1.924613    0.000000
siesta:     22    2.405762    1.310468    0.000000
siesta:     23   -1.072765    0.846799    0.000000
siesta:     24  -26.595829    5.149983    0.000000
siesta:     25  -33.501519 -548.811299    0.000000
siesta:     26   17.271614  548.506737    0.000000
siesta:     27   -2.096539 -127.533152    0.000000
siesta:     28   32.167148  548.744174    0.000000
siesta:     29   26.870720   -4.222343    0.000000
siesta:     30   -2.741892   -2.200651    0.000000
siesta:     31    2.609437   -0.289995    0.000000
siesta:     32   -1.392637   -0.550888    0.000000
siesta:     33    2.500436   -1.454820    0.000000
siesta:     34   -0.318562    7.273348    0.000000
siesta:     35   -0.226258   -7.185721    0.000000
siesta:     36  -16.648955  548.377288    0.000000
siesta:     37    2.005720 -127.214663    0.000000
siesta:     38    0.082455  545.827792    0.000000
siesta:     39   -0.465662 -124.771452    0.000000
siesta:     40   25.016221  557.855768    0.000000
siesta:     41   22.072274   -2.656350    0.000000
siesta:     42   -0.790537    1.757928    0.000000
siesta:     43    2.654886   -1.541994    0.000000
siesta:     44    0.138205    0.267651    0.000000
siesta:     45    0.311076   -0.149258    0.000000
siesta:     46  -32.175478  549.069947    0.000000
siesta:     47  -26.483557   -4.019862    0.000000
siesta:     48  -23.254074  555.383073    0.000000
siesta:     49    2.747920   -1.638697    0.000000
siesta:     50   -7.112278   -1.888999    0.000000
siesta:     51    1.924627   -0.771789    0.000000
siesta:     52   -2.927690   -1.122262    0.000000
siesta:     53   -2.390767    2.212095    0.000000
siesta:     54   -0.422857   -0.289978    0.000000
siesta:     55    0.458470    7.044218    0.000000
siesta:     56    0.272263   -7.011951    0.000000
siesta:     57   -2.934704    1.603160    0.000000
siesta:     58    1.398974    0.555804    0.000000
siesta:     59    2.748742    1.289469    0.000000
siesta:     60   -0.756311   -1.572552    0.000000
siesta:     61   -2.881423    1.799605    0.000000
siesta:     62    0.710153   -1.838372    0.000000
siesta:     63   21.176228    2.524573    0.000000
siesta:     64   23.657006 -557.717676    0.000000
siesta:     65  -20.993822    2.419128    0.000000
siesta:     66  -23.899606 -557.006519    0.000000
siesta:     67   -2.441890    0.419991    0.000000
siesta:     68    2.381565    1.790422    0.000000
siesta:     69   -0.064823  125.907268    0.000000
siesta:     70    0.126581 -545.948896    0.000000
siesta:     71   -3.364700  127.218385    0.000000
siesta:     72    2.457744 -404.736154    0.000000
siesta: ----------------------------------------
siesta:    Tot   -0.162882   -0.060801    0.000000

siesta: Stress tensor (static) (eV/Ang**3):
siesta:    -0.491562   -0.000973    0.000000
siesta:    -0.000973   -1.712148    0.000000
siesta:     0.000000    0.000000   -0.000297

siesta: Cell volume =       1893.226884 Ang**3

siesta: Pressure (static):
siesta:                Solid            Molecule  Units
siesta:           0.00800148          0.11784281  Ry/Bohr**3
siesta:           0.73466910         10.81992639  eV/Ang**3
siesta:        1177.08239326      17335.62062602  kBar
(Free)E+ p_basis*V_orbitals  =       -9730.473781
(Free)Eharris+ p_basis*V_orbitals  =       -9730.463616

siesta: Electric dipole (a.u.)  =    0.000000    0.000000    0.000000
siesta: Electric dipole (Debye) =    0.000000    0.000000    0.000000

* Maximum dynamic memory allocated : Node    0 =   162 MB
* Maximum dynamic memory allocated : Node    1 =    65 MB
* Maximum dynamic memory allocated : Node    2 =    67 MB
* Maximum dynamic memory allocated : Node    3 =   148 MB
* Maximum dynamic memory allocated : Node    4 =   159 MB
* Maximum dynamic memory allocated : Node    5 =    58 MB
* Maximum dynamic memory allocated : Node    6 =    58 MB
* Maximum dynamic memory allocated : Node    7 =   151 MB
* Maximum dynamic memory allocated : Node    8 =   152 MB
* Maximum dynamic memory allocated : Node    9 =    61 MB
* Maximum dynamic memory allocated : Node   10 =    63 MB
* Maximum dynamic memory allocated : Node   11 =   143 MB

* Maximum memory occured during matrixMtoO                    

timer: CPU execution times:
timer:  Routine       Calls   Time/call    Tot.time        %
timer:  siesta            1  112749.277  112749.277   100.00
timer:  Setup             1       3.339       3.339     0.00
timer:  bands             3     225.375     676.125     0.60
timer:  writewave         1       0.022       0.022     0.00
timer:  KSV_init          1       0.006       0.006     0.00
timer:  IterMD            1  112062.875  112062.875    99.39
timer:  hsparse           1       0.279       0.279     0.00
timer:  overlap           1       6.425       6.425     0.01
timer:  IterSCF          38    2945.197  111917.502    99.26
timer:  kinefsm           2       3.275       6.549     0.01
timer:  nlefsm            2      19.674      39.349     0.03
timer:  DHSCF            39      79.481    3099.773     2.75
timer:  DHSCF1            1       1.193       1.193     0.00
timer:  DHSCF2            1      31.796      31.796     0.03
timer:  REORD           314       0.002       0.700     0.00
timer:  POISON           40       0.450      17.982     0.02
timer:  DHSCF3           39      77.942    3039.751     2.70
timer:  rhoofd           39      16.343     637.394     0.57
timer:  cellXC           39       2.413      94.098     0.08
timer:  vmat             39      39.615    1544.983     1.37
timer:  MolMec            2       0.000       0.000     0.00
timer:  diagon           38    2864.415  108847.778    96.54
timer:  c-eigval       8899       5.582   49672.005    44.06
timer:  c-buildHS      8899       0.035     314.416     0.28
timer:  cdiag         17677       5.686  100513.847    89.15
timer:  cdiag1        17677       0.260    4602.314     4.08
timer:  cdiag2        17677       1.831   32369.069    28.71
timer:  cdiag3        17677       3.375   59664.268    52.92
timer:  cdiag4        17677       0.087    1542.389     1.37
timer:  c-eigvec       8778       5.857   51416.745    45.60
timer:  c-buildD       8778       0.955    8387.351     7.44
timer:  DHSCF4            1      26.774      26.774     0.02
timer:  dfscf             1      24.709      24.709     0.02
timer:  overfsm           1       0.321       0.321     0.00
timer:  optical           1       6.332       6.332     0.01
  

elaps: ELAPSED times:
elaps:  Routine       Calls   Time/call    Tot.time        %
elaps:  siesta            1    9417.861    9417.861   100.00
elaps:  Setup             1       0.278       0.278     0.00
elaps:  bands             3      18.840      56.521     0.60
elaps:  writewave         1       0.002       0.002     0.00
elaps:  KSV_init          1       0.000       0.000     0.00
elaps:  IterMD            1    9360.527    9360.527    99.39
elaps:  hsparse           1       0.029       0.029     0.00
elaps:  overlap           1       0.714       0.714     0.01
elaps:  IterSCF          38     246.010    9348.384    99.26
elaps:  kinefsm           2       0.366       0.732     0.01
elaps:  nlefsm            2       1.721       3.441     0.04
elaps:  DHSCF            39       6.691     260.963     2.77
elaps:  DHSCF1            1       0.102       0.102     0.00
elaps:  DHSCF2            1       2.654       2.654     0.03
elaps:  REORD           314       0.000       0.092     0.00
elaps:  POISON           40       0.038       1.506     0.02
elaps:  DHSCF3           39       6.512     253.969     2.70
elaps:  rhoofd           39       2.773     108.142     1.15
elaps:  cellXC           39       0.201       7.840     0.08
elaps:  vmat             39       3.310     129.109     1.37
elaps:  MolMec            2       0.000       0.000     0.00
elaps:  diagon           38     239.267    9092.152    96.54
elaps:  c-eigval       8899       0.466    4148.990    44.05
elaps:  c-buildHS      8899       0.004      33.358     0.35
elaps:  cdiag         17677       0.471    8326.647    88.41
elaps:  cdiag1        17677       0.021     375.497     3.99
elaps:  cdiag2        17677       0.153    2706.138    28.73
elaps:  cdiag3        17677       0.282    4991.664    53.00
elaps:  cdiag4        17677       0.007     124.312     1.32
elaps:  c-eigvec       8778       0.483    4239.031    45.01
elaps:  c-buildD       8778       0.086     756.143     8.03
elaps:  DHSCF4            1       4.201       4.201     0.04
elaps:  dfscf             1       3.950       3.950     0.04
elaps:  overfsm           1       0.034       0.034     0.00
elaps:  optical           1       0.000       0.000     0.00
  
>> End of run:   5-MAY-2016   3:21:38
