Siesta Version:                                        siesta-3.2-pl-3
Architecture  : x86_64-unknown-linux-gnu--unknown
Compiler flags: mpiifort -g -O2 -fPIC -xSSE4.1 -fp-model source -shared-intel 
PARALLEL version

* Running on   12 nodes in parallel
>> Start of run:   3-MAY-2016  19:15:09

                           ***********************       
                           *  WELCOME TO SIESTA  *       
                           ***********************       

reinit: Reading from standard input
************************** Dump of input data file ****************************
#(1) General system descriptors
SystemName            GRP_doping    # Descriptive name of the system
SystemLabel           GRP_doping    # Short name for naming files
%include STRUCT.fdf
%include KPT.fdf
%include BASIS.fdf
#%include TS.fdf # for transiesta calculation
#(4) DFT, Grid, SCF
XC.functional         GGA           # LDA or GGA (default = LDA)
XC.authors            PBE           # CA (Ceperley-Aldr) = PZ
                                    #    (Perdew-Zunger) - LDA - Default
                                    # PW92 (Perdew-Wang-92) - LDA
                                    # PBE (Perdew-Burke-Ernzerhof) - GGA
MeshCutoff            200.000000    Ry      # Default: 50.0 Ry ~ 0.444 Bohr
                                    #         100.0 Ry ~ 0.314 Bohr
MaxSCFIterations      500           # Default: 50
DM.MixingWeight       0.05          # Default: 0.25
DM.NumberPulay        10            # Default: 0
DM.PulayOnFile        F             # SystemLabel.P1, SystemLabel.P2
DM.Tolerance          1.d-4         # Default: 1.d-4
DM.UseSaveDM          .true.        # because of the bug
SCFMustConverge       .true.
NeglNonOverlapInt     F             # Default: F
#(5) Eigenvalue problem: order-N or diagonalization
SolutionMethod        Diagon        # or Transiesta
ElectronicTemperature 300.0 K       # Default: 300.0 K
#(6) Molecular dynamics and relaxations
#MD.TypeOfRun          CG            # Type of dynamics:
#MD.VariableCell       F
#MD.NumCGsteps         0           # 0 for single-point / 100 for gopt
#MD.MaxCGDispl         0.2 Bohr      # Default: 0.2 Bohr
#MD.MaxForceTol        0.02 eV/Ang   # Default: 0.04 eV/Ang
#MD.MaxStressTol       1.0 GPa       # Default: 1.0 GPa
# Geometry Constraints
#%block GeometryConstraints
#	position from 1 to 44
#%endblock GeometryConstraints
BandLinesScale   pi/a
%block BandLines
 1   0.00000000  0.00000000  0.00000000
50   0.00000000  0.07809418  0.00000000
50   0.04509075  0.07809242  0.00000000
20   0.00000000  0.00000000  0.00000000
%endblock BandLines
************************** End of input data file *****************************

reinit: -----------------------------------------------------------------------
reinit: System Name: GRP_doping
reinit: -----------------------------------------------------------------------
reinit: System Label: GRP_doping                                                  
reinit: -----------------------------------------------------------------------

initatom: Reading input for the pseudopotentials and atomic orbitals ----------
 Species number:            1  Label: B Atomic number:           5
 Species number:            2  Label: C Atomic number:           6
Ground state valence configuration:   2s02  2p01
Reading pseudopotential information in formatted form from B.psf

Valence configuration for pseudopotential generation:
2s( 2.00) rc: 1.74
2p( 1.00) rc: 1.74
3d( 0.00) rc: 1.74
4f( 0.00) rc: 1.74
Ground state valence configuration:   2s02  2p02
Reading pseudopotential information in formatted form from C.psf

Valence configuration for pseudopotential generation:
2s( 2.00) rc: 1.54
2p( 2.00) rc: 1.54
3d( 0.00) rc: 1.54
4f( 0.00) rc: 1.54
For B, standard SIESTA heuristics set lmxkb to 3
 (one more than the basis l, including polarization orbitals).
Use PS.lmax or PS.KBprojectors blocks to override.
For C, standard SIESTA heuristics set lmxkb to 3
 (one more than the basis l, including polarization orbitals).
Use PS.lmax or PS.KBprojectors blocks to override.

<basis_specs>
===============================================================================
B                    Z=   5    Mass=  10.810        Charge= 0.17977+309
Lmxo=1 Lmxkb= 3    BasisType=split      Semic=F
L=0  Nsemic=0  Cnfigmx=2
          n=1  nzeta=2  polorb=0
            splnorm:   0.15000    
               vcte:    0.0000    
               rinn:    0.0000    
                rcs:    0.0000      0.0000    
            lambdas:    1.0000      1.0000    
L=1  Nsemic=0  Cnfigmx=2
          n=1  nzeta=2  polorb=1
            splnorm:   0.15000    
               vcte:    0.0000    
               rinn:    0.0000    
                rcs:    0.0000      0.0000    
            lambdas:    1.0000      1.0000    
-------------------------------------------------------------------------------
L=0  Nkbl=1  erefs: 0.17977+309
L=1  Nkbl=1  erefs: 0.17977+309
L=2  Nkbl=1  erefs: 0.17977+309
L=3  Nkbl=1  erefs: 0.17977+309
===============================================================================
</basis_specs>

atom: Called for B                     (Z =   5)

read_vps: Pseudopotential generation method:
read_vps: ATM3      Troullier-Martins                       
Total valence charge:    3.00000

read_vps: Pseudopotential includes a core correction:
read_vps: Pseudo-core for xc-correction

xc_check: Exchange-correlation functional:
xc_check: GGA Perdew, Burke & Ernzerhof 1996
V l=0 = -2*Zval/r beyond r=  1.7165
V l=1 = -2*Zval/r beyond r=  1.7165
V l=2 = -2*Zval/r beyond r=  1.7165
V l=3 = -2*Zval/r beyond r=  1.6951
All V_l potentials equal beyond r=  1.7165
This should be close to max(r_c) in ps generation
All pots = -2*Zval/r beyond r=  1.7165

VLOCAL1: 99.0% of the norm of Vloc inside     14.733 Ry
VLOCAL1: 99.9% of the norm of Vloc inside     33.577 Ry
atom: Maximum radius for 4*pi*r*r*local-pseudopot. charge    2.04484
atom: Maximum radius for r*vlocal+2*Zval:    1.75994
GHOST: No ghost state for L =  0
GHOST: No ghost state for L =  1
GHOST: No ghost state for L =  2
GHOST: No ghost state for L =  3

KBgen: Kleinman-Bylander projectors: 
   l= 0   rc=  1.897051   el= -0.693730   Ekb=  4.595746   kbcos=  0.286105
   l= 1   rc=  1.920920   el= -0.265236   Ekb= -2.350715   kbcos= -0.315747
   l= 2   rc=  2.044840   el=  0.002055   Ekb= -0.690767   kbcos= -0.013822
   l= 3   rc=  2.149707   el=  0.003188   Ekb= -0.315358   kbcos= -0.002055

KBgen: Total number of  Kleinman-Bylander projectors:   16
atom: -------------------------------------------------------------------------

atom: SANKEY-TYPE ORBITALS:
atom: Selected multiple-zeta basis: split     

SPLIT: Orbitals with angular momentum L= 0

SPLIT: Basis orbitals for state 2s

SPLIT: PAO cut-off radius determined from an
SPLIT: energy shift=  0.007350 Ry

   izeta = 1
                 lambda =    1.000000
                     rc =    5.422032
                 energy =   -0.686029
                kinetic =    0.576707
    potential(screened) =   -1.262736
       potential(ionic) =   -3.271094

   izeta = 2
                 rmatch =    4.222573
              splitnorm =    0.150000
                 energy =   -0.602132
                kinetic =    0.858975
    potential(screened) =   -1.461107
       potential(ionic) =   -3.582536

SPLIT: Orbitals with angular momentum L= 1

SPLIT: Basis orbitals for state 2p

SPLIT: PAO cut-off radius determined from an
SPLIT: energy shift=  0.007350 Ry

   izeta = 1
                 lambda =    1.000000
                     rc =    6.790259
                 energy =   -0.258578
                kinetic =    1.481412
    potential(screened) =   -1.739989
       potential(ionic) =   -3.657461

   izeta = 2
                 rmatch =    4.608740
              splitnorm =    0.150000
                 energy =   -0.173757
                kinetic =    2.186690
    potential(screened) =   -2.360447
       potential(ionic) =   -4.464260

POLgen: Perturbative polarization orbital with L=  2

POLgen: Polarization orbital for state 2p

   izeta = 1
                     rc =    6.790259
                 energy =    0.684082
                kinetic =    1.471481
    potential(screened) =   -0.787399
       potential(ionic) =   -2.406985
atom: Total number of Sankey-type orbitals: 13

atm_pop: Valence configuration (for local Pseudopot. screening):
 2s( 2.00)                                                            
 2p( 1.00)                                                            
Vna: chval, zval:    3.00000   3.00000

Vna:  Cut-off radius for the neutral-atom potential:   6.790259
comcore: Pseudo-core radius Rcore=  2.122997

atom: _________________________________________________________________________

<basis_specs>
===============================================================================
C                    Z=   6    Mass=  12.010        Charge= 0.17977+309
Lmxo=1 Lmxkb= 3    BasisType=split      Semic=F
L=0  Nsemic=0  Cnfigmx=2
          n=1  nzeta=2  polorb=0
            splnorm:   0.15000    
               vcte:    0.0000    
               rinn:    0.0000    
                rcs:    0.0000      0.0000    
            lambdas:    1.0000      1.0000    
L=1  Nsemic=0  Cnfigmx=2
          n=1  nzeta=2  polorb=1
            splnorm:   0.15000    
               vcte:    0.0000    
               rinn:    0.0000    
                rcs:    0.0000      0.0000    
            lambdas:    1.0000      1.0000    
-------------------------------------------------------------------------------
L=0  Nkbl=1  erefs: 0.17977+309
L=1  Nkbl=1  erefs: 0.17977+309
L=2  Nkbl=1  erefs: 0.17977+309
L=3  Nkbl=1  erefs: 0.17977+309
===============================================================================
</basis_specs>

atom: Called for C                     (Z =   6)

read_vps: Pseudopotential generation method:
read_vps: ATM3      Troullier-Martins                       
Total valence charge:    4.00000

read_vps: Pseudopotential includes a core correction:
read_vps: Pseudo-core for xc-correction

xc_check: Exchange-correlation functional:
xc_check: GGA Perdew, Burke & Ernzerhof 1996
V l=0 = -2*Zval/r beyond r=  1.5227
V l=1 = -2*Zval/r beyond r=  1.5227
V l=2 = -2*Zval/r beyond r=  1.5227
V l=3 = -2*Zval/r beyond r=  1.5038
All V_l potentials equal beyond r=  1.5227
This should be close to max(r_c) in ps generation
All pots = -2*Zval/r beyond r=  1.5227

VLOCAL1: 99.0% of the norm of Vloc inside     18.722 Ry
VLOCAL1: 99.9% of the norm of Vloc inside     42.668 Ry
atom: Maximum radius for 4*pi*r*r*local-pseudopot. charge    1.83678
atom: Maximum radius for r*vlocal+2*Zval:    1.58088
GHOST: No ghost state for L =  0
GHOST: No ghost state for L =  1
GHOST: No ghost state for L =  2
GHOST: No ghost state for L =  3

KBgen: Kleinman-Bylander projectors: 
   l= 0   rc=  1.704034   el= -1.009801   Ekb=  5.335044   kbcos=  0.316824
   l= 1   rc=  1.704034   el= -0.388707   Ekb= -3.785862   kbcos= -0.366464
   l= 2   rc=  1.791422   el=  0.001971   Ekb= -0.970471   kbcos= -0.009212
   l= 3   rc=  1.859892   el=  0.003065   Ekb= -0.399525   kbcos= -0.001223

KBgen: Total number of  Kleinman-Bylander projectors:   16
atom: -------------------------------------------------------------------------

atom: SANKEY-TYPE ORBITALS:
atom: Selected multiple-zeta basis: split     

SPLIT: Orbitals with angular momentum L= 0

SPLIT: Basis orbitals for state 2s

SPLIT: PAO cut-off radius determined from an
SPLIT: energy shift=  0.007350 Ry

   izeta = 1
                 lambda =    1.000000
                     rc =    4.632753
                 energy =   -1.002270
                kinetic =    0.855760
    potential(screened) =   -1.858031
       potential(ionic) =   -5.417575

   izeta = 2
                 rmatch =    3.431921
              splitnorm =    0.150000
                 energy =   -0.867111
                kinetic =    1.300804
    potential(screened) =   -2.167915
       potential(ionic) =   -5.962684

SPLIT: Orbitals with angular momentum L= 1

SPLIT: Basis orbitals for state 2p

SPLIT: PAO cut-off radius determined from an
SPLIT: energy shift=  0.007350 Ry

   izeta = 1
                 lambda =    1.000000
                     rc =    5.658549
                 energy =   -0.381140
                kinetic =    2.399701
    potential(screened) =   -2.780841
       potential(ionic) =   -6.206085

   izeta = 2
                 rmatch =    3.653288
              splitnorm =    0.150000
                 energy =   -0.249149
                kinetic =    3.542762
    potential(screened) =   -3.791911
       potential(ionic) =   -7.581078

POLgen: Perturbative polarization orbital with L=  2

POLgen: Polarization orbital for state 2p

   izeta = 1
                     rc =    5.658549
                 energy =    1.109913
                kinetic =    2.304789
    potential(screened) =   -1.194876
       potential(ionic) =   -4.013592
atom: Total number of Sankey-type orbitals: 13

atm_pop: Valence configuration (for local Pseudopot. screening):
 2s( 2.00)                                                            
 2p( 2.00)                                                            
Vna: chval, zval:    4.00000   4.00000

Vna:  Cut-off radius for the neutral-atom potential:   5.658549
comcore: Pseudo-core radius Rcore=  1.791422

atom: _________________________________________________________________________

prinput: Basis input ----------------------------------------------------------

PAO.BasisType split     

%block ChemicalSpeciesLabel
    1    5 B                       # Species index, atomic number, species label
    2    6 C                       # Species index, atomic number, species label
%endblock ChemicalSpeciesLabel

%block PAO.Basis                 # Define Basis set
B                     2                    # Species label, number of l-shells
 n=2   0   2                         # n, l, Nzeta 
   5.422      4.223   
   1.000      1.000   
 n=2   1   2 P   1                   # n, l, Nzeta, Polarization, NzetaPol
   6.790      4.609   
   1.000      1.000   
C                     2                    # Species label, number of l-shells
 n=2   0   2                         # n, l, Nzeta 
   4.633      3.432   
   1.000      1.000   
 n=2   1   2 P   1                   # n, l, Nzeta, Polarization, NzetaPol
   5.659      3.653   
   1.000      1.000   
%endblock PAO.Basis

prinput: ----------------------------------------------------------------------

coor:   Atomic-coordinates input format  =     Fractional

siesta: Atomic coordinates (Bohr) and species
siesta:      2.30256  41.57980   0.00000  1        1
siesta:      4.63094  13.34970   0.00000  1        2
siesta:      6.95932  17.38257   0.00000  1        3
siesta:      2.30256  14.69411   0.00000  1        4
siesta:      4.63094  18.72698   0.00000  1        5
siesta:      4.63094  21.41544   0.00000  1        6
siesta:      6.95932  25.44831   0.00000  1        7
siesta:     -2.35420  17.38257   0.00000  1        8
siesta:     -0.02582  21.41544   0.00000  1        9
siesta:      4.63094  26.79272   0.00000  1       10
siesta:     -0.02582  26.79272   0.00000  1       11
siesta:     -4.68258  26.79272   0.00000  1       12
siesta:     -2.35420  30.82560   0.00000  1       13
siesta:     -7.01096  33.51406   0.00000  1       14
siesta:     -0.02582  34.85847   0.00000  1       15
siesta:     -0.02582   2.59549   0.00000  2       16
siesta:     -0.02582   5.28395   0.00000  2       17
siesta:     -2.35420  38.89134   0.00000  2       18
siesta:     -2.35420  41.57980   0.00000  2       19
siesta:      2.30256  38.89134   0.00000  2       20
siesta:      4.63094  34.85847   0.00000  2       21
siesta:      4.63094  37.54693   0.00000  2       22
siesta:      6.95932  30.82560   0.00000  2       23
siesta:      6.95932  33.51406   0.00000  2       24
siesta:      9.28770  26.79272   0.00000  2       25
siesta:      9.28770  29.48119   0.00000  2       26
siesta:     -4.68258  34.85847   0.00000  2       27
siesta:     -4.68258  37.54693   0.00000  2       28
siesta:      2.30256   6.62836   0.00000  2       29
siesta:      2.30256   9.31683   0.00000  2       30
siesta:      4.63094  10.66124   0.00000  2       31
siesta:      6.95932  14.69411   0.00000  2       32
siesta:      9.28770  18.72698   0.00000  2       33
siesta:      9.28770  21.41544   0.00000  2       34
siesta:     11.61608  22.75985   0.00000  2       35
siesta:     11.61608  25.44831   0.00000  2       36
siesta:     -2.35420   6.62836   0.00000  2       37
siesta:     -2.35420   9.31683   0.00000  2       38
siesta:     -0.02582  10.66124   0.00000  2       39
siesta:     -0.02582  13.34970   0.00000  2       40
siesta:      2.30256  17.38257   0.00000  2       41
siesta:      6.95932  22.75985   0.00000  2       42
siesta:     -4.68258  10.66124   0.00000  2       43
siesta:     -4.68258  13.34970   0.00000  2       44
siesta:     -2.35420  14.69411   0.00000  2       45
siesta:     -0.02582  18.72698   0.00000  2       46
siesta:      2.30256  22.75985   0.00000  2       47
siesta:      2.30256  25.44831   0.00000  2       48
siesta:     -7.01096  14.69411   0.00000  2       49
siesta:     -7.01096  17.38257   0.00000  2       50
siesta:     -4.68258  18.72698   0.00000  2       51
siesta:     -4.68258  21.41544   0.00000  2       52
siesta:     -2.35420  22.75985   0.00000  2       53
siesta:     -2.35420  25.44831   0.00000  2       54
siesta:     -9.33934  18.72698   0.00000  2       55
siesta:     -9.33934  21.41544   0.00000  2       56
siesta:     -7.01096  22.75985   0.00000  2       57
siesta:     -7.01096  25.44831   0.00000  2       58
siesta:    -11.66772  22.75985   0.00000  2       59
siesta:    -11.66772  25.44831   0.00000  2       60
siesta:     -9.33934  26.79272   0.00000  2       61
siesta:     -9.33934  29.48119   0.00000  2       62
siesta:      4.63094  29.48119   0.00000  2       63
siesta:     -0.02582  29.48119   0.00000  2       64
siesta:     -4.68258  29.48119   0.00000  2       65
siesta:      2.30256  30.82560   0.00000  2       66
siesta:      2.30256  33.51406   0.00000  2       67
siesta:     -2.35420  33.51406   0.00000  2       68
siesta:     -7.01096  30.82560   0.00000  2       69
siesta:     -0.02582  37.54693   0.00000  2       70
siesta:     -0.02582  42.92421   0.00000  2       71
siesta:     -0.02582  45.61267   0.00000  2       72

siesta: System type = slab      

initatomlists: Number of atoms, orbitals, and projectors:     72   936  1152

siesta: ******************** Simulation parameters ****************************
siesta:
siesta: The following are some of the parameters of the simulation.
siesta: A complete list of the parameters used, including default values,
siesta: can be found in file out.fdf
siesta:
redata: Non-Collinear-spin run           =     F
redata: SpinPolarized (Up/Down) run      =     F
redata: Number of spin components        =     1
redata: Long output                      =     F
redata: Number of Atomic Species         =        2
redata: Charge density info will appear in .RHO file
redata: Write Mulliken Pop.              =     NO
redata: Mesh Cutoff                      =   200.0000  Ry
redata: Net charge of the system         =     0.0000 |e|
redata: Max. number of SCF Iter          =      500
redata: SCF convergence failure will abort job
redata: Performing Pulay mixing using    =    10 iterations
redata: Mix DM in first SCF step ?       =     F
redata: Write Pulay info on disk?        =     F
redata: Discard 1st Pulay DM after  kick =     F
redata: New DM Mixing Weight             =     0.0500
redata: New DM Occupancy tolerance       = 0.000000000001
redata: No kicks to SCF
redata: DM Mixing Weight for Kicks       =     0.5000
redata: DM Tolerance for SCF             =     0.000100
redata: Require Energy convergence for SCF =     F
redata: DM Energy tolerance for SCF      =     0.000100 eV
redata: Require Harris convergence for SCF =     F
redata: DM Harris energy tolerance for SCF =     0.000100 eV
redata: Using Saved Data (generic)   =     F
redata: Use continuation files for DM    =     T
redata: Neglect nonoverlap interactions  =     F
redata: Method of Calculation            =     Diagonalization
redata: Divide and Conquer               =     T
redata: Electronic Temperature           =     0.0019  Ry
redata: Fix the spin of the system       =     F
redata: Dynamics option                  =     Verlet MD run
redata: Initial MD time step             =        1
redata:   Final MD time step             =        1
redata: Length of MD time step           =     1.0000  fs
redata: Initial Temperature of MD run    =     0.0000  K
redata: Perform a MD quench              =     F
redata: ***********************************************************************
Total number of electrons:   273.000000
Total ionic charge:   273.000000

* ProcessorY, Blocksize:    3  24

k-point displ. along   1 input, could be:     0.50    0.00
k-point displ. along   2 input, could be:     0.50    0.00
 Kpoints in:          231 . Kpoints trimmed:          231

siesta: k-grid: Number of k-points =   231
siesta: k-grid: Cutoff (effective) =     5.000 Ang
siesta: k-grid: Supercell and displacements
siesta: k-grid:   21   0   0      0.500
siesta: k-grid:    0  21   0      0.500
siesta: k-grid:    0   0   1      0.000
Naive supercell factors:     2    2    2

superc: Internal auxiliary supercell:     2 x     2 x     2  =       8
superc: Number of atoms, orbitals, and projectors:    576   7488   9216

* Maximum dynamic memory allocated =     4 MB

siesta:                 ==============================
                            Begin MD step =      1
                        ==============================

superc: Internal auxiliary supercell:     2 x     2 x     2  =       8
superc: Number of atoms, orbitals, and projectors:    576   7488   9216

outcell: Unit cell vectors (Ang):
       12.804619    7.392750    0.000000
        0.000000   14.785500    0.000000
        0.000000    0.000000   10.000000

outcell: Cell vector modules (Ang)   :   14.785500   14.785500   10.000000
outcell: Cell angles (23,13,12) (deg):     90.0000     90.0000     60.0000
outcell: Cell volume (Ang**3)        :   1893.2269
New_DM. Step:     1
Initializing Density Matrix...

InitMesh: MESH =   120 x   120 x    90 =     1296000
InitMesh: Mesh cutoff (required, used) =   200.000   223.865 Ry

* Maximum dynamic memory allocated =   156 MB

stepf: Fermi-Dirac step function

siesta: Program's energy decomposition (eV):
siesta: Ebs     =     -5657.711111
siesta: Eions   =     16482.160403
siesta: Ena     =      4363.591041
siesta: Ekin    =      5587.107004
siesta: Enl     =       759.499480
siesta: DEna    =        -0.000010
siesta: DUscf   =         0.000000
siesta: DUext   =         0.000000
siesta: Exc     =     -4192.831215
siesta: eta*DQ  =         0.000000
siesta: Emadel  =         0.000000
siesta: Emeta   =         0.000000
siesta: Emolmec =         0.000000
siesta: Ekinion =         0.000000
siesta: Eharris =     -9700.553205
siesta: Etot    =     -9964.794103
siesta: FreeEng =     -9964.794103

siesta: iscf   Eharris(eV)      E_KS(eV)   FreeEng(eV)   dDmax  Ef(eV)
siesta:    1    -9700.5532    -9964.7941    -9964.7941  6.7823 -8.2988
timer: Routine,Calls,Time,% = IterSCF        1    3062.937  99.59
elaps: Routine,Calls,Wall,% = IterSCF        1     255.853  99.59
siesta:    2   -13973.6387    -9018.8403    -9018.8914 17.0064 -2.8127
siesta:    3    -9640.5085    -9817.3189    -9817.3594  2.9508 -6.7877
siesta:    4    -9609.2512    -9691.3965    -9691.4387  1.4541 -5.7885
siesta:    5    -9563.8909    -9593.7425    -9593.8068  0.7919 -5.4589
siesta:    6    -9557.7665    -9574.5331    -9574.5716  0.7485 -5.4264
siesta:    7    -9549.9669    -9558.7556    -9558.7967  0.6340 -5.3007
siesta:    8    -9547.1908    -9548.9074    -9548.9870  0.5335 -5.1550
siesta:    9    -9547.9336    -9537.6953    -9537.7342  0.3990 -5.0519
siesta:   10    -9547.5234    -9530.7494    -9530.7974  0.2789 -5.0433
siesta:   11    -9546.6162    -9527.2847    -9527.3318  0.2068 -5.0456
siesta:   12    -9546.5162    -9524.7195    -9524.7628  0.1955 -5.0294
siesta:   13    -9546.2952    -9524.8891    -9524.9256  0.1747 -5.0272
siesta:   14    -9545.6825    -9530.2362    -9530.2745  0.1267 -5.0627
siesta:   15    -9545.3787    -9535.9959    -9536.0525  0.0877 -5.0804
siesta:   16    -9545.2803    -9538.0533    -9538.1106  0.0740 -5.0979
siesta:   17    -9545.2113    -9540.8304    -9540.8938  0.0583 -5.1124
siesta:   18    -9545.2105    -9542.9460    -9543.0109  0.0563 -5.1101
siesta:   19    -9545.1958    -9544.1477    -9544.2048  0.0472 -5.1132
siesta:   20    -9545.1944    -9544.9889    -9545.0543  0.0366 -5.1056
siesta:   21    -9545.1915    -9545.1245    -9545.1895  0.0262 -5.0968
siesta:   22    -9545.1887    -9545.4951    -9545.5594  0.0154 -5.0982
siesta:   23    -9545.1865    -9545.4736    -9545.5393  0.0099 -5.0951
siesta:   24    -9545.1861    -9545.5512    -9545.6172  0.0069 -5.0929
siesta:   25    -9545.1857    -9545.5465    -9545.6121  0.0039 -5.0923
siesta:   26    -9545.1861    -9545.4949    -9545.5605  0.0021 -5.0925
siesta:   27    -9545.1859    -9545.4732    -9545.5385  0.0014 -5.0927
siesta:   28    -9545.1859    -9545.3935    -9545.4590  0.0012 -5.0930
siesta:   29    -9545.1859    -9545.3394    -9545.4049  0.0009 -5.0928
siesta:   30    -9545.1859    -9545.2349    -9545.3003  0.0005 -5.0927
siesta:   31    -9545.1859    -9545.2097    -9545.2751  0.0004 -5.0927
siesta:   32    -9545.1859    -9545.1872    -9545.2525  0.0003 -5.0927
siesta:   33    -9545.1859    -9545.1800    -9545.2453  0.0002 -5.0927
siesta:   34    -9545.1859    -9545.1827    -9545.2480  0.0001 -5.0927
siesta:   35    -9545.1859    -9545.1829    -9545.2483  0.0001 -5.0927

siesta: E_KS(eV) =            -9545.1826

siesta: E_KS - E_eggbox =     -9545.1826

siesta: Atomic forces (eV/Ang):
----------------------------------------
   Tot    0.051629    0.160052    0.000000
----------------------------------------
   Max  556.921293
   Res  154.935962    sqrt( Sum f_i^2 / 3N )
----------------------------------------
   Max  556.921293    constrained

Stress-tensor-Voigt (kbar):     -788.59    -2750.85       -0.54      -11.77        0.00        0.00
(Free)E + p*V (eV/cell)    -8150.9115
Target enthalpy (eV/cell)    -9545.2479

siesta: Stress tensor (static) (eV/Ang**3):
        -0.492196   -0.007345    0.000000
        -0.007346   -1.716927    0.000000
         0.000000    0.000000   -0.000338

siesta: Pressure (static):       1179.99453526  kBar

siesta: Stress tensor (total) (eV/Ang**3):
        -0.492196   -0.007345    0.000000
        -0.007346   -1.716927    0.000000
         0.000000    0.000000   -0.000338

siesta: Pressure (total):       1179.99453526  kBar

siesta: Temp_ion =       0.000 K

* Maximum dynamic memory allocated =   168 MB
Computing bands...

siesta: Program's energy decomposition (eV):
siesta: Ebs     =     -4266.986095
siesta: Eions   =     16482.160403
siesta: Ena     =      4363.591041
siesta: Ekin    =      8509.876862
siesta: Enl     =      -871.732009
siesta: DEna    =      -806.056187
siesta: DUscf   =       109.040691
siesta: DUext   =         0.000000
siesta: Exc     =     -4367.742562
siesta: eta*DQ  =         0.000000
siesta: Emadel  =         0.000000
siesta: Emeta   =         0.000000
siesta: Emolmec =         0.000000
siesta: Ekinion =         0.000000
siesta: Eharris =     -9545.185915
siesta: Etot    =     -9545.182567
siesta: FreeEng =     -9545.247930

siesta: Final energy (eV):
siesta:  Band Struct. =   -4266.986095
siesta:       Kinetic =    8509.876862
siesta:       Hartree =   27522.974200
siesta:    Ext. field =       0.000000
siesta:   Exch.-corr. =   -4367.742562
siesta:  Ion-electron =  -63248.547492
siesta:       Ion-ion =   22038.256425
siesta:       Ekinion =       0.000000
siesta:         Total =   -9545.182567

siesta: Atomic forces (eV/Ang):
siesta:      1    8.823929 -296.054976    0.000000
siesta:      2   23.047610   -1.430807    0.000000
siesta:      3    8.430769   -5.169757    0.000000
siesta:      4   24.232784  301.043462    0.000000
siesta:      5   -6.726510   -3.651761    0.000000
siesta:      6    0.799162    4.890910    0.000000
siesta:      7    3.541729   -3.547969    0.000000
siesta:      8  -19.056794   -4.242408    0.000000
siesta:      9    0.655344    1.309248    0.000000
siesta:     10   -3.967991    2.181588    0.000000
siesta:     11    0.180902   -1.757786    0.000000
siesta:     12    0.199502   -0.589080    0.000000
siesta:     13  -20.157994    2.627053    0.000000
siesta:     14    0.510950    2.699950    0.000000
siesta:     15   -0.382027  113.698967    0.000000
siesta:     16    3.718499  551.107749    0.000000
siesta:     17   -3.156977 -135.119619    0.000000
siesta:     18    1.479921  128.564812    0.000000
siesta:     19  -21.571218 -553.121038    0.000000
siesta:     20    1.581395  123.524144    0.000000
siesta:     21   26.838728    5.176595    0.000000
siesta:     22   36.079520 -555.454702    0.000000
siesta:     23    1.837202    1.348194    0.000000
siesta:     24   -2.303697    1.543707    0.000000
siesta:     25    6.608417    4.507481    0.000000
siesta:     26   -1.211337   -0.278600    0.000000
siesta:     27  -24.217718    6.485202    0.000000
siesta:     28  -33.822977 -549.342031    0.000000
siesta:     29   23.135701  551.026470    0.000000
siesta:     30   -2.188795 -127.005158    0.000000
siesta:     31   27.842320  549.688906    0.000000
siesta:     32   -0.503719   -1.182363    0.000000
siesta:     33    1.651416    3.467882    0.000000
siesta:     34    3.030336   -2.357218    0.000000
siesta:     35    1.347362    5.715765    0.000000
siesta:     36   -0.632474   -6.456028    0.000000
siesta:     37  -22.454694  553.557547    0.000000
siesta:     38    3.307648 -130.196856    0.000000
siesta:     39    1.845388  552.446038    0.000000
siesta:     40    5.722306 -117.228437    0.000000
siesta:     41   19.631211   -1.483051    0.000000
siesta:     42    2.251406   -0.333690    0.000000
siesta:     43  -31.850187  548.953234    0.000000
siesta:     44  -25.858551   -2.420395    0.000000
siesta:     45  -29.783279  551.489831    0.000000
siesta:     46    0.914330  556.556524    0.000000
siesta:     47   -1.045025    2.421266    0.000000
siesta:     48    0.246517   -2.775228    0.000000
siesta:     49    2.290248   -2.242923    0.000000
siesta:     50   -2.664492    0.092064    0.000000
siesta:     51   -0.406155    2.040229    0.000000
siesta:     52   -0.187320    0.387805    0.000000
siesta:     53   -3.007953    1.631663    0.000000
siesta:     54   -0.287620   -2.963178    0.000000
siesta:     55    1.229404   -0.882160    0.000000
siesta:     56   -2.773439   -1.855352    0.000000
siesta:     57   -0.220680    1.374092    0.000000
siesta:     58   -2.911370   -2.743308    0.000000
siesta:     59    0.536768    6.657588    0.000000
siesta:     60   -0.040549   -6.526512    0.000000
siesta:     61   -2.264322    1.091205    0.000000
siesta:     62    1.535404    0.803087    0.000000
siesta:     63   -1.441324    1.864210    0.000000
siesta:     64   -2.112609 -556.921293    0.000000
siesta:     65    0.011838    2.743005    0.000000
siesta:     66   22.046138    6.230185    0.000000
siesta:     67   17.252678 -551.048064    0.000000
siesta:     68  -16.564515 -548.867761    0.000000
siesta:     69   -4.555088   -2.783493    0.000000
siesta:     70   -2.730549 -546.548187    0.000000
siesta:     71    8.121936  123.669438    0.000000
siesta:     72    0.594862 -549.875855    0.000000
siesta: ----------------------------------------
siesta:    Tot    0.051629    0.160052    0.000000

siesta: Stress tensor (static) (eV/Ang**3):
siesta:    -0.492196   -0.007345    0.000000
siesta:    -0.007346   -1.716927    0.000000
siesta:     0.000000    0.000000   -0.000338

siesta: Cell volume =       1893.226884 Ang**3

siesta: Pressure (static):
siesta:                Solid            Molecule  Units
siesta:           0.00802128          0.11914981  Ry/Bohr**3
siesta:           0.73648670         10.93993071  eV/Ang**3
siesta:        1179.99453526      17527.89082129  kBar
(Free)E+ p_basis*V_orbitals  =       -9509.771011
(Free)Eharris+ p_basis*V_orbitals  =       -9509.774048

siesta: Electric dipole (a.u.)  =    0.000000    0.000000    0.000000
siesta: Electric dipole (Debye) =    0.000000    0.000000    0.000000

* Maximum dynamic memory allocated : Node    0 =   167 MB
* Maximum dynamic memory allocated : Node    1 =    65 MB
* Maximum dynamic memory allocated : Node    2 =    68 MB
* Maximum dynamic memory allocated : Node    3 =   153 MB
* Maximum dynamic memory allocated : Node    4 =   168 MB
* Maximum dynamic memory allocated : Node    5 =    61 MB
* Maximum dynamic memory allocated : Node    6 =    62 MB
* Maximum dynamic memory allocated : Node    7 =   158 MB
* Maximum dynamic memory allocated : Node    8 =   149 MB
* Maximum dynamic memory allocated : Node    9 =    59 MB
* Maximum dynamic memory allocated : Node   10 =    61 MB
* Maximum dynamic memory allocated : Node   11 =   142 MB

* Maximum memory occured during matrixMtoO                    

timer: CPU execution times:
timer:  Routine       Calls   Time/call    Tot.time        %
timer:  siesta            1  104356.712  104356.712   100.00
timer:  Setup             1       3.370       3.370     0.00
timer:  bands             3     226.615     679.845     0.65
timer:  writewave         1       0.024       0.024     0.00
timer:  KSV_init          1       0.004       0.004     0.00
timer:  IterMD            1  103666.567  103666.567    99.34
timer:  hsparse           1       0.282       0.282     0.00
timer:  overlap           1       7.205       7.205     0.01
timer:  IterSCF          35    2957.412  103509.426    99.19
timer:  kinefsm           2       3.667       7.334     0.01
timer:  nlefsm            2      20.207      40.413     0.04
timer:  DHSCF            36      80.958    2914.476     2.79
timer:  DHSCF1            1       1.190       1.190     0.00
timer:  DHSCF2            1      33.079      33.079     0.03
timer:  REORD           290       0.002       0.712     0.00
timer:  POISON           37       0.448      16.568     0.02
timer:  DHSCF3           36      79.229    2852.229     2.73
timer:  rhoofd           36      16.952     610.273     0.58
timer:  cellXC           36       2.414      86.920     0.08
timer:  vmat             36      37.518    1350.632     1.29
timer:  MolMec            2       0.000       0.000     0.00
timer:  diagon           35    2875.284  100634.942    96.43
timer:  c-eigval       8206       5.604   45989.929    44.07
timer:  c-buildHS      8206       0.036     294.735     0.28
timer:  cdiag         16291       5.704   92929.880    89.05
timer:  cdiag1        16291       0.261    4253.020     4.08
timer:  cdiag2        16291       1.840   29976.134    28.72
timer:  cdiag3        16291       3.392   55257.408    52.95
timer:  cdiag4        16291       0.086    1401.499     1.34
timer:  c-eigvec       8085       5.873   47481.047    45.50
timer:  c-buildD       8085       0.965    7799.640     7.47
timer:  DHSCF4            1      27.726      27.726     0.03
timer:  dfscf             1      25.624      25.624     0.02
timer:  overfsm           1       0.327       0.327     0.00
timer:  optical           1       6.324       6.324     0.01
  

elaps: ELAPSED times:
elaps:  Routine       Calls   Time/call    Tot.time        %
elaps:  siesta            1    8716.900    8716.900   100.00
elaps:  Setup             1       0.282       0.282     0.00
elaps:  bands             3      18.945      56.834     0.65
elaps:  writewave         1       0.002       0.002     0.00
elaps:  KSV_init          1       0.000       0.000     0.00
elaps:  IterMD            1    8659.251    8659.251    99.34
elaps:  hsparse           1       0.028       0.028     0.00
elaps:  overlap           1       0.716       0.716     0.01
elaps:  IterSCF          35     247.032    8646.126    99.19
elaps:  kinefsm           2       0.368       0.737     0.01
elaps:  nlefsm            2       1.825       3.650     0.04
elaps:  DHSCF            36       6.821     245.553     2.82
elaps:  DHSCF1            1       0.101       0.101     0.00
elaps:  DHSCF2            1       2.762       2.762     0.03
elaps:  REORD           290       0.000       0.086     0.00
elaps:  POISON           37       0.038       1.395     0.02
elaps:  DHSCF3           36       6.619     238.275     2.73
elaps:  rhoofd           36       2.893     104.146     1.19
elaps:  cellXC           36       0.201       7.246     0.08
elaps:  vmat             36       3.134     112.841     1.29
elaps:  MolMec            2       0.000       0.000     0.00
elaps:  diagon           35     240.180    8406.293    96.44
elaps:  c-eigval       8206       0.468    3841.484    44.07
elaps:  c-buildHS      8206       0.004      31.893     0.37
elaps:  cdiag         16291       0.471    7674.159    88.04
elaps:  cdiag1        16291       0.021     346.847     3.98
elaps:  cdiag2        16291       0.154    2506.174    28.75
elaps:  cdiag3        16291       0.284    4622.573    53.03
elaps:  cdiag4        16291       0.007     111.951     1.28
elaps:  c-eigvec       8085       0.481    3891.288    44.64
elaps:  c-buildD       8085       0.090     726.157     8.33
elaps:  DHSCF4            1       4.379       4.379     0.05
elaps:  dfscf             1       4.122       4.122     0.05
elaps:  overfsm           1       0.036       0.036     0.00
elaps:  optical           1       0.000       0.000     0.00
  
>> End of run:   3-MAY-2016  21:40:26
