Siesta Version:                                        siesta-3.2-pl-3
Architecture  : x86_64-unknown-linux-gnu--unknown
Compiler flags: mpiifort -g -O2 -fPIC -xSSE4.1 -fp-model source -shared-intel 
PARALLEL version

* Running on    8 nodes in parallel
>> Start of run:  18-APR-2016  18:53:03

                           ***********************       
                           *  WELCOME TO SIESTA  *       
                           ***********************       

reinit: Reading from standard input
************************** Dump of input data file ****************************
#(1) General system descriptors
SystemName            GRP_doping    # Descriptive name of the system
SystemLabel           GRP_doping    # Short name for naming files
%include STRUCT.fdf
%include KPT.fdf
%include BASIS.fdf
#%include TS.fdf # for transiesta calculation
#(4) DFT, Grid, SCF
XC.functional         GGA           # LDA or GGA (default = LDA)
XC.authors            PBE           # CA (Ceperley-Aldr) = PZ
                                    #    (Perdew-Zunger) - LDA - Default
                                    # PW92 (Perdew-Wang-92) - LDA
                                    # PBE (Perdew-Burke-Ernzerhof) - GGA
MeshCutoff            200.000000    Ry      # Default: 50.0 Ry ~ 0.444 Bohr
                                    #         100.0 Ry ~ 0.314 Bohr
MaxSCFIterations      500           # Default: 50
DM.MixingWeight       0.05          # Default: 0.25
DM.NumberPulay        10            # Default: 0
DM.PulayOnFile        F             # SystemLabel.P1, SystemLabel.P2
DM.Tolerance          1.d-4         # Default: 1.d-4
DM.UseSaveDM          .true.        # because of the bug
SCFMustConverge       .true.
NeglNonOverlapInt     F             # Default: F
#(5) Eigenvalue problem: order-N or diagonalization
SolutionMethod        Diagon        # or Transiesta
ElectronicTemperature 300.0 K       # Default: 300.0 K
#(6) Molecular dynamics and relaxations
#MD.TypeOfRun          CG            # Type of dynamics:
#MD.VariableCell       F
#MD.NumCGsteps         0           # 0 for single-point / 100 for gopt
#MD.MaxCGDispl         0.2 Bohr      # Default: 0.2 Bohr
#MD.MaxForceTol        0.02 eV/Ang   # Default: 0.04 eV/Ang
#MD.MaxStressTol       1.0 GPa       # Default: 1.0 GPa
# Geometry Constraints
#%block GeometryConstraints
#	position from 1 to 44
#%endblock GeometryConstraints
BandLinesScale   pi/a
%block BandLines
 1   0.00000000  0.00000000  0.00000000
50   0.00000000  0.07809418  0.00000000
50   0.04509075  0.07809242  0.00000000
20   0.00000000  0.00000000  0.00000000
%endblock BandLines
************************** End of input data file *****************************

reinit: -----------------------------------------------------------------------
reinit: System Name: GRP_doping
reinit: -----------------------------------------------------------------------
reinit: System Label: GRP_doping                                                  
reinit: -----------------------------------------------------------------------

initatom: Reading input for the pseudopotentials and atomic orbitals ----------
 Species number:            1  Label: B Atomic number:           5
 Species number:            2  Label: C Atomic number:           6
Ground state valence configuration:   2s02  2p01
Reading pseudopotential information in formatted form from B.psf

Valence configuration for pseudopotential generation:
2s( 2.00) rc: 1.74
2p( 1.00) rc: 1.74
3d( 0.00) rc: 1.74
4f( 0.00) rc: 1.74
Ground state valence configuration:   2s02  2p02
Reading pseudopotential information in formatted form from C.psf

Valence configuration for pseudopotential generation:
2s( 2.00) rc: 1.54
2p( 2.00) rc: 1.54
3d( 0.00) rc: 1.54
4f( 0.00) rc: 1.54
For B, standard SIESTA heuristics set lmxkb to 3
 (one more than the basis l, including polarization orbitals).
Use PS.lmax or PS.KBprojectors blocks to override.
For C, standard SIESTA heuristics set lmxkb to 3
 (one more than the basis l, including polarization orbitals).
Use PS.lmax or PS.KBprojectors blocks to override.

<basis_specs>
===============================================================================
B                    Z=   5    Mass=  10.810        Charge= 0.17977+309
Lmxo=1 Lmxkb= 3    BasisType=split      Semic=F
L=0  Nsemic=0  Cnfigmx=2
          n=1  nzeta=2  polorb=0
            splnorm:   0.15000    
               vcte:    0.0000    
               rinn:    0.0000    
                rcs:    0.0000      0.0000    
            lambdas:    1.0000      1.0000    
L=1  Nsemic=0  Cnfigmx=2
          n=1  nzeta=2  polorb=1
            splnorm:   0.15000    
               vcte:    0.0000    
               rinn:    0.0000    
                rcs:    0.0000      0.0000    
            lambdas:    1.0000      1.0000    
-------------------------------------------------------------------------------
L=0  Nkbl=1  erefs: 0.17977+309
L=1  Nkbl=1  erefs: 0.17977+309
L=2  Nkbl=1  erefs: 0.17977+309
L=3  Nkbl=1  erefs: 0.17977+309
===============================================================================
</basis_specs>

atom: Called for B                     (Z =   5)

read_vps: Pseudopotential generation method:
read_vps: ATM3      Troullier-Martins                       
Total valence charge:    3.00000

read_vps: Pseudopotential includes a core correction:
read_vps: Pseudo-core for xc-correction

xc_check: Exchange-correlation functional:
xc_check: GGA Perdew, Burke & Ernzerhof 1996
V l=0 = -2*Zval/r beyond r=  1.7165
V l=1 = -2*Zval/r beyond r=  1.7165
V l=2 = -2*Zval/r beyond r=  1.7165
V l=3 = -2*Zval/r beyond r=  1.6951
All V_l potentials equal beyond r=  1.7165
This should be close to max(r_c) in ps generation
All pots = -2*Zval/r beyond r=  1.7165

VLOCAL1: 99.0% of the norm of Vloc inside     14.733 Ry
VLOCAL1: 99.9% of the norm of Vloc inside     33.577 Ry
atom: Maximum radius for 4*pi*r*r*local-pseudopot. charge    2.04484
atom: Maximum radius for r*vlocal+2*Zval:    1.75994
GHOST: No ghost state for L =  0
GHOST: No ghost state for L =  1
GHOST: No ghost state for L =  2
GHOST: No ghost state for L =  3

KBgen: Kleinman-Bylander projectors: 
   l= 0   rc=  1.897051   el= -0.693730   Ekb=  4.595746   kbcos=  0.286105
   l= 1   rc=  1.920920   el= -0.265236   Ekb= -2.350715   kbcos= -0.315747
   l= 2   rc=  2.044840   el=  0.002055   Ekb= -0.690767   kbcos= -0.013822
   l= 3   rc=  2.149707   el=  0.003188   Ekb= -0.315358   kbcos= -0.002055

KBgen: Total number of  Kleinman-Bylander projectors:   16
atom: -------------------------------------------------------------------------

atom: SANKEY-TYPE ORBITALS:
atom: Selected multiple-zeta basis: split     

SPLIT: Orbitals with angular momentum L= 0

SPLIT: Basis orbitals for state 2s

SPLIT: PAO cut-off radius determined from an
SPLIT: energy shift=  0.007350 Ry

   izeta = 1
                 lambda =    1.000000
                     rc =    5.422032
                 energy =   -0.686029
                kinetic =    0.576707
    potential(screened) =   -1.262736
       potential(ionic) =   -3.271094

   izeta = 2
                 rmatch =    4.222573
              splitnorm =    0.150000
                 energy =   -0.602132
                kinetic =    0.858975
    potential(screened) =   -1.461107
       potential(ionic) =   -3.582536

SPLIT: Orbitals with angular momentum L= 1

SPLIT: Basis orbitals for state 2p

SPLIT: PAO cut-off radius determined from an
SPLIT: energy shift=  0.007350 Ry

   izeta = 1
                 lambda =    1.000000
                     rc =    6.790259
                 energy =   -0.258578
                kinetic =    1.481412
    potential(screened) =   -1.739989
       potential(ionic) =   -3.657461

   izeta = 2
                 rmatch =    4.608740
              splitnorm =    0.150000
                 energy =   -0.173757
                kinetic =    2.186690
    potential(screened) =   -2.360447
       potential(ionic) =   -4.464260

POLgen: Perturbative polarization orbital with L=  2

POLgen: Polarization orbital for state 2p

   izeta = 1
                     rc =    6.790259
                 energy =    0.684082
                kinetic =    1.471481
    potential(screened) =   -0.787399
       potential(ionic) =   -2.406985
atom: Total number of Sankey-type orbitals: 13

atm_pop: Valence configuration (for local Pseudopot. screening):
 2s( 2.00)                                                            
 2p( 1.00)                                                            
Vna: chval, zval:    3.00000   3.00000

Vna:  Cut-off radius for the neutral-atom potential:   6.790259
comcore: Pseudo-core radius Rcore=  2.122997

atom: _________________________________________________________________________

<basis_specs>
===============================================================================
C                    Z=   6    Mass=  12.010        Charge= 0.17977+309
Lmxo=1 Lmxkb= 3    BasisType=split      Semic=F
L=0  Nsemic=0  Cnfigmx=2
          n=1  nzeta=2  polorb=0
            splnorm:   0.15000    
               vcte:    0.0000    
               rinn:    0.0000    
                rcs:    0.0000      0.0000    
            lambdas:    1.0000      1.0000    
L=1  Nsemic=0  Cnfigmx=2
          n=1  nzeta=2  polorb=1
            splnorm:   0.15000    
               vcte:    0.0000    
               rinn:    0.0000    
                rcs:    0.0000      0.0000    
            lambdas:    1.0000      1.0000    
-------------------------------------------------------------------------------
L=0  Nkbl=1  erefs: 0.17977+309
L=1  Nkbl=1  erefs: 0.17977+309
L=2  Nkbl=1  erefs: 0.17977+309
L=3  Nkbl=1  erefs: 0.17977+309
===============================================================================
</basis_specs>

atom: Called for C                     (Z =   6)

read_vps: Pseudopotential generation method:
read_vps: ATM3      Troullier-Martins                       
Total valence charge:    4.00000

read_vps: Pseudopotential includes a core correction:
read_vps: Pseudo-core for xc-correction

xc_check: Exchange-correlation functional:
xc_check: GGA Perdew, Burke & Ernzerhof 1996
V l=0 = -2*Zval/r beyond r=  1.5227
V l=1 = -2*Zval/r beyond r=  1.5227
V l=2 = -2*Zval/r beyond r=  1.5227
V l=3 = -2*Zval/r beyond r=  1.5038
All V_l potentials equal beyond r=  1.5227
This should be close to max(r_c) in ps generation
All pots = -2*Zval/r beyond r=  1.5227

VLOCAL1: 99.0% of the norm of Vloc inside     18.722 Ry
VLOCAL1: 99.9% of the norm of Vloc inside     42.668 Ry
atom: Maximum radius for 4*pi*r*r*local-pseudopot. charge    1.83678
atom: Maximum radius for r*vlocal+2*Zval:    1.58088
GHOST: No ghost state for L =  0
GHOST: No ghost state for L =  1
GHOST: No ghost state for L =  2
GHOST: No ghost state for L =  3

KBgen: Kleinman-Bylander projectors: 
   l= 0   rc=  1.704034   el= -1.009801   Ekb=  5.335044   kbcos=  0.316824
   l= 1   rc=  1.704034   el= -0.388707   Ekb= -3.785862   kbcos= -0.366464
   l= 2   rc=  1.791422   el=  0.001971   Ekb= -0.970471   kbcos= -0.009212
   l= 3   rc=  1.859892   el=  0.003065   Ekb= -0.399525   kbcos= -0.001223

KBgen: Total number of  Kleinman-Bylander projectors:   16
atom: -------------------------------------------------------------------------

atom: SANKEY-TYPE ORBITALS:
atom: Selected multiple-zeta basis: split     

SPLIT: Orbitals with angular momentum L= 0

SPLIT: Basis orbitals for state 2s

SPLIT: PAO cut-off radius determined from an
SPLIT: energy shift=  0.007350 Ry

   izeta = 1
                 lambda =    1.000000
                     rc =    4.632753
                 energy =   -1.002270
                kinetic =    0.855760
    potential(screened) =   -1.858031
       potential(ionic) =   -5.417575

   izeta = 2
                 rmatch =    3.431921
              splitnorm =    0.150000
                 energy =   -0.867111
                kinetic =    1.300804
    potential(screened) =   -2.167915
       potential(ionic) =   -5.962684

SPLIT: Orbitals with angular momentum L= 1

SPLIT: Basis orbitals for state 2p

SPLIT: PAO cut-off radius determined from an
SPLIT: energy shift=  0.007350 Ry

   izeta = 1
                 lambda =    1.000000
                     rc =    5.658549
                 energy =   -0.381140
                kinetic =    2.399701
    potential(screened) =   -2.780841
       potential(ionic) =   -6.206085

   izeta = 2
                 rmatch =    3.653288
              splitnorm =    0.150000
                 energy =   -0.249149
                kinetic =    3.542762
    potential(screened) =   -3.791911
       potential(ionic) =   -7.581078

POLgen: Perturbative polarization orbital with L=  2

POLgen: Polarization orbital for state 2p

   izeta = 1
                     rc =    5.658549
                 energy =    1.109913
                kinetic =    2.304789
    potential(screened) =   -1.194876
       potential(ionic) =   -4.013592
atom: Total number of Sankey-type orbitals: 13

atm_pop: Valence configuration (for local Pseudopot. screening):
 2s( 2.00)                                                            
 2p( 2.00)                                                            
Vna: chval, zval:    4.00000   4.00000

Vna:  Cut-off radius for the neutral-atom potential:   5.658549
comcore: Pseudo-core radius Rcore=  1.791422

atom: _________________________________________________________________________

prinput: Basis input ----------------------------------------------------------

PAO.BasisType split     

%block ChemicalSpeciesLabel
    1    5 B                       # Species index, atomic number, species label
    2    6 C                       # Species index, atomic number, species label
%endblock ChemicalSpeciesLabel

%block PAO.Basis                 # Define Basis set
B                     2                    # Species label, number of l-shells
 n=2   0   2                         # n, l, Nzeta 
   5.422      4.223   
   1.000      1.000   
 n=2   1   2 P   1                   # n, l, Nzeta, Polarization, NzetaPol
   6.790      4.609   
   1.000      1.000   
C                     2                    # Species label, number of l-shells
 n=2   0   2                         # n, l, Nzeta 
   4.633      3.432   
   1.000      1.000   
 n=2   1   2 P   1                   # n, l, Nzeta, Polarization, NzetaPol
   5.659      3.653   
   1.000      1.000   
%endblock PAO.Basis

prinput: ----------------------------------------------------------------------

coor:   Atomic-coordinates input format  =     Fractional

siesta: Atomic coordinates (Bohr) and species
siesta:     -0.02582   2.59549   0.00000  1        1
siesta:     -0.02582   5.28395   0.00000  1        2
siesta:     -2.35420  38.89134   0.00000  1        3
siesta:      2.30256  38.89134   0.00000  1        4
siesta:      2.30256   6.62836   0.00000  1        5
siesta:      2.30256   9.31683   0.00000  1        6
siesta:     -2.35420   6.62836   0.00000  1        7
siesta:     -2.35420   9.31683   0.00000  1        8
siesta:     -0.02582  10.66124   0.00000  1        9
siesta:     -0.02582  13.34970   0.00000  1       10
siesta:     -2.35420  14.69411   0.00000  1       11
siesta:     -2.35420  17.38257   0.00000  1       12
siesta:     -0.02582  18.72698   0.00000  1       13
siesta:     -0.02582  21.41544   0.00000  1       14
siesta:     -4.68258  18.72698   0.00000  1       15
siesta:     -4.68258  21.41544   0.00000  1       16
siesta:     -2.35420  22.75985   0.00000  1       17
siesta:     -2.35420  25.44831   0.00000  1       18
siesta:     -0.02582  26.79272   0.00000  1       19
siesta:     -0.02582  29.48119   0.00000  1       20
siesta:      2.30256  30.82560   0.00000  1       21
siesta:      2.30256  33.51406   0.00000  1       22
siesta:     -2.35420  30.82560   0.00000  1       23
siesta:     -2.35420  33.51406   0.00000  1       24
siesta:     -0.02582  34.85847   0.00000  1       25
siesta:     -0.02582  37.54693   0.00000  1       26
siesta:     -2.35420  41.57980   0.00000  2       27
siesta:      2.30256  41.57980   0.00000  2       28
siesta:      4.63094  34.85847   0.00000  2       29
siesta:      4.63094  37.54693   0.00000  2       30
siesta:      6.95932  30.82560   0.00000  2       31
siesta:      6.95932  33.51406   0.00000  2       32
siesta:      9.28770  26.79272   0.00000  2       33
siesta:      9.28770  29.48119   0.00000  2       34
siesta:     -4.68258  34.85847   0.00000  2       35
siesta:     -4.68258  37.54693   0.00000  2       36
siesta:      4.63094  10.66124   0.00000  2       37
siesta:      4.63094  13.34970   0.00000  2       38
siesta:      6.95932  14.69411   0.00000  2       39
siesta:      6.95932  17.38257   0.00000  2       40
siesta:      9.28770  18.72698   0.00000  2       41
siesta:      9.28770  21.41544   0.00000  2       42
siesta:     11.61608  22.75985   0.00000  2       43
siesta:     11.61608  25.44831   0.00000  2       44
siesta:      2.30256  14.69411   0.00000  2       45
siesta:      2.30256  17.38257   0.00000  2       46
siesta:      4.63094  18.72698   0.00000  2       47
siesta:      4.63094  21.41544   0.00000  2       48
siesta:      6.95932  22.75985   0.00000  2       49
siesta:      6.95932  25.44831   0.00000  2       50
siesta:     -4.68258  10.66124   0.00000  2       51
siesta:     -4.68258  13.34970   0.00000  2       52
siesta:      2.30256  22.75985   0.00000  2       53
siesta:      2.30256  25.44831   0.00000  2       54
siesta:     -7.01096  14.69411   0.00000  2       55
siesta:     -7.01096  17.38257   0.00000  2       56
siesta:     -9.33934  18.72698   0.00000  2       57
siesta:     -9.33934  21.41544   0.00000  2       58
siesta:     -7.01096  22.75985   0.00000  2       59
siesta:     -7.01096  25.44831   0.00000  2       60
siesta:    -11.66772  22.75985   0.00000  2       61
siesta:    -11.66772  25.44831   0.00000  2       62
siesta:     -9.33934  26.79272   0.00000  2       63
siesta:     -9.33934  29.48119   0.00000  2       64
siesta:      4.63094  26.79272   0.00000  2       65
siesta:      4.63094  29.48119   0.00000  2       66
siesta:     -4.68258  26.79272   0.00000  2       67
siesta:     -4.68258  29.48119   0.00000  2       68
siesta:     -7.01096  30.82560   0.00000  2       69
siesta:     -7.01096  33.51406   0.00000  2       70
siesta:     -0.02582  42.92421   0.00000  2       71
siesta:     -0.02582  45.61267   0.00000  2       72

siesta: System type = slab      

initatomlists: Number of atoms, orbitals, and projectors:     72   936  1152

siesta: ******************** Simulation parameters ****************************
siesta:
siesta: The following are some of the parameters of the simulation.
siesta: A complete list of the parameters used, including default values,
siesta: can be found in file out.fdf
siesta:
redata: Non-Collinear-spin run           =     F
redata: SpinPolarized (Up/Down) run      =     F
redata: Number of spin components        =     1
redata: Long output                      =     F
redata: Number of Atomic Species         =        2
redata: Charge density info will appear in .RHO file
redata: Write Mulliken Pop.              =     NO
redata: Mesh Cutoff                      =   200.0000  Ry
redata: Net charge of the system         =     0.0000 |e|
redata: Max. number of SCF Iter          =      500
redata: SCF convergence failure will abort job
redata: Performing Pulay mixing using    =    10 iterations
redata: Mix DM in first SCF step ?       =     F
redata: Write Pulay info on disk?        =     F
redata: Discard 1st Pulay DM after  kick =     F
redata: New DM Mixing Weight             =     0.0500
redata: New DM Occupancy tolerance       = 0.000000000001
redata: No kicks to SCF
redata: DM Mixing Weight for Kicks       =     0.5000
redata: DM Tolerance for SCF             =     0.000100
redata: Require Energy convergence for SCF =     F
redata: DM Energy tolerance for SCF      =     0.000100 eV
redata: Require Harris convergence for SCF =     F
redata: DM Harris energy tolerance for SCF =     0.000100 eV
redata: Using Saved Data (generic)   =     F
redata: Use continuation files for DM    =     T
redata: Neglect nonoverlap interactions  =     F
redata: Method of Calculation            =     Diagonalization
redata: Divide and Conquer               =     T
redata: Electronic Temperature           =     0.0019  Ry
redata: Fix the spin of the system       =     F
redata: Dynamics option                  =     Verlet MD run
redata: Initial MD time step             =        1
redata:   Final MD time step             =        1
redata: Length of MD time step           =     1.0000  fs
redata: Initial Temperature of MD run    =     0.0000  K
redata: Perform a MD quench              =     F
redata: ***********************************************************************
Total number of electrons:   262.000000
Total ionic charge:   262.000000

* ProcessorY, Blocksize:    2  24

k-point displ. along   1 input, could be:     0.50    0.00
k-point displ. along   2 input, could be:     0.50    0.00
 Kpoints in:          231 . Kpoints trimmed:          231

siesta: k-grid: Number of k-points =   231
siesta: k-grid: Cutoff (effective) =     5.000 Ang
siesta: k-grid: Supercell and displacements
siesta: k-grid:   21   0   0      0.500
siesta: k-grid:    0  21   0      0.500
siesta: k-grid:    0   0   1      0.000
Naive supercell factors:     2    2    2

superc: Internal auxiliary supercell:     2 x     2 x     2  =       8
superc: Number of atoms, orbitals, and projectors:    576   7488   9216

* Maximum dynamic memory allocated =     4 MB

siesta:                 ==============================
                            Begin MD step =      1
                        ==============================

superc: Internal auxiliary supercell:     2 x     2 x     2  =       8
superc: Number of atoms, orbitals, and projectors:    576   7488   9216

outcell: Unit cell vectors (Ang):
       12.804619    7.392750    0.000000
        0.000000   14.785500    0.000000
        0.000000    0.000000   10.000000

outcell: Cell vector modules (Ang)   :   14.785500   14.785500   10.000000
outcell: Cell angles (23,13,12) (deg):     90.0000     90.0000     60.0000
outcell: Cell volume (Ang**3)        :   1893.2269
New_DM. Step:     1
Initializing Density Matrix...

InitMesh: MESH =   120 x   120 x    90 =     1296000
InitMesh: Mesh cutoff (required, used) =   200.000   223.865 Ry

* Maximum dynamic memory allocated =   237 MB

stepf: Fermi-Dirac step function

siesta: Program's energy decomposition (eV):
siesta: Ebs     =     -5329.908155
siesta: Eions   =     15073.536580
siesta: Ena     =      4084.442879
siesta: Ekin    =      5006.990805
siesta: Enl     =       869.468827
siesta: DEna    =        -0.000006
siesta: DUscf   =         0.000000
siesta: DUext   =         0.000000
siesta: Exc     =     -4186.964250
siesta: eta*DQ  =         0.000000
siesta: Emadel  =         0.000000
siesta: Emeta   =         0.000000
siesta: Emolmec =         0.000000
siesta: Ekinion =         0.000000
siesta: Eharris =     -9202.728515
siesta: Etot    =     -9299.598324
siesta: FreeEng =     -9299.598324

siesta: iscf   Eharris(eV)      E_KS(eV)   FreeEng(eV)   dDmax  Ef(eV)
siesta:    1    -9202.7285    -9299.5983    -9299.5983  8.1112 -8.4443
timer: Routine,Calls,Time,% = IterSCF        1    3599.724  99.70
elaps: Routine,Calls,Wall,% = IterSCF        1     451.112  99.70
siesta:    2   -16730.5199    -7988.2695    -7988.3364 17.9950-10.3760
siesta:    3    -9371.2573    -9121.5517    -9121.5853  1.8130 -5.9232
siesta:    4    -9292.6476    -9074.3261    -9074.3915  1.7031 -5.4746
siesta:    5    -9126.1040    -9003.7839    -9003.8501  1.3509 -5.2795
siesta:    6    -9086.6136    -8977.0847    -8977.1174  1.0561 -5.3249
siesta:    7    -9071.7257    -8967.9131    -8967.9378  0.9573 -5.3151
siesta:    8    -9048.8444    -8966.1194    -8966.1473  0.8391 -5.2400
siesta:    9    -9045.2594    -8966.4626    -8966.5263  0.7523 -5.3108
siesta:   10    -9045.0688    -8979.5334    -8979.5712  0.4821 -5.1835
siesta:   11    -9042.6375    -8982.1043    -8982.1166  0.3853 -5.2102
siesta:   12    -9041.6079    -8996.0953    -8996.1403  0.2696 -5.2477
siesta:   13    -9041.0806    -9008.5687    -9008.6400  0.2959 -5.2621
siesta:   14    -9040.5399    -9011.7664    -9011.8108  0.2550 -5.2566
siesta:   15    -9040.3878    -9017.3623    -9017.3978  0.2314 -5.2563
siesta:   16    -9040.0238    -9025.2511    -9025.2848  0.1851 -5.3002
siesta:   17    -9039.2585    -9034.0923    -9034.1438  0.1168 -5.3932
siesta:   18    -9039.3153    -9036.4226    -9036.4797  0.0981 -5.3960
siesta:   19    -9039.2354    -9035.8546    -9035.9171  0.0751 -5.3654
siesta:   20    -9039.2167    -9038.3879    -9038.4294  0.0870 -5.3450
siesta:   21    -9039.1542    -9038.6833    -9038.7206  0.0495 -5.3410
siesta:   22    -9039.1162    -9039.3786    -9039.4169  0.0378 -5.3585
siesta:   23    -9039.1056    -9038.5783    -9038.6246  0.0263 -5.3616
siesta:   24    -9039.0978    -9038.1733    -9038.2222  0.0226 -5.3644
siesta:   25    -9039.0969    -9038.0542    -9038.1080  0.0171 -5.3597
siesta:   26    -9039.0923    -9038.0665    -9038.1153  0.0182 -5.3579
siesta:   27    -9039.0903    -9038.3243    -9038.3751  0.0112 -5.3593
siesta:   28    -9039.0913    -9038.5695    -9038.6201  0.0058 -5.3568
siesta:   29    -9039.0905    -9038.8731    -9038.9223  0.0031 -5.3587
siesta:   30    -9039.0905    -9038.9861    -9039.0358  0.0033 -5.3584
siesta:   31    -9039.0903    -9039.0072    -9039.0569  0.0026 -5.3584
siesta:   32    -9039.0903    -9038.9630    -9039.0128  0.0017 -5.3577
siesta:   33    -9039.0903    -9038.9768    -9039.0264  0.0012 -5.3576
siesta:   34    -9039.0902    -9038.9988    -9039.0484  0.0007 -5.3576
siesta:   35    -9039.0902    -9039.0109    -9039.0606  0.0006 -5.3575
siesta:   36    -9039.0902    -9039.0272    -9039.0769  0.0005 -5.3575
siesta:   37    -9039.0902    -9039.0474    -9039.0971  0.0003 -5.3576
siesta:   38    -9039.0902    -9039.0614    -9039.1111  0.0002 -5.3577
siesta:   39    -9039.0902    -9039.0745    -9039.1241  0.0001 -5.3578
siesta:   40    -9039.0902    -9039.0833    -9039.1330  0.0001 -5.3578

siesta: E_KS(eV) =            -9039.0846

siesta: E_KS - E_eggbox =     -9039.0846

siesta: Atomic forces (eV/Ang):
----------------------------------------
   Tot    0.015328   -0.100494    0.000000
----------------------------------------
   Max  563.024746
   Res  123.628277    sqrt( Sum f_i^2 / 3N )
----------------------------------------
   Max  563.024746    constrained

Stress-tensor-Voigt (kbar):     -601.42    -2218.13       -0.74        7.29        0.00        0.00
(Free)E + p*V (eV/cell)    -7928.2733
Target enthalpy (eV/cell)    -9039.1343

siesta: Stress tensor (static) (eV/Ang**3):
        -0.375371    0.004547    0.000000
         0.004547   -1.384432    0.000000
         0.000000    0.000000   -0.000463

siesta: Pressure (static):        940.09584184  kBar

siesta: Stress tensor (total) (eV/Ang**3):
        -0.375371    0.004547    0.000000
         0.004547   -1.384432    0.000000
         0.000000    0.000000   -0.000463

siesta: Pressure (total):        940.09584184  kBar

siesta: Temp_ion =       0.000 K

* Maximum dynamic memory allocated =   254 MB
Computing bands...

siesta: Program's energy decomposition (eV):
siesta: Ebs     =     -4003.012666
siesta: Eions   =     15073.536580
siesta: Ena     =      4084.442879
siesta: Ekin    =      7589.251985
siesta: Enl     =      -725.085763
siesta: DEna    =      -670.147650
siesta: DUscf   =        88.213206
siesta: DUext   =         0.000000
siesta: Exc     =     -4332.222695
siesta: eta*DQ  =         0.000000
siesta: Emadel  =         0.000000
siesta: Emeta   =         0.000000
siesta: Emolmec =         0.000000
siesta: Ekinion =         0.000000
siesta: Eharris =     -9039.090171
siesta: Etot    =     -9039.084618
siesta: FreeEng =     -9039.134302

siesta: Final energy (eV):
siesta:  Band Struct. =   -4003.012666
siesta:       Kinetic =    7589.251985
siesta:       Hartree =   23438.195381
siesta:    Ext. field =       0.000000
siesta:   Exch.-corr. =   -4332.222695
siesta:  Ion-electron =  -54220.892707
siesta:       Ion-ion =   18486.583418
siesta:       Ekinion =       0.000000
siesta:         Total =   -9039.084618

siesta: Atomic forces (eV/Ang):
siesta:      1   -0.269466  286.553110    0.000000
siesta:      2   -0.142243  -96.808050    0.000000
siesta:      3    0.267050  100.801400    0.000000
siesta:      4    0.400811  106.594007    0.000000
siesta:      5    3.032388  297.435545    0.000000
siesta:      6    1.178192  -99.542398    0.000000
siesta:      7   -3.226972  297.948482    0.000000
siesta:      8   -1.724964 -100.352955    0.000000
siesta:      9    0.600956  292.014266    0.000000
siesta:     10   -0.030182 -109.707969    0.000000
siesta:     11  -19.013051  409.271765    0.000000
siesta:     12  -15.019965   -0.972239    0.000000
siesta:     13    0.104904  410.397588    0.000000
siesta:     14    2.999239    1.566437    0.000000
siesta:     15   -0.803277   -2.775478    0.000000
siesta:     16   -5.256448    4.849697    0.000000
siesta:     17    3.242359   -3.023085    0.000000
siesta:     18   -6.330504    3.666134    0.000000
siesta:     19    4.212587   -4.695828    0.000000
siesta:     20   -0.420908 -298.186132    0.000000
siesta:     21   17.727820    0.018382    0.000000
siesta:     22   19.732986 -298.755553    0.000000
siesta:     23  -17.110788    0.470269    0.000000
siesta:     24  -19.377040 -299.040190    0.000000
siesta:     25   -0.081096  100.579495    0.000000
siesta:     26   -0.725028 -294.537444    0.000000
siesta:     27  -12.873335 -412.596457    0.000000
siesta:     28   20.773229 -557.970982    0.000000
siesta:     29   20.943199    0.448158    0.000000
siesta:     30   20.350030 -549.599967    0.000000
siesta:     31    2.402859    0.626437    0.000000
siesta:     32   -0.618399    2.275530    0.000000
siesta:     33    2.519416    1.809326    0.000000
siesta:     34   -1.014956    0.537853    0.000000
siesta:     35  -21.142620    0.239247    0.000000
siesta:     36  -20.884441 -549.732101    0.000000
siesta:     37   22.434825  547.310514    0.000000
siesta:     38   23.796354   -5.747035    0.000000
siesta:     39   -2.530378   -2.398505    0.000000
siesta:     40    2.096151   -0.324943    0.000000
siesta:     41   -1.048711   -0.327370    0.000000
siesta:     42    2.398421   -1.774482    0.000000
siesta:     43   -0.200810    7.134856    0.000000
siesta:     44   -0.192996   -7.005863    0.000000
siesta:     45   12.989329  563.024746    0.000000
siesta:     46   22.110531   -2.893804    0.000000
siesta:     47   -1.308454    1.159953    0.000000
siesta:     48   -0.107578    0.833162    0.000000
siesta:     49    0.098237    0.736187    0.000000
siesta:     50   -0.272446   -0.896900    0.000000
siesta:     51  -20.543257  549.064102    0.000000
siesta:     52  -21.515887   -0.648717    0.000000
siesta:     53    4.107217    1.733410    0.000000
siesta:     54    3.543508   -1.299408    0.000000
siesta:     55    1.851081   -1.921226    0.000000
siesta:     56   -6.648342   -1.878077    0.000000
siesta:     57    1.580353   -0.488074    0.000000
siesta:     58   -2.737027   -1.528980    0.000000
siesta:     59   -2.527191    2.143030    0.000000
siesta:     60   -0.193659   -0.558633    0.000000
siesta:     61    0.075086    7.206860    0.000000
siesta:     62    0.057714   -7.211475    0.000000
siesta:     63   -3.016203    1.955990    0.000000
siesta:     64    1.432397    0.394677    0.000000
siesta:     65   -0.057373   -0.545909    0.000000
siesta:     66    0.683377   -1.208427    0.000000
siesta:     67   -2.629085    1.751547    0.000000
siesta:     68   -1.247126   -1.963209    0.000000
siesta:     69   -2.573278    0.857954    0.000000
siesta:     70    0.648198    2.471099    0.000000
siesta:     71   -7.693205  121.712735    0.000000
siesta:     72    2.733211 -408.776575    0.000000
siesta: ----------------------------------------
siesta:    Tot    0.015328   -0.100494    0.000000

siesta: Stress tensor (static) (eV/Ang**3):
siesta:    -0.375371    0.004547    0.000000
siesta:     0.004547   -1.384432    0.000000
siesta:     0.000000    0.000000   -0.000463

siesta: Cell volume =       1893.226884 Ang**3

siesta: Pressure (static):
siesta:                Solid            Molecule  Units
siesta:           0.00639051          0.09195723  Ry/Bohr**3
siesta:           0.58675533          8.44319992  eV/Ang**3
siesta:         940.09584184      13527.64384579  kBar
(Free)E+ p_basis*V_orbitals  =       -9000.181897
(Free)Eharris+ p_basis*V_orbitals  =       -9000.188788

siesta: Electric dipole (a.u.)  =    0.000000    0.000000    0.000000
siesta: Electric dipole (Debye) =    0.000000    0.000000    0.000000

* Maximum dynamic memory allocated : Node    0 =   254 MB
* Maximum dynamic memory allocated : Node    1 =    87 MB
* Maximum dynamic memory allocated : Node    2 =    90 MB
* Maximum dynamic memory allocated : Node    3 =   240 MB
* Maximum dynamic memory allocated : Node    4 =   230 MB
* Maximum dynamic memory allocated : Node    5 =    84 MB
* Maximum dynamic memory allocated : Node    6 =    85 MB
* Maximum dynamic memory allocated : Node    7 =   210 MB

* Maximum memory occured during matrixMtoO                    

timer: CPU execution times:
timer:  Routine       Calls   Time/call    Tot.time        %
timer:  siesta            1  144618.726  144618.726   100.00
timer:  Setup             1       2.684       2.684     0.00
timer:  bands             3     235.489     706.468     0.49
timer:  writewave         1       0.020       0.020     0.00
timer:  KSV_init          1       0.001       0.001     0.00
timer:  IterMD            1  143904.636  143904.636    99.51
timer:  hsparse           1       0.515       0.515     0.00
timer:  overlap           1       7.209       7.209     0.00
timer:  IterSCF          40    3592.172  143686.878    99.36
timer:  kinefsm           2       3.693       7.386     0.01
timer:  nlefsm            2      19.283      38.567     0.03
timer:  DHSCF            41     114.248    4684.148     3.24
timer:  DHSCF1            1       0.937       0.937     0.00
timer:  DHSCF2            1      42.731      42.731     0.03
timer:  REORD           330       0.006       1.862     0.00
timer:  POISON           42       0.875      36.729     0.03
timer:  DHSCF3           41     112.145    4597.955     3.18
timer:  rhoofd           41      24.968    1023.705     0.71
timer:  cellXC           41       3.112     127.607     0.09
timer:  vmat             41      51.809    2124.162     1.47
timer:  MolMec            2       0.000       0.000     0.00
timer:  diagon           40    3477.357  139094.282    96.18
timer:  c-eigval       9361       5.885   55092.954    38.10
timer:  c-buildHS      9361       0.082     769.700     0.53
timer:  cdiag         18601       6.013  111842.913    77.34
timer:  cdiag1        18601       0.371    6897.833     4.77
timer:  cdiag2        18601       1.685   31339.828    21.67
timer:  cdiag3        18601       3.604   67030.299    46.35
timer:  cdiag4        18601       0.162    3020.249     2.09
timer:  c-eigvec       9240       6.272   57952.444    40.07
timer:  c-buildD       9240       2.891   26710.292    18.47
timer:  DHSCF4            1      41.326      41.326     0.03
timer:  dfscf             1      38.617      38.617     0.03
timer:  overfsm           1       0.439       0.439     0.00
timer:  optical           1       4.309       4.309     0.00
  

elaps: ELAPSED times:
elaps:  Routine       Calls   Time/call    Tot.time        %
elaps:  siesta            1   18122.743   18122.743   100.00
elaps:  Setup             1       0.336       0.336     0.00
elaps:  bands             3      29.524      88.571     0.49
elaps:  writewave         1       0.002       0.002     0.00
elaps:  KSV_init          1       0.000       0.000     0.00
elaps:  IterMD            1   18033.266   18033.266    99.51
elaps:  hsparse           1       0.066       0.066     0.00
elaps:  overlap           1       0.906       0.906     0.00
elaps:  IterSCF          40     450.150   18005.989    99.36
elaps:  kinefsm           2       0.465       0.930     0.01
elaps:  nlefsm            2       2.446       4.892     0.03
elaps:  DHSCF            41      14.444     592.186     3.27
elaps:  DHSCF1            1       0.120       0.120     0.00
elaps:  DHSCF2            1       5.348       5.348     0.03
elaps:  REORD           330       0.001       0.272     0.00
elaps:  POISON           42       0.109       4.559     0.03
elaps:  DHSCF3           41      14.048     575.987     3.18
elaps:  rhoofd           41       6.941     284.565     1.57
elaps:  cellXC           41       0.390      16.007     0.09
elaps:  vmat             41       6.490     266.076     1.47
elaps:  MolMec            2       0.000       0.000     0.00
elaps:  diagon           40     435.772   17430.881    96.18
elaps:  c-eigval       9361       0.737    6903.232    38.09
elaps:  c-buildHS      9361       0.012     112.013     0.62
elaps:  cdiag         18601       0.750   13953.508    76.99
elaps:  cdiag1        18601       0.046     862.690     4.76
elaps:  cdiag2        18601       0.211    3927.418    21.67
elaps:  cdiag3        18601       0.452    8410.714    46.41
elaps:  cdiag4        18601       0.020     369.938     2.04
elaps:  c-eigvec       9240       0.781    7219.740    39.84
elaps:  c-buildD       9240       0.367    3390.288    18.71
elaps:  DHSCF4            1      10.586      10.586     0.06
elaps:  dfscf             1      10.038      10.038     0.06
elaps:  overfsm           1       0.056       0.056     0.00
elaps:  optical           1       0.000       0.000     0.00
  
>> End of run:  18-APR-2016  23:55:06
