Siesta Version:                                        siesta-3.2-pl-3
Architecture  : x86_64-unknown-linux-gnu--unknown
Compiler flags: mpiifort -g -O2 -fPIC -xSSE4.1 -fp-model source -shared-intel 
PARALLEL version

* Running on    8 nodes in parallel
>> Start of run:   3-MAY-2016  23:06:21

                           ***********************       
                           *  WELCOME TO SIESTA  *       
                           ***********************       

reinit: Reading from standard input
************************** Dump of input data file ****************************
#(1) General system descriptors
SystemName            GRP_doping    # Descriptive name of the system
SystemLabel           GRP_doping    # Short name for naming files
%include STRUCT.fdf
%include KPT.fdf
%include BASIS.fdf
#%include TS.fdf # for transiesta calculation
#(4) DFT, Grid, SCF
XC.functional         GGA           # LDA or GGA (default = LDA)
XC.authors            PBE           # CA (Ceperley-Aldr) = PZ
                                    #    (Perdew-Zunger) - LDA - Default
                                    # PW92 (Perdew-Wang-92) - LDA
                                    # PBE (Perdew-Burke-Ernzerhof) - GGA
MeshCutoff            200.000000    Ry      # Default: 50.0 Ry ~ 0.444 Bohr
                                    #         100.0 Ry ~ 0.314 Bohr
MaxSCFIterations      500           # Default: 50
DM.MixingWeight       0.05          # Default: 0.25
DM.NumberPulay        10            # Default: 0
DM.PulayOnFile        F             # SystemLabel.P1, SystemLabel.P2
DM.Tolerance          1.d-4         # Default: 1.d-4
DM.UseSaveDM          .true.        # because of the bug
SCFMustConverge       .true.
NeglNonOverlapInt     F             # Default: F
#(5) Eigenvalue problem: order-N or diagonalization
SolutionMethod        Diagon        # or Transiesta
ElectronicTemperature 300.0 K       # Default: 300.0 K
#(6) Molecular dynamics and relaxations
#MD.TypeOfRun          CG            # Type of dynamics:
#MD.VariableCell       F
#MD.NumCGsteps         0           # 0 for single-point / 100 for gopt
#MD.MaxCGDispl         0.2 Bohr      # Default: 0.2 Bohr
#MD.MaxForceTol        0.02 eV/Ang   # Default: 0.04 eV/Ang
#MD.MaxStressTol       1.0 GPa       # Default: 1.0 GPa
# Geometry Constraints
#%block GeometryConstraints
#	position from 1 to 44
#%endblock GeometryConstraints
BandLinesScale   pi/a
%block BandLines
 1   0.00000000  0.00000000  0.00000000
50   0.00000000  0.07809418  0.00000000
50   0.04509075  0.07809242  0.00000000
20   0.00000000  0.00000000  0.00000000
%endblock BandLines
************************** End of input data file *****************************

reinit: -----------------------------------------------------------------------
reinit: System Name: GRP_doping
reinit: -----------------------------------------------------------------------
reinit: System Label: GRP_doping                                                  
reinit: -----------------------------------------------------------------------

initatom: Reading input for the pseudopotentials and atomic orbitals ----------
 Species number:            1  Label: N Atomic number:           7
 Species number:            2  Label: C Atomic number:           6
Ground state valence configuration:   2s02  2p03
Reading pseudopotential information in formatted form from N.psf

Valence configuration for pseudopotential generation:
2s( 2.00) rc: 1.48
2p( 3.00) rc: 1.48
3d( 0.00) rc: 1.48
4f( 0.00) rc: 1.48
Ground state valence configuration:   2s02  2p02
Reading pseudopotential information in formatted form from C.psf

Valence configuration for pseudopotential generation:
2s( 2.00) rc: 1.54
2p( 2.00) rc: 1.54
3d( 0.00) rc: 1.54
4f( 0.00) rc: 1.54
For N, standard SIESTA heuristics set lmxkb to 3
 (one more than the basis l, including polarization orbitals).
Use PS.lmax or PS.KBprojectors blocks to override.
For C, standard SIESTA heuristics set lmxkb to 3
 (one more than the basis l, including polarization orbitals).
Use PS.lmax or PS.KBprojectors blocks to override.

<basis_specs>
===============================================================================
N                    Z=   7    Mass=  14.010        Charge= 0.17977+309
Lmxo=1 Lmxkb= 3    BasisType=split      Semic=F
L=0  Nsemic=0  Cnfigmx=2
          n=1  nzeta=2  polorb=0
            splnorm:   0.15000    
               vcte:    0.0000    
               rinn:    0.0000    
                rcs:    0.0000      0.0000    
            lambdas:    1.0000      1.0000    
L=1  Nsemic=0  Cnfigmx=2
          n=1  nzeta=2  polorb=1
            splnorm:   0.15000    
               vcte:    0.0000    
               rinn:    0.0000    
                rcs:    0.0000      0.0000    
            lambdas:    1.0000      1.0000    
-------------------------------------------------------------------------------
L=0  Nkbl=1  erefs: 0.17977+309
L=1  Nkbl=1  erefs: 0.17977+309
L=2  Nkbl=1  erefs: 0.17977+309
L=3  Nkbl=1  erefs: 0.17977+309
===============================================================================
</basis_specs>

atom: Called for N                     (Z =   7)

read_vps: Pseudopotential generation method:
read_vps: ATM3      Troullier-Martins                       
Total valence charge:    5.00000

read_vps: Pseudopotential includes a core correction:
read_vps: Pseudo-core for xc-correction

xc_check: Exchange-correlation functional:
xc_check: GGA Perdew, Burke & Ernzerhof 1996
V l=0 = -2*Zval/r beyond r=  1.4606
V l=1 = -2*Zval/r beyond r=  1.4606
V l=2 = -2*Zval/r beyond r=  1.4606
V l=3 = -2*Zval/r beyond r=  1.4606
All V_l potentials equal beyond r=  1.4606
This should be close to max(r_c) in ps generation
All pots = -2*Zval/r beyond r=  1.4606

VLOCAL1: 99.0% of the norm of Vloc inside     20.347 Ry
VLOCAL1: 99.9% of the norm of Vloc inside     46.372 Ry
atom: Maximum radius for 4*pi*r*r*local-pseudopot. charge    1.76189
atom: Maximum radius for r*vlocal+2*Zval:    1.53550
GHOST: No ghost state for L =  0
GHOST: No ghost state for L =  1
GHOST: No ghost state for L =  2
GHOST: No ghost state for L =  3

KBgen: Kleinman-Bylander projectors: 
   l= 0   rc=  1.634559   el= -1.363963   Ekb=  5.296955   kbcos=  0.335621
   l= 1   rc=  1.614250   el= -0.521451   Ekb= -5.259161   kbcos= -0.433408
   l= 2   rc=  1.718383   el=  0.001991   Ekb= -1.271464   kbcos= -0.007566
   l= 3   rc=  1.761893   el=  0.003093   Ekb= -0.494769   kbcos= -0.001015

KBgen: Total number of  Kleinman-Bylander projectors:   16
atom: -------------------------------------------------------------------------

atom: SANKEY-TYPE ORBITALS:
atom: Selected multiple-zeta basis: split     

SPLIT: Orbitals with angular momentum L= 0

SPLIT: Basis orbitals for state 2s

SPLIT: PAO cut-off radius determined from an
SPLIT: energy shift=  0.007350 Ry

   izeta = 1
                 lambda =    1.000000
                     rc =    4.071465
                 energy =   -1.356470
                kinetic =    1.176977
    potential(screened) =   -2.533447
       potential(ionic) =   -8.057990

   izeta = 2
                 rmatch =    2.905100
              splitnorm =    0.150000
                 energy =   -1.158343
                kinetic =    1.813009
    potential(screened) =   -2.971352
       potential(ionic) =   -8.901931

SPLIT: Orbitals with angular momentum L= 1

SPLIT: Basis orbitals for state 2p

SPLIT: PAO cut-off radius determined from an
SPLIT: energy shift=  0.007350 Ry

   izeta = 1
                 lambda =    1.000000
                     rc =    4.972977
                 energy =   -0.513884
                kinetic =    3.441732
    potential(screened) =   -3.955616
       potential(ionic) =   -9.287901

   izeta = 2
                 rmatch =    3.054066
              splitnorm =    0.150000
                 energy =   -0.318226
                kinetic =    5.125348
    potential(screened) =   -5.443573
       potential(ionic) =  -11.380999

POLgen: Perturbative polarization orbital with L=  2

POLgen: Polarization orbital for state 2p

   izeta = 1
                     rc =    4.972977
                 energy =    1.607437
                kinetic =    3.268125
    potential(screened) =   -1.660688
       potential(ionic) =   -5.973652
atom: Total number of Sankey-type orbitals: 13

atm_pop: Valence configuration (for local Pseudopot. screening):
 2s( 2.00)                                                            
 2p( 3.00)                                                            
Vna: chval, zval:    5.00000   5.00000

Vna:  Cut-off radius for the neutral-atom potential:   4.972977
comcore: Pseudo-core radius Rcore=  1.554824

atom: _________________________________________________________________________

<basis_specs>
===============================================================================
C                    Z=   6    Mass=  12.010        Charge= 0.17977+309
Lmxo=1 Lmxkb= 3    BasisType=split      Semic=F
L=0  Nsemic=0  Cnfigmx=2
          n=1  nzeta=2  polorb=0
            splnorm:   0.15000    
               vcte:    0.0000    
               rinn:    0.0000    
                rcs:    0.0000      0.0000    
            lambdas:    1.0000      1.0000    
L=1  Nsemic=0  Cnfigmx=2
          n=1  nzeta=2  polorb=1
            splnorm:   0.15000    
               vcte:    0.0000    
               rinn:    0.0000    
                rcs:    0.0000      0.0000    
            lambdas:    1.0000      1.0000    
-------------------------------------------------------------------------------
L=0  Nkbl=1  erefs: 0.17977+309
L=1  Nkbl=1  erefs: 0.17977+309
L=2  Nkbl=1  erefs: 0.17977+309
L=3  Nkbl=1  erefs: 0.17977+309
===============================================================================
</basis_specs>

atom: Called for C                     (Z =   6)

read_vps: Pseudopotential generation method:
read_vps: ATM3      Troullier-Martins                       
Total valence charge:    4.00000

read_vps: Pseudopotential includes a core correction:
read_vps: Pseudo-core for xc-correction

xc_check: Exchange-correlation functional:
xc_check: GGA Perdew, Burke & Ernzerhof 1996
V l=0 = -2*Zval/r beyond r=  1.5227
V l=1 = -2*Zval/r beyond r=  1.5227
V l=2 = -2*Zval/r beyond r=  1.5227
V l=3 = -2*Zval/r beyond r=  1.5038
All V_l potentials equal beyond r=  1.5227
This should be close to max(r_c) in ps generation
All pots = -2*Zval/r beyond r=  1.5227

VLOCAL1: 99.0% of the norm of Vloc inside     18.722 Ry
VLOCAL1: 99.9% of the norm of Vloc inside     42.668 Ry
atom: Maximum radius for 4*pi*r*r*local-pseudopot. charge    1.83678
atom: Maximum radius for r*vlocal+2*Zval:    1.58088
GHOST: No ghost state for L =  0
GHOST: No ghost state for L =  1
GHOST: No ghost state for L =  2
GHOST: No ghost state for L =  3

KBgen: Kleinman-Bylander projectors: 
   l= 0   rc=  1.704034   el= -1.009801   Ekb=  5.335044   kbcos=  0.316824
   l= 1   rc=  1.704034   el= -0.388707   Ekb= -3.785862   kbcos= -0.366464
   l= 2   rc=  1.791422   el=  0.001971   Ekb= -0.970471   kbcos= -0.009212
   l= 3   rc=  1.859892   el=  0.003065   Ekb= -0.399525   kbcos= -0.001223

KBgen: Total number of  Kleinman-Bylander projectors:   16
atom: -------------------------------------------------------------------------

atom: SANKEY-TYPE ORBITALS:
atom: Selected multiple-zeta basis: split     

SPLIT: Orbitals with angular momentum L= 0

SPLIT: Basis orbitals for state 2s

SPLIT: PAO cut-off radius determined from an
SPLIT: energy shift=  0.007350 Ry

   izeta = 1
                 lambda =    1.000000
                     rc =    4.632753
                 energy =   -1.002270
                kinetic =    0.855760
    potential(screened) =   -1.858031
       potential(ionic) =   -5.417575

   izeta = 2
                 rmatch =    3.431921
              splitnorm =    0.150000
                 energy =   -0.867111
                kinetic =    1.300804
    potential(screened) =   -2.167915
       potential(ionic) =   -5.962684

SPLIT: Orbitals with angular momentum L= 1

SPLIT: Basis orbitals for state 2p

SPLIT: PAO cut-off radius determined from an
SPLIT: energy shift=  0.007350 Ry

   izeta = 1
                 lambda =    1.000000
                     rc =    5.658549
                 energy =   -0.381140
                kinetic =    2.399701
    potential(screened) =   -2.780841
       potential(ionic) =   -6.206085

   izeta = 2
                 rmatch =    3.653288
              splitnorm =    0.150000
                 energy =   -0.249149
                kinetic =    3.542762
    potential(screened) =   -3.791911
       potential(ionic) =   -7.581078

POLgen: Perturbative polarization orbital with L=  2

POLgen: Polarization orbital for state 2p

   izeta = 1
                     rc =    5.658549
                 energy =    1.109913
                kinetic =    2.304789
    potential(screened) =   -1.194876
       potential(ionic) =   -4.013592
atom: Total number of Sankey-type orbitals: 13

atm_pop: Valence configuration (for local Pseudopot. screening):
 2s( 2.00)                                                            
 2p( 2.00)                                                            
Vna: chval, zval:    4.00000   4.00000

Vna:  Cut-off radius for the neutral-atom potential:   5.658549
comcore: Pseudo-core radius Rcore=  1.791422

atom: _________________________________________________________________________

prinput: Basis input ----------------------------------------------------------

PAO.BasisType split     

%block ChemicalSpeciesLabel
    1    7 N                       # Species index, atomic number, species label
    2    6 C                       # Species index, atomic number, species label
%endblock ChemicalSpeciesLabel

%block PAO.Basis                 # Define Basis set
N                     2                    # Species label, number of l-shells
 n=2   0   2                         # n, l, Nzeta 
   4.071      2.905   
   1.000      1.000   
 n=2   1   2 P   1                   # n, l, Nzeta, Polarization, NzetaPol
   4.973      3.054   
   1.000      1.000   
C                     2                    # Species label, number of l-shells
 n=2   0   2                         # n, l, Nzeta 
   4.633      3.432   
   1.000      1.000   
 n=2   1   2 P   1                   # n, l, Nzeta, Polarization, NzetaPol
   5.659      3.653   
   1.000      1.000   
%endblock PAO.Basis

prinput: ----------------------------------------------------------------------

coor:   Atomic-coordinates input format  =     Fractional

siesta: Atomic coordinates (Bohr) and species
siesta:      9.28770  29.48119   0.00000  1        1
siesta:      2.30256   9.31683   0.00000  1        2
siesta:      4.63094  10.66124   0.00000  1        3
siesta:      9.28770  21.41544   0.00000  1        4
siesta:     11.61608  22.75985   0.00000  1        5
siesta:     -2.35420   9.31683   0.00000  1        6
siesta:     -0.02582  10.66124   0.00000  1        7
siesta:      4.63094  21.41544   0.00000  1        8
siesta:      6.95932  22.75985   0.00000  1        9
siesta:     -4.68258  10.66124   0.00000  1       10
siesta:     -0.02582  21.41544   0.00000  1       11
siesta:      2.30256  22.75985   0.00000  1       12
siesta:      2.30256  25.44831   0.00000  1       13
siesta:     -9.33934  29.48119   0.00000  1       14
siesta:      4.63094  29.48119   0.00000  1       15
siesta:     -0.02582  29.48119   0.00000  1       16
siesta:     -4.68258  29.48119   0.00000  1       17
siesta:     -0.02582   2.59549   0.00000  2       18
siesta:     -0.02582   5.28395   0.00000  2       19
siesta:     -2.35420  38.89134   0.00000  2       20
siesta:     -2.35420  41.57980   0.00000  2       21
siesta:      2.30256  38.89134   0.00000  2       22
siesta:      2.30256  41.57980   0.00000  2       23
siesta:      4.63094  34.85847   0.00000  2       24
siesta:      4.63094  37.54693   0.00000  2       25
siesta:      6.95932  30.82560   0.00000  2       26
siesta:      6.95932  33.51406   0.00000  2       27
siesta:      9.28770  26.79272   0.00000  2       28
siesta:     -4.68258  34.85847   0.00000  2       29
siesta:     -4.68258  37.54693   0.00000  2       30
siesta:      2.30256   6.62836   0.00000  2       31
siesta:      4.63094  13.34970   0.00000  2       32
siesta:      6.95932  14.69411   0.00000  2       33
siesta:      6.95932  17.38257   0.00000  2       34
siesta:      9.28770  18.72698   0.00000  2       35
siesta:     11.61608  25.44831   0.00000  2       36
siesta:     -2.35420   6.62836   0.00000  2       37
siesta:     -0.02582  13.34970   0.00000  2       38
siesta:      2.30256  14.69411   0.00000  2       39
siesta:      2.30256  17.38257   0.00000  2       40
siesta:      4.63094  18.72698   0.00000  2       41
siesta:      6.95932  25.44831   0.00000  2       42
siesta:     -4.68258  13.34970   0.00000  2       43
siesta:     -2.35420  14.69411   0.00000  2       44
siesta:     -2.35420  17.38257   0.00000  2       45
siesta:     -0.02582  18.72698   0.00000  2       46
siesta:     -7.01096  14.69411   0.00000  2       47
siesta:     -7.01096  17.38257   0.00000  2       48
siesta:     -4.68258  18.72698   0.00000  2       49
siesta:     -4.68258  21.41544   0.00000  2       50
siesta:     -2.35420  22.75985   0.00000  2       51
siesta:     -2.35420  25.44831   0.00000  2       52
siesta:     -9.33934  18.72698   0.00000  2       53
siesta:     -9.33934  21.41544   0.00000  2       54
siesta:     -7.01096  22.75985   0.00000  2       55
siesta:     -7.01096  25.44831   0.00000  2       56
siesta:    -11.66772  22.75985   0.00000  2       57
siesta:    -11.66772  25.44831   0.00000  2       58
siesta:     -9.33934  26.79272   0.00000  2       59
siesta:      4.63094  26.79272   0.00000  2       60
siesta:     -0.02582  26.79272   0.00000  2       61
siesta:     -4.68258  26.79272   0.00000  2       62
siesta:      2.30256  30.82560   0.00000  2       63
siesta:      2.30256  33.51406   0.00000  2       64
siesta:     -2.35420  30.82560   0.00000  2       65
siesta:     -2.35420  33.51406   0.00000  2       66
siesta:     -7.01096  30.82560   0.00000  2       67
siesta:     -7.01096  33.51406   0.00000  2       68
siesta:     -0.02582  34.85847   0.00000  2       69
siesta:     -0.02582  37.54693   0.00000  2       70
siesta:     -0.02582  42.92421   0.00000  2       71
siesta:     -0.02582  45.61267   0.00000  2       72

siesta: System type = slab      

initatomlists: Number of atoms, orbitals, and projectors:     72   936  1152

siesta: ******************** Simulation parameters ****************************
siesta:
siesta: The following are some of the parameters of the simulation.
siesta: A complete list of the parameters used, including default values,
siesta: can be found in file out.fdf
siesta:
redata: Non-Collinear-spin run           =     F
redata: SpinPolarized (Up/Down) run      =     F
redata: Number of spin components        =     1
redata: Long output                      =     F
redata: Number of Atomic Species         =        2
redata: Charge density info will appear in .RHO file
redata: Write Mulliken Pop.              =     NO
redata: Mesh Cutoff                      =   200.0000  Ry
redata: Net charge of the system         =     0.0000 |e|
redata: Max. number of SCF Iter          =      500
redata: SCF convergence failure will abort job
redata: Performing Pulay mixing using    =    10 iterations
redata: Mix DM in first SCF step ?       =     F
redata: Write Pulay info on disk?        =     F
redata: Discard 1st Pulay DM after  kick =     F
redata: New DM Mixing Weight             =     0.0500
redata: New DM Occupancy tolerance       = 0.000000000001
redata: No kicks to SCF
redata: DM Mixing Weight for Kicks       =     0.5000
redata: DM Tolerance for SCF             =     0.000100
redata: Require Energy convergence for SCF =     F
redata: DM Energy tolerance for SCF      =     0.000100 eV
redata: Require Harris convergence for SCF =     F
redata: DM Harris energy tolerance for SCF =     0.000100 eV
redata: Using Saved Data (generic)   =     F
redata: Use continuation files for DM    =     T
redata: Neglect nonoverlap interactions  =     F
redata: Method of Calculation            =     Diagonalization
redata: Divide and Conquer               =     T
redata: Electronic Temperature           =     0.0019  Ry
redata: Fix the spin of the system       =     F
redata: Dynamics option                  =     Verlet MD run
redata: Initial MD time step             =        1
redata:   Final MD time step             =        1
redata: Length of MD time step           =     1.0000  fs
redata: Initial Temperature of MD run    =     0.0000  K
redata: Perform a MD quench              =     F
redata: ***********************************************************************
Total number of electrons:   305.000000
Total ionic charge:   305.000000

* ProcessorY, Blocksize:    2  24

k-point displ. along   1 input, could be:     0.50    0.00
k-point displ. along   2 input, could be:     0.50    0.00
 Kpoints in:          231 . Kpoints trimmed:          231

siesta: k-grid: Number of k-points =   231
siesta: k-grid: Cutoff (effective) =     5.000 Ang
siesta: k-grid: Supercell and displacements
siesta: k-grid:   21   0   0      0.500
siesta: k-grid:    0  21   0      0.500
siesta: k-grid:    0   0   1      0.000
Naive supercell factors:     2    2    2

superc: Internal auxiliary supercell:     2 x     2 x     2  =       8
superc: Number of atoms, orbitals, and projectors:    576   7488   9216

* Maximum dynamic memory allocated =     4 MB

siesta:                 ==============================
                            Begin MD step =      1
                        ==============================

superc: Internal auxiliary supercell:     2 x     2 x     2  =       8
superc: Number of atoms, orbitals, and projectors:    576   7488   9216

outcell: Unit cell vectors (Ang):
       12.804619    7.392750    0.000000
        0.000000   14.785500    0.000000
        0.000000    0.000000   10.000000

outcell: Cell vector modules (Ang)   :   14.785500   14.785500   10.000000
outcell: Cell angles (23,13,12) (deg):     90.0000     90.0000     60.0000
outcell: Cell volume (Ang**3)        :   1893.2269
New_DM. Step:     1
Initializing Density Matrix...

InitMesh: MESH =   120 x   120 x    90 =     1296000
InitMesh: Mesh cutoff (required, used) =   200.000   223.865 Ry

* Maximum dynamic memory allocated =   187 MB

stepf: Fermi-Dirac step function

siesta: Program's energy decomposition (eV):
siesta: Ebs     =     -6239.126757
siesta: Eions   =     21135.707422
siesta: Ena     =      4900.852090
siesta: Ekin    =      7804.862351
siesta: Enl     =       137.278039
siesta: DEna    =        -0.000015
siesta: DUscf   =         0.000000
siesta: DUext   =         0.000000
siesta: Exc     =     -4598.678774
siesta: eta*DQ  =         0.000000
siesta: Emadel  =         0.000000
siesta: Emeta   =         0.000000
siesta: Emolmec =         0.000000
siesta: Ekinion =         0.000000
siesta: Eharris =    -12530.827592
siesta: Etot    =    -12891.393730
siesta: FreeEng =    -12891.393730

siesta: iscf   Eharris(eV)      E_KS(eV)   FreeEng(eV)   dDmax  Ef(eV)
siesta:    1   -12530.8276   -12891.3937   -12891.3937  5.2017 -7.0455
timer: Routine,Calls,Time,% = IterSCF        1    3380.906  99.70
elaps: Routine,Calls,Wall,% = IterSCF        1     423.416  99.69
siesta:    2   -16429.0312   -11942.6640   -11942.7138 15.7466 -2.9129
siesta:    3   -12437.6373   -12690.2730   -12690.3266  2.0928 -4.6798
siesta:    4   -12414.2896   -12540.5909   -12540.6194  0.9817 -3.8808
siesta:    5   -12385.4555   -12463.2374   -12463.2750  0.9029 -3.7893
siesta:    6   -12380.1364   -12445.6377   -12445.6694  0.7754 -3.8708
siesta:    7   -12374.3690   -12429.4469   -12429.5038  0.7008 -3.8882
siesta:    8   -12372.5960   -12416.0227   -12416.0703  0.6220 -3.9777
siesta:    9   -12371.8979   -12411.4869   -12411.5316  0.6195 -3.9292
siesta:   10   -12371.7671   -12388.0481   -12388.1081  0.3861 -4.0264
siesta:   11   -12371.1951   -12374.9054   -12374.9546  0.2709 -3.9960
siesta:   12   -12371.2824   -12365.9396   -12366.0135  0.2296 -3.9873
siesta:   13   -12370.9903   -12360.8843   -12360.9408  0.2874 -3.9207
siesta:   14   -12370.7477   -12360.8498   -12360.9055  0.1642 -3.9439
siesta:   15   -12370.4253   -12361.6961   -12361.7622  0.0897 -3.9582
siesta:   16   -12370.3629   -12362.3914   -12362.4691  0.0807 -3.9681
siesta:   17   -12370.3149   -12363.6084   -12363.6865  0.0716 -3.9639
siesta:   18   -12370.3009   -12365.1472   -12365.2232  0.0534 -3.9681
siesta:   19   -12370.3010   -12366.5338   -12366.6096  0.0578 -3.9626
siesta:   20   -12370.2917   -12368.2365   -12368.3111  0.0243 -3.9691
siesta:   21   -12370.2900   -12369.3691   -12369.4469  0.0165 -3.9692
siesta:   22   -12370.2886   -12370.1627   -12370.2409  0.0072 -3.9678
siesta:   23   -12370.2880   -12370.4264   -12370.5041  0.0067 -3.9667
siesta:   24   -12370.2868   -12370.6481   -12370.7257  0.0184 -3.9660
siesta:   25   -12370.2867   -12370.2799   -12370.3585  0.0035 -3.9649
siesta:   26   -12370.2866   -12370.3592   -12370.4374  0.0024 -3.9646
siesta:   27   -12370.2865   -12370.3323   -12370.4106  0.0013 -3.9645
siesta:   28   -12370.2865   -12370.3406   -12370.4189  0.0013 -3.9643
siesta:   29   -12370.2865   -12370.3246   -12370.4029  0.0011 -3.9641
siesta:   30   -12370.2864   -12370.2943   -12370.3726  0.0008 -3.9641
siesta:   31   -12370.2865   -12370.2656   -12370.3440  0.0004 -3.9642
siesta:   32   -12370.2865   -12370.2639   -12370.3422  0.0003 -3.9644
siesta:   33   -12370.2865   -12370.2657   -12370.3440  0.0003 -3.9645
siesta:   34   -12370.2865   -12370.2703   -12370.3486  0.0002 -3.9646
siesta:   35   -12370.2865   -12370.2790   -12370.3573  0.0001 -3.9646
siesta:   36   -12370.2865   -12370.2811   -12370.3594  0.0001 -3.9646

siesta: E_KS(eV) =           -12370.2843

siesta: E_KS - E_eggbox =    -12370.2843

siesta: Atomic forces (eV/Ang):
----------------------------------------
   Tot   -0.515531    0.037314    0.000000
----------------------------------------
   Max  680.228411
   Res  176.392295    sqrt( Sum f_i^2 / 3N )
----------------------------------------
   Max  680.228411    constrained

Stress-tensor-Voigt (kbar):     -638.24    -3114.14       -0.09        6.13        0.00        0.00
(Free)E + p*V (eV/cell)   -10892.3319
Target enthalpy (eV/cell)   -12370.3626

siesta: Stress tensor (static) (eV/Ang**3):
        -0.398353    0.003825    0.000000
         0.003825   -1.943673    0.000000
         0.000000    0.000000   -0.000056

siesta: Pressure (static):       1250.82308180  kBar

siesta: Stress tensor (total) (eV/Ang**3):
        -0.398353    0.003825    0.000000
         0.003825   -1.943673    0.000000
         0.000000    0.000000   -0.000056

siesta: Pressure (total):       1250.82308180  kBar

siesta: Temp_ion =       0.000 K

* Maximum dynamic memory allocated =   204 MB
Computing bands...

siesta: Program's energy decomposition (eV):
siesta: Ebs     =     -5001.912440
siesta: Eions   =     21135.707422
siesta: Ena     =      4900.852090
siesta: Ekin    =     10899.495881
siesta: Enl     =     -1585.236546
siesta: DEna    =      -785.530244
siesta: DUscf   =       107.138583
siesta: DUext   =         0.000000
siesta: Exc     =     -4771.296636
siesta: eta*DQ  =         0.000000
siesta: Emadel  =         0.000000
siesta: Emeta   =         0.000000
siesta: Emolmec =         0.000000
siesta: Ekinion =         0.000000
siesta: Eharris =    -12370.286476
siesta: Etot    =    -12370.284295
siesta: FreeEng =    -12370.362577

siesta: Final energy (eV):
siesta:  Band Struct. =   -5001.912440
siesta:       Kinetic =   10899.495881
siesta:       Hartree =   35007.197956
siesta:    Ext. field =       0.000000
siesta:   Exch.-corr. =   -4771.296636
siesta:  Ion-electron =  -80490.686321
siesta:       Ion-ion =   26985.004826
siesta:       Ekinion =       0.000000
siesta:         Total =  -12370.284295

siesta: Atomic forces (eV/Ang):
siesta:      1   -2.154488   -1.375305    0.000000
siesta:      2   -4.777047 -126.211075    0.000000
siesta:      3   37.829008  661.947028    0.000000
siesta:      4    0.366956   -4.882450    0.000000
siesta:      5   -0.625539    4.792578    0.000000
siesta:      6    4.171391 -126.150199    0.000000
siesta:      7    0.322498  670.489766    0.000000
siesta:      8    0.385132   -1.708894    0.000000
siesta:      9   -1.296040    3.224913    0.000000
siesta:     10  -37.687889  661.718400    0.000000
siesta:     11   -0.432274   -1.345805    0.000000
siesta:     12    0.961120    0.329453    0.000000
siesta:     13    1.527544    2.263300    0.000000
siesta:     14    2.715658   -0.275721    0.000000
siesta:     15   -1.372677   -4.093629    0.000000
siesta:     16    0.574240 -680.228411    0.000000
siesta:     17    0.488913   -4.252426    0.000000
siesta:     18    0.229644  646.422195    0.000000
siesta:     19    0.093415 -121.107320    0.000000
siesta:     20   -0.086387  126.584187    0.000000
siesta:     21  -13.712682 -550.512529    0.000000
siesta:     22    0.355951  125.971393    0.000000
siesta:     23   13.939598 -550.370061    0.000000
siesta:     24   27.259000    2.591270    0.000000
siesta:     25   18.298722 -655.679983    0.000000
siesta:     26    2.424399   -0.717409    0.000000
siesta:     27   -2.453320   -0.006503    0.000000
siesta:     28   -0.799338    3.367962    0.000000
siesta:     29  -27.266004    1.725762    0.000000
siesta:     30  -18.305152 -655.468355    0.000000
siesta:     31    8.933591  541.112370    0.000000
siesta:     32   25.046085   -3.906079    0.000000
siesta:     33   -2.430363   -1.207375    0.000000
siesta:     34    0.700325    0.080209    0.000000
siesta:     35    1.241640    3.094383    0.000000
siesta:     36    0.999426   -5.173513    0.000000
siesta:     37   -9.036837  541.187949    0.000000
siesta:     38   -0.115455 -119.335789    0.000000
siesta:     39   19.363617  563.285090    0.000000
siesta:     40   23.992668   -5.750993    0.000000
siesta:     41   -2.061105    3.451356    0.000000
siesta:     42   -0.734339   -1.216245    0.000000
siesta:     43  -24.941697   -3.134793    0.000000
siesta:     44  -20.543158  562.843082    0.000000
siesta:     45  -23.987738   -6.789491    0.000000
siesta:     46    0.343599  565.059843    0.000000
siesta:     47    3.202719   -2.333764    0.000000
siesta:     48   -1.756720   -0.355584    0.000000
siesta:     49    1.393260    2.477920    0.000000
siesta:     50    0.308282   -0.290468    0.000000
siesta:     51   -0.430652    0.582621    0.000000
siesta:     52    0.637134    0.133055    0.000000
siesta:     53    1.192186    0.474973    0.000000
siesta:     54   -1.707840   -2.509386    0.000000
siesta:     55    0.437193    0.937315    0.000000
siesta:     56    0.663784   -0.592203    0.000000
siesta:     57    0.123507    7.493731    0.000000
siesta:     58    0.532876   -6.328434    0.000000
siesta:     59   -1.554002    3.751474    0.000000
siesta:     60   -0.367831   -0.876500    0.000000
siesta:     61   -0.321229    0.420024    0.000000
siesta:     62   -0.859462    0.814776    0.000000
siesta:     63   25.700238   11.122325    0.000000
siesta:     64   23.581456 -562.669994    0.000000
siesta:     65  -25.749486   11.171920    0.000000
siesta:     66  -23.913145 -562.853289    0.000000
siesta:     67   -2.443909   -1.697853    0.000000
siesta:     68    2.817710    0.873526    0.000000
siesta:     69    0.063038  120.816189    0.000000
siesta:     70   -0.437261 -665.984712    0.000000
siesta:     71    0.361368  129.719490    0.000000
siesta:     72    0.266641 -544.901975    0.000000
siesta: ----------------------------------------
siesta:    Tot   -0.515531    0.037314    0.000000

siesta: Stress tensor (static) (eV/Ang**3):
siesta:    -0.398353    0.003825    0.000000
siesta:     0.003825   -1.943673    0.000000
siesta:     0.000000    0.000000   -0.000056

siesta: Cell volume =       1893.226884 Ang**3

siesta: Pressure (static):
siesta:                Solid            Molecule  Units
siesta:           0.00850275          0.13893975  Ry/Bohr**3
siesta:           0.78069392         12.75697510  eV/Ang**3
siesta:        1250.82308180      20439.14834908  kBar
(Free)E+ p_basis*V_orbitals  =      -12342.055341
(Free)Eharris+ p_basis*V_orbitals  =      -12342.060697

siesta: Electric dipole (a.u.)  =    0.000000    0.000000    0.000000
siesta: Electric dipole (Debye) =    0.000000    0.000000    0.000000

* Maximum dynamic memory allocated : Node    0 =   204 MB
* Maximum dynamic memory allocated : Node    1 =    72 MB
* Maximum dynamic memory allocated : Node    2 =    73 MB
* Maximum dynamic memory allocated : Node    3 =   193 MB
* Maximum dynamic memory allocated : Node    4 =   187 MB
* Maximum dynamic memory allocated : Node    5 =    71 MB
* Maximum dynamic memory allocated : Node    6 =    72 MB
* Maximum dynamic memory allocated : Node    7 =   172 MB

* Maximum memory occured during matrixMtoO                    

timer: CPU execution times:
timer:  Routine       Calls   Time/call    Tot.time        %
timer:  siesta            1  120735.155  120735.155   100.00
timer:  Setup             1       2.689       2.689     0.00
timer:  bands             3     244.174     732.521     0.61
timer:  writewave         1       0.023       0.023     0.00
timer:  KSV_init          1       0.000       0.000     0.00
timer:  IterMD            1  119994.752  119994.752    99.39
timer:  hsparse           1       0.279       0.279     0.00
timer:  overlap           1       7.132       7.132     0.01
timer:  IterSCF          36    3328.876  119839.526    99.26
timer:  kinefsm           2       3.674       7.348     0.01
timer:  nlefsm            2      17.515      35.030     0.03
timer:  DHSCF            37      76.604    2834.342     2.35
timer:  DHSCF1            1       0.747       0.747     0.00
timer:  DHSCF2            1      31.162      31.162     0.03
timer:  REORD           298       0.005       1.470     0.00
timer:  POISON           38       0.876      33.290     0.03
timer:  DHSCF3           37      74.947    2773.048     2.30
timer:  rhoofd           37      15.845     586.263     0.49
timer:  cellXC           37       3.237     119.779     0.10
timer:  vmat             37      34.470    1275.395     1.06
timer:  MolMec            2       0.000       0.000     0.00
timer:  diagon           36    3251.550  117055.794    96.95
timer:  c-eigval       8437       6.033   50903.787    42.16
timer:  c-buildHS      8437       0.047     399.926     0.33
timer:  cdiag         16753       6.166  103301.026    85.56
timer:  cdiag1        16753       0.384    6441.020     5.33
timer:  cdiag2        16753       1.769   29632.685    24.54
timer:  cdiag3        16753       3.742   62691.937    51.93
timer:  cdiag4        16753       0.150    2512.532     2.08
timer:  c-eigvec       8316       6.387   53110.287    43.99
timer:  c-buildD       8316       1.651   13731.912    11.37
timer:  DHSCF4            1      28.682      28.682     0.02
timer:  dfscf             1      26.796      26.796     0.02
timer:  overfsm           1       0.381       0.381     0.00
timer:  optical           1       4.533       4.533     0.00
  

elaps: ELAPSED times:
elaps:  Routine       Calls   Time/call    Tot.time        %
elaps:  siesta            1   15119.814   15119.814   100.00
elaps:  Setup             1       0.337       0.337     0.00
elaps:  bands             3      30.595      91.786     0.61
elaps:  writewave         1       0.002       0.002     0.00
elaps:  KSV_init          1       0.000       0.000     0.00
elaps:  IterMD            1   15027.092   15027.092    99.39
elaps:  hsparse           1       0.037       0.037     0.00
elaps:  overlap           1       0.898       0.898     0.01
elaps:  IterSCF          36     416.879   15007.654    99.26
elaps:  kinefsm           2       0.462       0.925     0.01
elaps:  nlefsm            2       2.190       4.381     0.03
elaps:  DHSCF            37       9.699     358.874     2.37
elaps:  DHSCF1            1       0.095       0.095     0.00
elaps:  DHSCF2            1       3.902       3.902     0.03
elaps:  REORD           298       0.001       0.209     0.00
elaps:  POISON           38       0.111       4.204     0.03
elaps:  DHSCF3           37       9.386     347.297     2.30
elaps:  rhoofd           37       4.468     165.331     1.09
elaps:  cellXC           37       0.405      14.990     0.10
elaps:  vmat             37       4.317     159.731     1.06
elaps:  MolMec            2       0.000       0.000     0.00
elaps:  diagon           36     407.202   14659.268    96.95
elaps:  c-eigval       8437       0.756    6374.684    42.16
elaps:  c-buildHS      8437       0.006      54.759     0.36
elaps:  cdiag         16753       0.768   12869.579    85.12
elaps:  cdiag1        16753       0.048     806.383     5.33
elaps:  cdiag2        16753       0.222    3711.668    24.55
elaps:  cdiag3        16753       0.469    7861.653    52.00
elaps:  cdiag4        16753       0.018     308.929     2.04
elaps:  c-eigvec       8316       0.793    6593.171    43.61
elaps:  c-buildD       8316       0.214    1777.255    11.75
elaps:  DHSCF4            1       7.492       7.492     0.05
elaps:  dfscf             1       7.087       7.087     0.05
elaps:  overfsm           1       0.049       0.049     0.00
elaps:  optical           1       0.000       0.000     0.00
  
>> End of run:   4-MAY-2016   3:18:21
