Siesta Version:                                        siesta-3.2-pl-3
Architecture  : x86_64-unknown-linux-gnu--unknown
Compiler flags: mpiifort -g -O2 -fPIC -xSSE4.1 -fp-model source -shared-intel 
PARALLEL version

* Running on    8 nodes in parallel
>> Start of run:   1-MAY-2016  10:54:57

                           ***********************       
                           *  WELCOME TO SIESTA  *       
                           ***********************       

reinit: Reading from standard input
************************** Dump of input data file ****************************
#(1) General system descriptors
SystemName            GRP_doping    # Descriptive name of the system
SystemLabel           GRP_doping    # Short name for naming files
%include STRUCT.fdf
%include KPT.fdf
%include BASIS.fdf
#%include TS.fdf # for transiesta calculation
#(4) DFT, Grid, SCF
XC.functional         GGA           # LDA or GGA (default = LDA)
XC.authors            PBE           # CA (Ceperley-Aldr) = PZ
                                    #    (Perdew-Zunger) - LDA - Default
                                    # PW92 (Perdew-Wang-92) - LDA
                                    # PBE (Perdew-Burke-Ernzerhof) - GGA
MeshCutoff            200.000000    Ry      # Default: 50.0 Ry ~ 0.444 Bohr
                                    #         100.0 Ry ~ 0.314 Bohr
MaxSCFIterations      500           # Default: 50
DM.MixingWeight       0.05          # Default: 0.25
DM.NumberPulay        10            # Default: 0
DM.PulayOnFile        F             # SystemLabel.P1, SystemLabel.P2
DM.Tolerance          1.d-4         # Default: 1.d-4
DM.UseSaveDM          .true.        # because of the bug
SCFMustConverge       .true.
NeglNonOverlapInt     F             # Default: F
#(5) Eigenvalue problem: order-N or diagonalization
SolutionMethod        Diagon        # or Transiesta
ElectronicTemperature 300.0 K       # Default: 300.0 K
#(6) Molecular dynamics and relaxations
#MD.TypeOfRun          CG            # Type of dynamics:
#MD.VariableCell       F
#MD.NumCGsteps         0           # 0 for single-point / 100 for gopt
#MD.MaxCGDispl         0.2 Bohr      # Default: 0.2 Bohr
#MD.MaxForceTol        0.02 eV/Ang   # Default: 0.04 eV/Ang
#MD.MaxStressTol       1.0 GPa       # Default: 1.0 GPa
# Geometry Constraints
#%block GeometryConstraints
#	position from 1 to 44
#%endblock GeometryConstraints
BandLinesScale   pi/a
%block BandLines
 1   0.00000000  0.00000000  0.00000000
50   0.00000000  0.07809418  0.00000000
50   0.04509075  0.07809242  0.00000000
20   0.00000000  0.00000000  0.00000000
%endblock BandLines
************************** End of input data file *****************************

reinit: -----------------------------------------------------------------------
reinit: System Name: GRP_doping
reinit: -----------------------------------------------------------------------
reinit: System Label: GRP_doping                                                  
reinit: -----------------------------------------------------------------------

initatom: Reading input for the pseudopotentials and atomic orbitals ----------
 Species number:            1  Label: N Atomic number:           7
 Species number:            2  Label: C Atomic number:           6
Ground state valence configuration:   2s02  2p03
Reading pseudopotential information in formatted form from N.psf

Valence configuration for pseudopotential generation:
2s( 2.00) rc: 1.48
2p( 3.00) rc: 1.48
3d( 0.00) rc: 1.48
4f( 0.00) rc: 1.48
Ground state valence configuration:   2s02  2p02
Reading pseudopotential information in formatted form from C.psf

Valence configuration for pseudopotential generation:
2s( 2.00) rc: 1.54
2p( 2.00) rc: 1.54
3d( 0.00) rc: 1.54
4f( 0.00) rc: 1.54
For N, standard SIESTA heuristics set lmxkb to 3
 (one more than the basis l, including polarization orbitals).
Use PS.lmax or PS.KBprojectors blocks to override.
For C, standard SIESTA heuristics set lmxkb to 3
 (one more than the basis l, including polarization orbitals).
Use PS.lmax or PS.KBprojectors blocks to override.

<basis_specs>
===============================================================================
N                    Z=   7    Mass=  14.010        Charge= 0.17977+309
Lmxo=1 Lmxkb= 3    BasisType=split      Semic=F
L=0  Nsemic=0  Cnfigmx=2
          n=1  nzeta=2  polorb=0
            splnorm:   0.15000    
               vcte:    0.0000    
               rinn:    0.0000    
                rcs:    0.0000      0.0000    
            lambdas:    1.0000      1.0000    
L=1  Nsemic=0  Cnfigmx=2
          n=1  nzeta=2  polorb=1
            splnorm:   0.15000    
               vcte:    0.0000    
               rinn:    0.0000    
                rcs:    0.0000      0.0000    
            lambdas:    1.0000      1.0000    
-------------------------------------------------------------------------------
L=0  Nkbl=1  erefs: 0.17977+309
L=1  Nkbl=1  erefs: 0.17977+309
L=2  Nkbl=1  erefs: 0.17977+309
L=3  Nkbl=1  erefs: 0.17977+309
===============================================================================
</basis_specs>

atom: Called for N                     (Z =   7)

read_vps: Pseudopotential generation method:
read_vps: ATM3      Troullier-Martins                       
Total valence charge:    5.00000

read_vps: Pseudopotential includes a core correction:
read_vps: Pseudo-core for xc-correction

xc_check: Exchange-correlation functional:
xc_check: GGA Perdew, Burke & Ernzerhof 1996
V l=0 = -2*Zval/r beyond r=  1.4606
V l=1 = -2*Zval/r beyond r=  1.4606
V l=2 = -2*Zval/r beyond r=  1.4606
V l=3 = -2*Zval/r beyond r=  1.4606
All V_l potentials equal beyond r=  1.4606
This should be close to max(r_c) in ps generation
All pots = -2*Zval/r beyond r=  1.4606

VLOCAL1: 99.0% of the norm of Vloc inside     20.347 Ry
VLOCAL1: 99.9% of the norm of Vloc inside     46.372 Ry
atom: Maximum radius for 4*pi*r*r*local-pseudopot. charge    1.76189
atom: Maximum radius for r*vlocal+2*Zval:    1.53550
GHOST: No ghost state for L =  0
GHOST: No ghost state for L =  1
GHOST: No ghost state for L =  2
GHOST: No ghost state for L =  3

KBgen: Kleinman-Bylander projectors: 
   l= 0   rc=  1.634559   el= -1.363963   Ekb=  5.296955   kbcos=  0.335621
   l= 1   rc=  1.614250   el= -0.521451   Ekb= -5.259161   kbcos= -0.433408
   l= 2   rc=  1.718383   el=  0.001991   Ekb= -1.271464   kbcos= -0.007566
   l= 3   rc=  1.761893   el=  0.003093   Ekb= -0.494769   kbcos= -0.001015

KBgen: Total number of  Kleinman-Bylander projectors:   16
atom: -------------------------------------------------------------------------

atom: SANKEY-TYPE ORBITALS:
atom: Selected multiple-zeta basis: split     

SPLIT: Orbitals with angular momentum L= 0

SPLIT: Basis orbitals for state 2s

SPLIT: PAO cut-off radius determined from an
SPLIT: energy shift=  0.007350 Ry

   izeta = 1
                 lambda =    1.000000
                     rc =    4.071465
                 energy =   -1.356470
                kinetic =    1.176977
    potential(screened) =   -2.533447
       potential(ionic) =   -8.057990

   izeta = 2
                 rmatch =    2.905100
              splitnorm =    0.150000
                 energy =   -1.158343
                kinetic =    1.813009
    potential(screened) =   -2.971352
       potential(ionic) =   -8.901931

SPLIT: Orbitals with angular momentum L= 1

SPLIT: Basis orbitals for state 2p

SPLIT: PAO cut-off radius determined from an
SPLIT: energy shift=  0.007350 Ry

   izeta = 1
                 lambda =    1.000000
                     rc =    4.972977
                 energy =   -0.513884
                kinetic =    3.441732
    potential(screened) =   -3.955616
       potential(ionic) =   -9.287901

   izeta = 2
                 rmatch =    3.054066
              splitnorm =    0.150000
                 energy =   -0.318226
                kinetic =    5.125348
    potential(screened) =   -5.443573
       potential(ionic) =  -11.380999

POLgen: Perturbative polarization orbital with L=  2

POLgen: Polarization orbital for state 2p

   izeta = 1
                     rc =    4.972977
                 energy =    1.607437
                kinetic =    3.268125
    potential(screened) =   -1.660688
       potential(ionic) =   -5.973652
atom: Total number of Sankey-type orbitals: 13

atm_pop: Valence configuration (for local Pseudopot. screening):
 2s( 2.00)                                                            
 2p( 3.00)                                                            
Vna: chval, zval:    5.00000   5.00000

Vna:  Cut-off radius for the neutral-atom potential:   4.972977
comcore: Pseudo-core radius Rcore=  1.554824

atom: _________________________________________________________________________

<basis_specs>
===============================================================================
C                    Z=   6    Mass=  12.010        Charge= 0.17977+309
Lmxo=1 Lmxkb= 3    BasisType=split      Semic=F
L=0  Nsemic=0  Cnfigmx=2
          n=1  nzeta=2  polorb=0
            splnorm:   0.15000    
               vcte:    0.0000    
               rinn:    0.0000    
                rcs:    0.0000      0.0000    
            lambdas:    1.0000      1.0000    
L=1  Nsemic=0  Cnfigmx=2
          n=1  nzeta=2  polorb=1
            splnorm:   0.15000    
               vcte:    0.0000    
               rinn:    0.0000    
                rcs:    0.0000      0.0000    
            lambdas:    1.0000      1.0000    
-------------------------------------------------------------------------------
L=0  Nkbl=1  erefs: 0.17977+309
L=1  Nkbl=1  erefs: 0.17977+309
L=2  Nkbl=1  erefs: 0.17977+309
L=3  Nkbl=1  erefs: 0.17977+309
===============================================================================
</basis_specs>

atom: Called for C                     (Z =   6)

read_vps: Pseudopotential generation method:
read_vps: ATM3      Troullier-Martins                       
Total valence charge:    4.00000

read_vps: Pseudopotential includes a core correction:
read_vps: Pseudo-core for xc-correction

xc_check: Exchange-correlation functional:
xc_check: GGA Perdew, Burke & Ernzerhof 1996
V l=0 = -2*Zval/r beyond r=  1.5227
V l=1 = -2*Zval/r beyond r=  1.5227
V l=2 = -2*Zval/r beyond r=  1.5227
V l=3 = -2*Zval/r beyond r=  1.5038
All V_l potentials equal beyond r=  1.5227
This should be close to max(r_c) in ps generation
All pots = -2*Zval/r beyond r=  1.5227

VLOCAL1: 99.0% of the norm of Vloc inside     18.722 Ry
VLOCAL1: 99.9% of the norm of Vloc inside     42.668 Ry
atom: Maximum radius for 4*pi*r*r*local-pseudopot. charge    1.83678
atom: Maximum radius for r*vlocal+2*Zval:    1.58088
GHOST: No ghost state for L =  0
GHOST: No ghost state for L =  1
GHOST: No ghost state for L =  2
GHOST: No ghost state for L =  3

KBgen: Kleinman-Bylander projectors: 
   l= 0   rc=  1.704034   el= -1.009801   Ekb=  5.335044   kbcos=  0.316824
   l= 1   rc=  1.704034   el= -0.388707   Ekb= -3.785862   kbcos= -0.366464
   l= 2   rc=  1.791422   el=  0.001971   Ekb= -0.970471   kbcos= -0.009212
   l= 3   rc=  1.859892   el=  0.003065   Ekb= -0.399525   kbcos= -0.001223

KBgen: Total number of  Kleinman-Bylander projectors:   16
atom: -------------------------------------------------------------------------

atom: SANKEY-TYPE ORBITALS:
atom: Selected multiple-zeta basis: split     

SPLIT: Orbitals with angular momentum L= 0

SPLIT: Basis orbitals for state 2s

SPLIT: PAO cut-off radius determined from an
SPLIT: energy shift=  0.007350 Ry

   izeta = 1
                 lambda =    1.000000
                     rc =    4.632753
                 energy =   -1.002270
                kinetic =    0.855760
    potential(screened) =   -1.858031
       potential(ionic) =   -5.417575

   izeta = 2
                 rmatch =    3.431921
              splitnorm =    0.150000
                 energy =   -0.867111
                kinetic =    1.300804
    potential(screened) =   -2.167915
       potential(ionic) =   -5.962684

SPLIT: Orbitals with angular momentum L= 1

SPLIT: Basis orbitals for state 2p

SPLIT: PAO cut-off radius determined from an
SPLIT: energy shift=  0.007350 Ry

   izeta = 1
                 lambda =    1.000000
                     rc =    5.658549
                 energy =   -0.381140
                kinetic =    2.399701
    potential(screened) =   -2.780841
       potential(ionic) =   -6.206085

   izeta = 2
                 rmatch =    3.653288
              splitnorm =    0.150000
                 energy =   -0.249149
                kinetic =    3.542762
    potential(screened) =   -3.791911
       potential(ionic) =   -7.581078

POLgen: Perturbative polarization orbital with L=  2

POLgen: Polarization orbital for state 2p

   izeta = 1
                     rc =    5.658549
                 energy =    1.109913
                kinetic =    2.304789
    potential(screened) =   -1.194876
       potential(ionic) =   -4.013592
atom: Total number of Sankey-type orbitals: 13

atm_pop: Valence configuration (for local Pseudopot. screening):
 2s( 2.00)                                                            
 2p( 2.00)                                                            
Vna: chval, zval:    4.00000   4.00000

Vna:  Cut-off radius for the neutral-atom potential:   5.658549
comcore: Pseudo-core radius Rcore=  1.791422

atom: _________________________________________________________________________

prinput: Basis input ----------------------------------------------------------

PAO.BasisType split     

%block ChemicalSpeciesLabel
    1    7 N                       # Species index, atomic number, species label
    2    6 C                       # Species index, atomic number, species label
%endblock ChemicalSpeciesLabel

%block PAO.Basis                 # Define Basis set
N                     2                    # Species label, number of l-shells
 n=2   0   2                         # n, l, Nzeta 
   4.071      2.905   
   1.000      1.000   
 n=2   1   2 P   1                   # n, l, Nzeta, Polarization, NzetaPol
   4.973      3.054   
   1.000      1.000   
C                     2                    # Species label, number of l-shells
 n=2   0   2                         # n, l, Nzeta 
   4.633      3.432   
   1.000      1.000   
 n=2   1   2 P   1                   # n, l, Nzeta, Polarization, NzetaPol
   5.659      3.653   
   1.000      1.000   
%endblock PAO.Basis

prinput: ----------------------------------------------------------------------

coor:   Atomic-coordinates input format  =     Fractional

siesta: Atomic coordinates (Bohr) and species
siesta:      6.95932  30.82560   0.00000  1        1
siesta:      9.28770  26.79272   0.00000  1        2
siesta:      9.28770  29.48119   0.00000  1        3
siesta:      4.63094  10.66124   0.00000  1        4
siesta:      4.63094  13.34970   0.00000  1        5
siesta:     11.61608  25.44831   0.00000  1        6
siesta:      2.30256  14.69411   0.00000  1        7
siesta:      2.30256  17.38257   0.00000  1        8
siesta:      4.63094  18.72698   0.00000  1        9
siesta:      4.63094  21.41544   0.00000  1       10
siesta:     -0.02582  18.72698   0.00000  1       11
siesta:      2.30256  22.75985   0.00000  1       12
siesta:      2.30256  25.44831   0.00000  1       13
siesta:     -9.33934  18.72698   0.00000  1       14
siesta:     -9.33934  21.41544   0.00000  1       15
siesta:    -11.66772  22.75985   0.00000  1       16
siesta:    -11.66772  25.44831   0.00000  1       17
siesta:      4.63094  26.79272   0.00000  1       18
siesta:      4.63094  29.48119   0.00000  1       19
siesta:     -0.02582   2.59549   0.00000  2       20
siesta:     -0.02582   5.28395   0.00000  2       21
siesta:     -2.35420  38.89134   0.00000  2       22
siesta:     -2.35420  41.57980   0.00000  2       23
siesta:      2.30256  38.89134   0.00000  2       24
siesta:      2.30256  41.57980   0.00000  2       25
siesta:      4.63094  34.85847   0.00000  2       26
siesta:      4.63094  37.54693   0.00000  2       27
siesta:      6.95932  33.51406   0.00000  2       28
siesta:     -4.68258  34.85847   0.00000  2       29
siesta:     -4.68258  37.54693   0.00000  2       30
siesta:      2.30256   6.62836   0.00000  2       31
siesta:      2.30256   9.31683   0.00000  2       32
siesta:      6.95932  14.69411   0.00000  2       33
siesta:      6.95932  17.38257   0.00000  2       34
siesta:      9.28770  18.72698   0.00000  2       35
siesta:      9.28770  21.41544   0.00000  2       36
siesta:     11.61608  22.75985   0.00000  2       37
siesta:     -2.35420   6.62836   0.00000  2       38
siesta:     -2.35420   9.31683   0.00000  2       39
siesta:     -0.02582  10.66124   0.00000  2       40
siesta:     -0.02582  13.34970   0.00000  2       41
siesta:      6.95932  22.75985   0.00000  2       42
siesta:      6.95932  25.44831   0.00000  2       43
siesta:     -4.68258  10.66124   0.00000  2       44
siesta:     -4.68258  13.34970   0.00000  2       45
siesta:     -2.35420  14.69411   0.00000  2       46
siesta:     -2.35420  17.38257   0.00000  2       47
siesta:     -0.02582  21.41544   0.00000  2       48
siesta:     -7.01096  14.69411   0.00000  2       49
siesta:     -7.01096  17.38257   0.00000  2       50
siesta:     -4.68258  18.72698   0.00000  2       51
siesta:     -4.68258  21.41544   0.00000  2       52
siesta:     -2.35420  22.75985   0.00000  2       53
siesta:     -2.35420  25.44831   0.00000  2       54
siesta:     -7.01096  22.75985   0.00000  2       55
siesta:     -7.01096  25.44831   0.00000  2       56
siesta:     -9.33934  26.79272   0.00000  2       57
siesta:     -9.33934  29.48119   0.00000  2       58
siesta:     -0.02582  26.79272   0.00000  2       59
siesta:     -0.02582  29.48119   0.00000  2       60
siesta:     -4.68258  26.79272   0.00000  2       61
siesta:     -4.68258  29.48119   0.00000  2       62
siesta:      2.30256  30.82560   0.00000  2       63
siesta:      2.30256  33.51406   0.00000  2       64
siesta:     -2.35420  30.82560   0.00000  2       65
siesta:     -2.35420  33.51406   0.00000  2       66
siesta:     -7.01096  30.82560   0.00000  2       67
siesta:     -7.01096  33.51406   0.00000  2       68
siesta:     -0.02582  34.85847   0.00000  2       69
siesta:     -0.02582  37.54693   0.00000  2       70
siesta:     -0.02582  42.92421   0.00000  2       71
siesta:     -0.02582  45.61267   0.00000  2       72

siesta: System type = slab      

initatomlists: Number of atoms, orbitals, and projectors:     72   936  1152

siesta: ******************** Simulation parameters ****************************
siesta:
siesta: The following are some of the parameters of the simulation.
siesta: A complete list of the parameters used, including default values,
siesta: can be found in file out.fdf
siesta:
redata: Non-Collinear-spin run           =     F
redata: SpinPolarized (Up/Down) run      =     F
redata: Number of spin components        =     1
redata: Long output                      =     F
redata: Number of Atomic Species         =        2
redata: Charge density info will appear in .RHO file
redata: Write Mulliken Pop.              =     NO
redata: Mesh Cutoff                      =   200.0000  Ry
redata: Net charge of the system         =     0.0000 |e|
redata: Max. number of SCF Iter          =      500
redata: SCF convergence failure will abort job
redata: Performing Pulay mixing using    =    10 iterations
redata: Mix DM in first SCF step ?       =     F
redata: Write Pulay info on disk?        =     F
redata: Discard 1st Pulay DM after  kick =     F
redata: New DM Mixing Weight             =     0.0500
redata: New DM Occupancy tolerance       = 0.000000000001
redata: No kicks to SCF
redata: DM Mixing Weight for Kicks       =     0.5000
redata: DM Tolerance for SCF             =     0.000100
redata: Require Energy convergence for SCF =     F
redata: DM Energy tolerance for SCF      =     0.000100 eV
redata: Require Harris convergence for SCF =     F
redata: DM Harris energy tolerance for SCF =     0.000100 eV
redata: Using Saved Data (generic)   =     F
redata: Use continuation files for DM    =     T
redata: Neglect nonoverlap interactions  =     F
redata: Method of Calculation            =     Diagonalization
redata: Divide and Conquer               =     T
redata: Electronic Temperature           =     0.0019  Ry
redata: Fix the spin of the system       =     F
redata: Dynamics option                  =     Verlet MD run
redata: Initial MD time step             =        1
redata:   Final MD time step             =        1
redata: Length of MD time step           =     1.0000  fs
redata: Initial Temperature of MD run    =     0.0000  K
redata: Perform a MD quench              =     F
redata: ***********************************************************************
Total number of electrons:   307.000000
Total ionic charge:   307.000000

* ProcessorY, Blocksize:    2  24

k-point displ. along   1 input, could be:     0.50    0.00
k-point displ. along   2 input, could be:     0.50    0.00
 Kpoints in:          231 . Kpoints trimmed:          231

siesta: k-grid: Number of k-points =   231
siesta: k-grid: Cutoff (effective) =     5.000 Ang
siesta: k-grid: Supercell and displacements
siesta: k-grid:   21   0   0      0.500
siesta: k-grid:    0  21   0      0.500
siesta: k-grid:    0   0   1      0.000
Naive supercell factors:     2    2    2

superc: Internal auxiliary supercell:     2 x     2 x     2  =       8
superc: Number of atoms, orbitals, and projectors:    576   7488   9216

* Maximum dynamic memory allocated =     4 MB

siesta:                 ==============================
                            Begin MD step =      1
                        ==============================

superc: Internal auxiliary supercell:     2 x     2 x     2  =       8
superc: Number of atoms, orbitals, and projectors:    576   7488   9216

outcell: Unit cell vectors (Ang):
       12.804619    7.392750    0.000000
        0.000000   14.785500    0.000000
        0.000000    0.000000   10.000000

outcell: Cell vector modules (Ang)   :   14.785500   14.785500   10.000000
outcell: Cell angles (23,13,12) (deg):     90.0000     90.0000     60.0000
outcell: Cell volume (Ang**3)        :   1893.2269
New_DM. Step:     1
Initializing Density Matrix...

InitMesh: MESH =   120 x   120 x    90 =     1296000
InitMesh: Mesh cutoff (required, used) =   200.000   223.865 Ry

* Maximum dynamic memory allocated =   186 MB

stepf: Fermi-Dirac step function

siesta: Program's energy decomposition (eV):
siesta: Ebs     =     -6233.697320
siesta: Eions   =     21457.201110
siesta: Ena     =      4918.019533
siesta: Ekin    =      7972.707975
siesta: Enl     =        96.836207
siesta: DEna    =        -0.000015
siesta: DUscf   =         0.000000
siesta: DUext   =         0.000000
siesta: Exc     =     -4643.016154
siesta: eta*DQ  =         0.000000
siesta: Emadel  =         0.000000
siesta: Emeta   =         0.000000
siesta: Emolmec =         0.000000
siesta: Ekinion =         0.000000
siesta: Eharris =    -12773.766146
siesta: Etot    =    -13112.653564
siesta: FreeEng =    -13112.653564

siesta: iscf   Eharris(eV)      E_KS(eV)   FreeEng(eV)   dDmax  Ef(eV)
siesta:    1   -12773.7661   -13112.6536   -13112.6536  6.3713 -7.0611
timer: Routine,Calls,Time,% = IterSCF        1    4139.230  99.73
elaps: Routine,Calls,Wall,% = IterSCF        1     517.998  99.73
siesta:    2   -18003.3193   -12029.2744   -12029.3231 27.0585 -5.4264
siesta:    3   -12719.5514   -12906.0598   -12906.0959  2.2797 -4.5158
siesta:    4   -12679.4487   -12788.6897   -12788.7377  1.3111 -4.0716
siesta:    5   -12625.3070   -12702.6907   -12702.7251  0.8815 -3.7510
siesta:    6   -12617.7450   -12674.0287   -12674.0634  0.8014 -3.5845
siesta:    7   -12606.6505   -12649.2375   -12649.2818  0.6626 -3.7785
siesta:    8   -12605.3336   -12640.5935   -12640.6550  0.6057 -3.8139
siesta:    9   -12606.5923   -12624.7030   -12624.7565  0.4812 -3.9041
siesta:   10   -12605.1359   -12617.5058   -12617.5490  0.4193 -3.8313
siesta:   11   -12605.1433   -12608.9348   -12608.9997  0.3293 -3.8501
siesta:   12   -12605.8596   -12594.5713   -12594.6337  0.2614 -3.6891
siesta:   13   -12605.0001   -12591.6571   -12591.7061  0.2352 -3.7694
siesta:   14   -12604.5150   -12593.0342   -12593.0856  0.1961 -3.7769
siesta:   15   -12603.9026   -12593.8476   -12593.9058  0.1610 -3.7915
siesta:   16   -12603.6066   -12596.6015   -12596.6586  0.1209 -3.8069
siesta:   17   -12603.4414   -12599.5290   -12599.5909  0.0655 -3.8318
siesta:   18   -12603.4526   -12601.6192   -12601.7111  0.0423 -3.8257
siesta:   19   -12603.4209   -12603.5134   -12603.5789  0.0374 -3.8309
siesta:   20   -12603.3810   -12604.9075   -12604.9802  0.0302 -3.8348
siesta:   21   -12603.3783   -12604.9588   -12605.0437  0.0289 -3.8300
siesta:   22   -12603.3821   -12604.7467   -12604.8327  0.0184 -3.8215
siesta:   23   -12603.3714   -12604.8456   -12604.9263  0.0186 -3.8170
siesta:   24   -12603.3716   -12604.6542   -12604.7411  0.0094 -3.8142
siesta:   25   -12603.3713   -12604.6971   -12604.7814  0.0091 -3.8136
siesta:   26   -12603.3710   -12604.2377   -12604.3212  0.0055 -3.8126
siesta:   27   -12603.3702   -12604.0673   -12604.1502  0.0051 -3.8122
siesta:   28   -12603.3710   -12603.9741   -12604.0576  0.0037 -3.8118
siesta:   29   -12603.3701   -12603.8814   -12603.9639  0.0037 -3.8124
siesta:   30   -12603.3706   -12603.6715   -12603.7549  0.0020 -3.8127
siesta:   31   -12603.3703   -12603.5011   -12603.5840  0.0010 -3.8129
siesta:   32   -12603.3705   -12603.4489   -12603.5320  0.0006 -3.8127
siesta:   33   -12603.3703   -12603.4467   -12603.5297  0.0005 -3.8128
siesta:   34   -12603.3704   -12603.4143   -12603.4974  0.0003 -3.8128
siesta:   35   -12603.3704   -12603.3957   -12603.4788  0.0002 -3.8128
siesta:   36   -12603.3704   -12603.3829   -12603.4659  0.0001 -3.8128
siesta:   37   -12603.3704   -12603.3791   -12603.4622  0.0001 -3.8129

siesta: E_KS(eV) =           -12603.3766

siesta: E_KS - E_eggbox =    -12603.3766

siesta: Atomic forces (eV/Ang):
----------------------------------------
   Tot   -0.119676    0.044782    0.000000
----------------------------------------
   Max  684.581339
   Res  172.417800    sqrt( Sum f_i^2 / 3N )
----------------------------------------
   Max  684.581339    constrained

Stress-tensor-Voigt (kbar):     -702.96    -3004.27       -0.01        3.34        0.00        0.00
(Free)E + p*V (eV/cell)   -11143.2431
Target enthalpy (eV/cell)   -12603.4596

siesta: Stress tensor (static) (eV/Ang**3):
        -0.438747    0.002085    0.000000
         0.002085   -1.875097    0.000000
         0.000000    0.000000   -0.000009

siesta: Pressure (static):       1235.74739512  kBar

siesta: Stress tensor (total) (eV/Ang**3):
        -0.438747    0.002085    0.000000
         0.002085   -1.875097    0.000000
         0.000000    0.000000   -0.000009

siesta: Pressure (total):       1235.74739512  kBar

siesta: Temp_ion =       0.000 K

* Maximum dynamic memory allocated =   203 MB
Computing bands...

siesta: Program's energy decomposition (eV):
siesta: Ebs     =     -5018.934125
siesta: Eions   =     21457.201110
siesta: Ena     =      4918.019533
siesta: Ekin    =     10977.257928
siesta: Enl     =     -1567.517958
siesta: DEna    =      -770.454332
siesta: DUscf   =       107.698681
siesta: DUext   =         0.000000
siesta: Exc     =     -4811.179331
siesta: eta*DQ  =         0.000000
siesta: Emadel  =         0.000000
siesta: Emeta   =         0.000000
siesta: Emolmec =         0.000000
siesta: Ekinion =         0.000000
siesta: Eharris =    -12603.370381
siesta: Etot    =    -12603.376589
siesta: FreeEng =    -12603.459642

siesta: Final energy (eV):
siesta:  Band Struct. =   -5018.934125
siesta:       Kinetic =   10977.257928
siesta:       Hartree =   34725.852286
siesta:    Ext. field =       0.000000
siesta:   Exch.-corr. =   -4811.179331
siesta:  Ion-electron =  -79978.376835
siesta:       Ion-ion =   26483.069363
siesta:       Ekinion =       0.000000
siesta:         Total =  -12603.376589

siesta: Atomic forces (eV/Ang):
siesta:      1    0.234193    1.723549    0.000000
siesta:      2   -2.951814    1.042042    0.000000
siesta:      3    0.935383   -1.430296    0.000000
siesta:      4   22.040419  652.028261    0.000000
siesta:      5   32.743675   -5.549187    0.000000
siesta:      6    0.135118   -2.585380    0.000000
siesta:      7   -4.623109  675.292643    0.000000
siesta:      8   34.353811  -10.892682    0.000000
siesta:      9    0.571157    2.599838    0.000000
siesta:     10    0.301956    2.225568    0.000000
siesta:     11  -19.574847  684.581339    0.000000
siesta:     12    1.704597   -1.378684    0.000000
siesta:     13    0.561374    1.116331    0.000000
siesta:     14   -0.405433    1.192425    0.000000
siesta:     15    2.542303   -0.884760    0.000000
siesta:     16   -0.018578    2.812200    0.000000
siesta:     17    1.476807   -3.704295    0.000000
siesta:     18    1.271052   -1.281135    0.000000
siesta:     19   -2.176162   -2.844998    0.000000
siesta:     20   -0.053007  547.999263    0.000000
siesta:     21    2.261372 -128.652191    0.000000
siesta:     22    0.462473  128.189999    0.000000
siesta:     23  -12.983227 -546.749378    0.000000
siesta:     24   -0.742548  120.242394    0.000000
siesta:     25   33.500313 -652.372170    0.000000
siesta:     26   25.090636    7.132687    0.000000
siesta:     27   36.065910 -655.915822    0.000000
siesta:     28   -1.135647   -2.752293    0.000000
siesta:     29  -26.392053    5.974583    0.000000
siesta:     30  -33.450469 -550.001544    0.000000
siesta:     31   19.363627  549.409935    0.000000
siesta:     32   -4.314057 -131.520582    0.000000
siesta:     33   -1.938159    0.391785    0.000000
siesta:     34    1.213511   -1.401229    0.000000
siesta:     35   -0.560044    0.198359    0.000000
siesta:     36    0.419555   -2.186421    0.000000
siesta:     37    0.356658    5.144397    0.000000
siesta:     38  -17.288645  548.686800    0.000000
siesta:     39    0.163051 -129.100745    0.000000
siesta:     40    4.507649  544.590567    0.000000
siesta:     41   -2.084533 -128.437381    0.000000
siesta:     42   -0.986872    0.650411    0.000000
siesta:     43    0.067522   -0.121739    0.000000
siesta:     44  -31.990264  550.142423    0.000000
siesta:     45  -27.197299   -4.818320    0.000000
siesta:     46  -23.437138  555.270054    0.000000
siesta:     47  -24.783653   -8.711528    0.000000
siesta:     48   -0.977888   -1.245346    0.000000
siesta:     49    2.212026   -1.299040    0.000000
siesta:     50   -1.202367    1.738446    0.000000
siesta:     51    0.857963    2.196015    0.000000
siesta:     52   -0.074082   -0.005567    0.000000
siesta:     53   -0.004635   -0.243924    0.000000
siesta:     54    0.846615    0.236147    0.000000
siesta:     55   -0.944511   -0.225372    0.000000
siesta:     56    0.081178   -0.433168    0.000000
siesta:     57   -1.651158   -0.199786    0.000000
siesta:     58    0.084623   -0.488725    0.000000
siesta:     59   -0.141758   -1.229797    0.000000
siesta:     60    1.477297 -565.268853    0.000000
siesta:     61   -0.302140    0.058026    0.000000
siesta:     62    0.965120   -2.524832    0.000000
siesta:     63   22.841326    7.952912    0.000000
siesta:     64   16.663451 -563.434079    0.000000
siesta:     65  -22.970065    6.745104    0.000000
siesta:     66  -21.423139 -557.806421    0.000000
siesta:     67   -2.215846   -0.024494    0.000000
siesta:     68    3.173310    2.056079    0.000000
siesta:     69    0.696538  126.889070    0.000000
siesta:     70    2.687762 -543.459938    0.000000
siesta:     71    3.921680  120.452029    0.000000
siesta:     72   12.022460 -645.734798    0.000000
siesta: ----------------------------------------
siesta:    Tot   -0.119676    0.044782    0.000000

siesta: Stress tensor (static) (eV/Ang**3):
siesta:    -0.438747    0.002085    0.000000
siesta:     0.002085   -1.875097    0.000000
siesta:     0.000000    0.000000   -0.000009

siesta: Cell volume =       1893.226884 Ang**3

siesta: Pressure (static):
siesta:                Solid            Molecule  Units
siesta:           0.00840027          0.13495525  Ry/Bohr**3
siesta:           0.77128452         12.39113207  eV/Ang**3
siesta:        1235.74739512      19852.99685281  kBar
(Free)E+ p_basis*V_orbitals  =      -12575.438332
(Free)Eharris+ p_basis*V_orbitals  =      -12575.429587

siesta: Electric dipole (a.u.)  =    0.000000    0.000000    0.000000
siesta: Electric dipole (Debye) =    0.000000    0.000000    0.000000

* Maximum dynamic memory allocated : Node    0 =   203 MB
* Maximum dynamic memory allocated : Node    1 =    72 MB
* Maximum dynamic memory allocated : Node    2 =    73 MB
* Maximum dynamic memory allocated : Node    3 =   193 MB
* Maximum dynamic memory allocated : Node    4 =   184 MB
* Maximum dynamic memory allocated : Node    5 =    71 MB
* Maximum dynamic memory allocated : Node    6 =    71 MB
* Maximum dynamic memory allocated : Node    7 =   169 MB

* Maximum memory occured during matrixMtoO                    

timer: CPU execution times:
timer:  Routine       Calls   Time/call    Tot.time        %
timer:  siesta            1  150993.790  150993.790   100.00
timer:  Setup             1       3.091       3.091     0.00
timer:  bands             3     269.400     808.201     0.54
timer:  writewave         1       0.020       0.020     0.00
timer:  KSV_init          1       0.000       0.000     0.00
timer:  IterMD            1  150176.610  150176.610    99.46
timer:  hsparse           1       0.231       0.231     0.00
timer:  overlap           1       7.699       7.699     0.01
timer:  IterSCF          37    4054.160  150003.913    99.34
timer:  kinefsm           2       3.958       7.916     0.01
timer:  nlefsm            2      18.758      37.516     0.02
timer:  DHSCF            38      89.744    3410.275     2.26
timer:  DHSCF1            1       0.766       0.766     0.00
timer:  DHSCF2            1      33.721      33.721     0.02
timer:  REORD           306       0.010       3.005     0.00
timer:  POISON           39       2.242      87.427     0.06
timer:  DHSCF3           38      87.987    3343.510     2.21
timer:  rhoofd           38      17.125     650.752     0.43
timer:  cellXC           38       3.432     130.419     0.09
timer:  vmat             38      42.113    1600.285     1.06
timer:  MolMec            2       0.000       0.000     0.00
timer:  diagon           37    3963.167  146637.184    97.11
timer:  c-eigval       8668       6.682   57923.859    38.36
timer:  c-buildHS      8668       0.112     968.335     0.64
timer:  cdiag         17215       6.867  118208.278    78.29
timer:  cdiag1        17215       0.428    7373.639     4.88
timer:  cdiag2        17215       1.916   32981.120    21.84
timer:  cdiag3        17215       3.954   68060.505    45.08
timer:  cdiag4        17215       0.203    3499.751     2.32
timer:  c-eigvec       8547       7.221   61721.576    40.88
timer:  c-buildD       8547       3.247   27753.205    18.38
timer:  DHSCF4            1      30.279      30.279     0.02
timer:  dfscf             1      28.482      28.482     0.02
timer:  overfsm           1       0.404       0.404     0.00
timer:  optical           1       5.137       5.137     0.00
  

elaps: ELAPSED times:
elaps:  Routine       Calls   Time/call    Tot.time        %
elaps:  siesta            1   18894.413   18894.413   100.00
elaps:  Setup             1       0.386       0.386     0.00
elaps:  bands             3      33.727     101.180     0.54
elaps:  writewave         1       0.002       0.002     0.00
elaps:  KSV_init          1       0.000       0.000     0.00
elaps:  IterMD            1   18792.169   18792.169    99.46
elaps:  hsparse           1       0.028       0.028     0.00
elaps:  overlap           1       0.965       0.965     0.01
elaps:  IterSCF          37     507.313   18770.564    99.34
elaps:  kinefsm           2       0.495       0.989     0.01
elaps:  nlefsm            2       2.363       4.725     0.03
elaps:  DHSCF            38      11.342     430.989     2.28
elaps:  DHSCF1            1       0.097       0.097     0.00
elaps:  DHSCF2            1       4.218       4.218     0.02
elaps:  REORD           306       0.001       0.397     0.00
elaps:  POISON           39       0.281      10.975     0.06
elaps:  DHSCF3           38      11.008     418.294     2.21
elaps:  rhoofd           38       4.896     186.041     0.98
elaps:  cellXC           38       0.429      16.292     0.09
elaps:  vmat             38       5.268     200.185     1.06
elaps:  MolMec            2       0.000       0.000     0.00
elaps:  diagon           37     495.926   18349.246    97.11
elaps:  c-eigval       8668       0.836    7247.373    38.36
elaps:  c-buildHS      8668       0.015     130.428     0.69
elaps:  cdiag         17215       0.861   14818.226    78.43
elaps:  cdiag1        17215       0.053     906.458     4.80
elaps:  cdiag2        17215       0.240    4126.700    21.84
elaps:  cdiag3        17215       0.495    8527.418    45.13
elaps:  cdiag4        17215       0.026     447.825     2.37
elaps:  c-eigvec       8547       0.910    7780.842    41.18
elaps:  c-buildD       8547       0.400    3414.923    18.07
elaps:  DHSCF4            1       8.105       8.105     0.04
elaps:  dfscf             1       7.716       7.716     0.04
elaps:  overfsm           1       0.049       0.049     0.00
elaps:  optical           1       0.000       0.000     0.00
  
>> End of run:   1-MAY-2016  16:09:51
