Siesta Version:                                        siesta-3.2-pl-3
Architecture  : x86_64-unknown-linux-gnu--unknown
Compiler flags: mpiifort -g -O2 -fPIC -xSSE4.1 -fp-model source -shared-intel 
PARALLEL version

* Running on    8 nodes in parallel
>> Start of run:   8-MAY-2016  21:17:39

                           ***********************       
                           *  WELCOME TO SIESTA  *       
                           ***********************       

reinit: Reading from standard input
************************** Dump of input data file ****************************
#(1) General system descriptors
SystemName            GRP_doping    # Descriptive name of the system
SystemLabel           GRP_doping    # Short name for naming files
%include STRUCT.fdf
%include KPT.fdf
%include BASIS.fdf
#%include TS.fdf # for transiesta calculation
#(4) DFT, Grid, SCF
XC.functional         GGA           # LDA or GGA (default = LDA)
XC.authors            PBE           # CA (Ceperley-Aldr) = PZ
                                    #    (Perdew-Zunger) - LDA - Default
                                    # PW92 (Perdew-Wang-92) - LDA
                                    # PBE (Perdew-Burke-Ernzerhof) - GGA
MeshCutoff            200.000000    Ry      # Default: 50.0 Ry ~ 0.444 Bohr
                                    #         100.0 Ry ~ 0.314 Bohr
MaxSCFIterations      500           # Default: 50
DM.MixingWeight       0.05          # Default: 0.25
DM.NumberPulay        10            # Default: 0
DM.PulayOnFile        F             # SystemLabel.P1, SystemLabel.P2
DM.Tolerance          1.d-4         # Default: 1.d-4
DM.UseSaveDM          .true.        # because of the bug
SCFMustConverge       .true.
NeglNonOverlapInt     F             # Default: F
#(5) Eigenvalue problem: order-N or diagonalization
SolutionMethod        Diagon        # or Transiesta
ElectronicTemperature 300.0 K       # Default: 300.0 K
#(6) Molecular dynamics and relaxations
#MD.TypeOfRun          CG            # Type of dynamics:
#MD.VariableCell       F
#MD.NumCGsteps         0           # 0 for single-point / 100 for gopt
#MD.MaxCGDispl         0.2 Bohr      # Default: 0.2 Bohr
#MD.MaxForceTol        0.02 eV/Ang   # Default: 0.04 eV/Ang
#MD.MaxStressTol       1.0 GPa       # Default: 1.0 GPa
# Geometry Constraints
#%block GeometryConstraints
#	position from 1 to 44
#%endblock GeometryConstraints
BandLinesScale   pi/a
%block BandLines
 1   0.00000000  0.00000000  0.00000000
50   0.00000000  0.07809418  0.00000000
50   0.04509075  0.07809242  0.00000000
20   0.00000000  0.00000000  0.00000000
%endblock BandLines
************************** End of input data file *****************************

reinit: -----------------------------------------------------------------------
reinit: System Name: GRP_doping
reinit: -----------------------------------------------------------------------
reinit: System Label: GRP_doping                                                  
reinit: -----------------------------------------------------------------------

initatom: Reading input for the pseudopotentials and atomic orbitals ----------
 Species number:            1  Label: B Atomic number:           5
 Species number:            2  Label: C Atomic number:           6
Ground state valence configuration:   2s02  2p01
Reading pseudopotential information in formatted form from B.psf

Valence configuration for pseudopotential generation:
2s( 2.00) rc: 1.74
2p( 1.00) rc: 1.74
3d( 0.00) rc: 1.74
4f( 0.00) rc: 1.74
Ground state valence configuration:   2s02  2p02
Reading pseudopotential information in formatted form from C.psf

Valence configuration for pseudopotential generation:
2s( 2.00) rc: 1.54
2p( 2.00) rc: 1.54
3d( 0.00) rc: 1.54
4f( 0.00) rc: 1.54
For B, standard SIESTA heuristics set lmxkb to 3
 (one more than the basis l, including polarization orbitals).
Use PS.lmax or PS.KBprojectors blocks to override.
For C, standard SIESTA heuristics set lmxkb to 3
 (one more than the basis l, including polarization orbitals).
Use PS.lmax or PS.KBprojectors blocks to override.

<basis_specs>
===============================================================================
B                    Z=   5    Mass=  10.810        Charge= 0.17977+309
Lmxo=1 Lmxkb= 3    BasisType=split      Semic=F
L=0  Nsemic=0  Cnfigmx=2
          n=1  nzeta=2  polorb=0
            splnorm:   0.15000    
               vcte:    0.0000    
               rinn:    0.0000    
                rcs:    0.0000      0.0000    
            lambdas:    1.0000      1.0000    
L=1  Nsemic=0  Cnfigmx=2
          n=1  nzeta=2  polorb=1
            splnorm:   0.15000    
               vcte:    0.0000    
               rinn:    0.0000    
                rcs:    0.0000      0.0000    
            lambdas:    1.0000      1.0000    
-------------------------------------------------------------------------------
L=0  Nkbl=1  erefs: 0.17977+309
L=1  Nkbl=1  erefs: 0.17977+309
L=2  Nkbl=1  erefs: 0.17977+309
L=3  Nkbl=1  erefs: 0.17977+309
===============================================================================
</basis_specs>

atom: Called for B                     (Z =   5)

read_vps: Pseudopotential generation method:
read_vps: ATM3      Troullier-Martins                       
Total valence charge:    3.00000

read_vps: Pseudopotential includes a core correction:
read_vps: Pseudo-core for xc-correction

xc_check: Exchange-correlation functional:
xc_check: GGA Perdew, Burke & Ernzerhof 1996
V l=0 = -2*Zval/r beyond r=  1.7165
V l=1 = -2*Zval/r beyond r=  1.7165
V l=2 = -2*Zval/r beyond r=  1.7165
V l=3 = -2*Zval/r beyond r=  1.6951
All V_l potentials equal beyond r=  1.7165
This should be close to max(r_c) in ps generation
All pots = -2*Zval/r beyond r=  1.7165

VLOCAL1: 99.0% of the norm of Vloc inside     14.733 Ry
VLOCAL1: 99.9% of the norm of Vloc inside     33.577 Ry
atom: Maximum radius for 4*pi*r*r*local-pseudopot. charge    2.04484
atom: Maximum radius for r*vlocal+2*Zval:    1.75994
GHOST: No ghost state for L =  0
GHOST: No ghost state for L =  1
GHOST: No ghost state for L =  2
GHOST: No ghost state for L =  3

KBgen: Kleinman-Bylander projectors: 
   l= 0   rc=  1.897051   el= -0.693730   Ekb=  4.595746   kbcos=  0.286105
   l= 1   rc=  1.920920   el= -0.265236   Ekb= -2.350715   kbcos= -0.315747
   l= 2   rc=  2.044840   el=  0.002055   Ekb= -0.690767   kbcos= -0.013822
   l= 3   rc=  2.149707   el=  0.003188   Ekb= -0.315358   kbcos= -0.002055

KBgen: Total number of  Kleinman-Bylander projectors:   16
atom: -------------------------------------------------------------------------

atom: SANKEY-TYPE ORBITALS:
atom: Selected multiple-zeta basis: split     

SPLIT: Orbitals with angular momentum L= 0

SPLIT: Basis orbitals for state 2s

SPLIT: PAO cut-off radius determined from an
SPLIT: energy shift=  0.007350 Ry

   izeta = 1
                 lambda =    1.000000
                     rc =    5.422032
                 energy =   -0.686029
                kinetic =    0.576707
    potential(screened) =   -1.262736
       potential(ionic) =   -3.271094

   izeta = 2
                 rmatch =    4.222573
              splitnorm =    0.150000
                 energy =   -0.602132
                kinetic =    0.858975
    potential(screened) =   -1.461107
       potential(ionic) =   -3.582536

SPLIT: Orbitals with angular momentum L= 1

SPLIT: Basis orbitals for state 2p

SPLIT: PAO cut-off radius determined from an
SPLIT: energy shift=  0.007350 Ry

   izeta = 1
                 lambda =    1.000000
                     rc =    6.790259
                 energy =   -0.258578
                kinetic =    1.481412
    potential(screened) =   -1.739989
       potential(ionic) =   -3.657461

   izeta = 2
                 rmatch =    4.608740
              splitnorm =    0.150000
                 energy =   -0.173757
                kinetic =    2.186690
    potential(screened) =   -2.360447
       potential(ionic) =   -4.464260

POLgen: Perturbative polarization orbital with L=  2

POLgen: Polarization orbital for state 2p

   izeta = 1
                     rc =    6.790259
                 energy =    0.684082
                kinetic =    1.471481
    potential(screened) =   -0.787399
       potential(ionic) =   -2.406985
atom: Total number of Sankey-type orbitals: 13

atm_pop: Valence configuration (for local Pseudopot. screening):
 2s( 2.00)                                                            
 2p( 1.00)                                                            
Vna: chval, zval:    3.00000   3.00000

Vna:  Cut-off radius for the neutral-atom potential:   6.790259
comcore: Pseudo-core radius Rcore=  2.122997

atom: _________________________________________________________________________

<basis_specs>
===============================================================================
C                    Z=   6    Mass=  12.010        Charge= 0.17977+309
Lmxo=1 Lmxkb= 3    BasisType=split      Semic=F
L=0  Nsemic=0  Cnfigmx=2
          n=1  nzeta=2  polorb=0
            splnorm:   0.15000    
               vcte:    0.0000    
               rinn:    0.0000    
                rcs:    0.0000      0.0000    
            lambdas:    1.0000      1.0000    
L=1  Nsemic=0  Cnfigmx=2
          n=1  nzeta=2  polorb=1
            splnorm:   0.15000    
               vcte:    0.0000    
               rinn:    0.0000    
                rcs:    0.0000      0.0000    
            lambdas:    1.0000      1.0000    
-------------------------------------------------------------------------------
L=0  Nkbl=1  erefs: 0.17977+309
L=1  Nkbl=1  erefs: 0.17977+309
L=2  Nkbl=1  erefs: 0.17977+309
L=3  Nkbl=1  erefs: 0.17977+309
===============================================================================
</basis_specs>

atom: Called for C                     (Z =   6)

read_vps: Pseudopotential generation method:
read_vps: ATM3      Troullier-Martins                       
Total valence charge:    4.00000

read_vps: Pseudopotential includes a core correction:
read_vps: Pseudo-core for xc-correction

xc_check: Exchange-correlation functional:
xc_check: GGA Perdew, Burke & Ernzerhof 1996
V l=0 = -2*Zval/r beyond r=  1.5227
V l=1 = -2*Zval/r beyond r=  1.5227
V l=2 = -2*Zval/r beyond r=  1.5227
V l=3 = -2*Zval/r beyond r=  1.5038
All V_l potentials equal beyond r=  1.5227
This should be close to max(r_c) in ps generation
All pots = -2*Zval/r beyond r=  1.5227

VLOCAL1: 99.0% of the norm of Vloc inside     18.722 Ry
VLOCAL1: 99.9% of the norm of Vloc inside     42.668 Ry
atom: Maximum radius for 4*pi*r*r*local-pseudopot. charge    1.83678
atom: Maximum radius for r*vlocal+2*Zval:    1.58088
GHOST: No ghost state for L =  0
GHOST: No ghost state for L =  1
GHOST: No ghost state for L =  2
GHOST: No ghost state for L =  3

KBgen: Kleinman-Bylander projectors: 
   l= 0   rc=  1.704034   el= -1.009801   Ekb=  5.335044   kbcos=  0.316824
   l= 1   rc=  1.704034   el= -0.388707   Ekb= -3.785862   kbcos= -0.366464
   l= 2   rc=  1.791422   el=  0.001971   Ekb= -0.970471   kbcos= -0.009212
   l= 3   rc=  1.859892   el=  0.003065   Ekb= -0.399525   kbcos= -0.001223

KBgen: Total number of  Kleinman-Bylander projectors:   16
atom: -------------------------------------------------------------------------

atom: SANKEY-TYPE ORBITALS:
atom: Selected multiple-zeta basis: split     

SPLIT: Orbitals with angular momentum L= 0

SPLIT: Basis orbitals for state 2s

SPLIT: PAO cut-off radius determined from an
SPLIT: energy shift=  0.007350 Ry

   izeta = 1
                 lambda =    1.000000
                     rc =    4.632753
                 energy =   -1.002270
                kinetic =    0.855760
    potential(screened) =   -1.858031
       potential(ionic) =   -5.417575

   izeta = 2
                 rmatch =    3.431921
              splitnorm =    0.150000
                 energy =   -0.867111
                kinetic =    1.300804
    potential(screened) =   -2.167915
       potential(ionic) =   -5.962684

SPLIT: Orbitals with angular momentum L= 1

SPLIT: Basis orbitals for state 2p

SPLIT: PAO cut-off radius determined from an
SPLIT: energy shift=  0.007350 Ry

   izeta = 1
                 lambda =    1.000000
                     rc =    5.658549
                 energy =   -0.381140
                kinetic =    2.399701
    potential(screened) =   -2.780841
       potential(ionic) =   -6.206085

   izeta = 2
                 rmatch =    3.653288
              splitnorm =    0.150000
                 energy =   -0.249149
                kinetic =    3.542762
    potential(screened) =   -3.791911
       potential(ionic) =   -7.581078

POLgen: Perturbative polarization orbital with L=  2

POLgen: Polarization orbital for state 2p

   izeta = 1
                     rc =    5.658549
                 energy =    1.109913
                kinetic =    2.304789
    potential(screened) =   -1.194876
       potential(ionic) =   -4.013592
atom: Total number of Sankey-type orbitals: 13

atm_pop: Valence configuration (for local Pseudopot. screening):
 2s( 2.00)                                                            
 2p( 2.00)                                                            
Vna: chval, zval:    4.00000   4.00000

Vna:  Cut-off radius for the neutral-atom potential:   5.658549
comcore: Pseudo-core radius Rcore=  1.791422

atom: _________________________________________________________________________

prinput: Basis input ----------------------------------------------------------

PAO.BasisType split     

%block ChemicalSpeciesLabel
    1    5 B                       # Species index, atomic number, species label
    2    6 C                       # Species index, atomic number, species label
%endblock ChemicalSpeciesLabel

%block PAO.Basis                 # Define Basis set
B                     2                    # Species label, number of l-shells
 n=2   0   2                         # n, l, Nzeta 
   5.422      4.223   
   1.000      1.000   
 n=2   1   2 P   1                   # n, l, Nzeta, Polarization, NzetaPol
   6.790      4.609   
   1.000      1.000   
C                     2                    # Species label, number of l-shells
 n=2   0   2                         # n, l, Nzeta 
   4.633      3.432   
   1.000      1.000   
 n=2   1   2 P   1                   # n, l, Nzeta, Polarization, NzetaPol
   5.659      3.653   
   1.000      1.000   
%endblock PAO.Basis

prinput: ----------------------------------------------------------------------

coor:   Atomic-coordinates input format  =     Fractional

siesta: Atomic coordinates (Bohr) and species
siesta:     -4.68258  34.85847   0.00000  1        1
siesta:      4.63094  18.72698   0.00000  1        2
siesta:     -2.35420  17.38257   0.00000  1        3
siesta:     -0.02582  21.41544   0.00000  1        4
siesta:      2.30256  25.44831   0.00000  1        5
siesta:     -4.68258  18.72698   0.00000  1        6
siesta:     -2.35420  22.75985   0.00000  1        7
siesta:     -7.01096  25.44831   0.00000  1        8
siesta:     -9.33934  26.79272   0.00000  1        9
siesta:      4.63094  29.48119   0.00000  1       10
siesta:     -0.02582  26.79272   0.00000  1       11
siesta:     -4.68258  29.48119   0.00000  1       12
siesta:      2.30256  30.82560   0.00000  1       13
siesta:     -2.35420  33.51406   0.00000  1       14
siesta:     -7.01096  30.82560   0.00000  1       15
siesta:     -0.02582   2.59549   0.00000  2       16
siesta:     -0.02582   5.28395   0.00000  2       17
siesta:     -2.35420  38.89134   0.00000  2       18
siesta:     -2.35420  41.57980   0.00000  2       19
siesta:      2.30256  38.89134   0.00000  2       20
siesta:      2.30256  41.57980   0.00000  2       21
siesta:      4.63094  34.85847   0.00000  2       22
siesta:      4.63094  37.54693   0.00000  2       23
siesta:      6.95932  30.82560   0.00000  2       24
siesta:      6.95932  33.51406   0.00000  2       25
siesta:      9.28770  26.79272   0.00000  2       26
siesta:      9.28770  29.48119   0.00000  2       27
siesta:     -4.68258  37.54693   0.00000  2       28
siesta:      2.30256   6.62836   0.00000  2       29
siesta:      2.30256   9.31683   0.00000  2       30
siesta:      4.63094  10.66124   0.00000  2       31
siesta:      4.63094  13.34970   0.00000  2       32
siesta:      6.95932  14.69411   0.00000  2       33
siesta:      6.95932  17.38257   0.00000  2       34
siesta:      9.28770  18.72698   0.00000  2       35
siesta:      9.28770  21.41544   0.00000  2       36
siesta:     11.61608  22.75985   0.00000  2       37
siesta:     11.61608  25.44831   0.00000  2       38
siesta:     -2.35420   6.62836   0.00000  2       39
siesta:     -2.35420   9.31683   0.00000  2       40
siesta:     -0.02582  10.66124   0.00000  2       41
siesta:     -0.02582  13.34970   0.00000  2       42
siesta:      2.30256  14.69411   0.00000  2       43
siesta:      2.30256  17.38257   0.00000  2       44
siesta:      4.63094  21.41544   0.00000  2       45
siesta:      6.95932  22.75985   0.00000  2       46
siesta:      6.95932  25.44831   0.00000  2       47
siesta:     -4.68258  10.66124   0.00000  2       48
siesta:     -4.68258  13.34970   0.00000  2       49
siesta:     -2.35420  14.69411   0.00000  2       50
siesta:     -0.02582  18.72698   0.00000  2       51
siesta:      2.30256  22.75985   0.00000  2       52
siesta:     -7.01096  14.69411   0.00000  2       53
siesta:     -7.01096  17.38257   0.00000  2       54
siesta:     -4.68258  21.41544   0.00000  2       55
siesta:     -2.35420  25.44831   0.00000  2       56
siesta:     -9.33934  18.72698   0.00000  2       57
siesta:     -9.33934  21.41544   0.00000  2       58
siesta:     -7.01096  22.75985   0.00000  2       59
siesta:    -11.66772  22.75985   0.00000  2       60
siesta:    -11.66772  25.44831   0.00000  2       61
siesta:     -9.33934  29.48119   0.00000  2       62
siesta:      4.63094  26.79272   0.00000  2       63
siesta:     -0.02582  29.48119   0.00000  2       64
siesta:     -4.68258  26.79272   0.00000  2       65
siesta:      2.30256  33.51406   0.00000  2       66
siesta:     -2.35420  30.82560   0.00000  2       67
siesta:     -7.01096  33.51406   0.00000  2       68
siesta:     -0.02582  34.85847   0.00000  2       69
siesta:     -0.02582  37.54693   0.00000  2       70
siesta:     -0.02582  42.92421   0.00000  2       71
siesta:     -0.02582  45.61267   0.00000  2       72

siesta: System type = slab      

initatomlists: Number of atoms, orbitals, and projectors:     72   936  1152

siesta: ******************** Simulation parameters ****************************
siesta:
siesta: The following are some of the parameters of the simulation.
siesta: A complete list of the parameters used, including default values,
siesta: can be found in file out.fdf
siesta:
redata: Non-Collinear-spin run           =     F
redata: SpinPolarized (Up/Down) run      =     F
redata: Number of spin components        =     1
redata: Long output                      =     F
redata: Number of Atomic Species         =        2
redata: Charge density info will appear in .RHO file
redata: Write Mulliken Pop.              =     NO
redata: Mesh Cutoff                      =   200.0000  Ry
redata: Net charge of the system         =     0.0000 |e|
redata: Max. number of SCF Iter          =      500
redata: SCF convergence failure will abort job
redata: Performing Pulay mixing using    =    10 iterations
redata: Mix DM in first SCF step ?       =     F
redata: Write Pulay info on disk?        =     F
redata: Discard 1st Pulay DM after  kick =     F
redata: New DM Mixing Weight             =     0.0500
redata: New DM Occupancy tolerance       = 0.000000000001
redata: No kicks to SCF
redata: DM Mixing Weight for Kicks       =     0.5000
redata: DM Tolerance for SCF             =     0.000100
redata: Require Energy convergence for SCF =     F
redata: DM Energy tolerance for SCF      =     0.000100 eV
redata: Require Harris convergence for SCF =     F
redata: DM Harris energy tolerance for SCF =     0.000100 eV
redata: Using Saved Data (generic)   =     F
redata: Use continuation files for DM    =     T
redata: Neglect nonoverlap interactions  =     F
redata: Method of Calculation            =     Diagonalization
redata: Divide and Conquer               =     T
redata: Electronic Temperature           =     0.0019  Ry
redata: Fix the spin of the system       =     F
redata: Dynamics option                  =     Verlet MD run
redata: Initial MD time step             =        1
redata:   Final MD time step             =        1
redata: Length of MD time step           =     1.0000  fs
redata: Initial Temperature of MD run    =     0.0000  K
redata: Perform a MD quench              =     F
redata: ***********************************************************************
Total number of electrons:   273.000000
Total ionic charge:   273.000000

* ProcessorY, Blocksize:    2  24

k-point displ. along   1 input, could be:     0.50    0.00
k-point displ. along   2 input, could be:     0.50    0.00
 Kpoints in:          231 . Kpoints trimmed:          231

siesta: k-grid: Number of k-points =   231
siesta: k-grid: Cutoff (effective) =     5.000 Ang
siesta: k-grid: Supercell and displacements
siesta: k-grid:   21   0   0      0.500
siesta: k-grid:    0  21   0      0.500
siesta: k-grid:    0   0   1      0.000
Naive supercell factors:     2    2    2

superc: Internal auxiliary supercell:     2 x     2 x     2  =       8
superc: Number of atoms, orbitals, and projectors:    576   7488   9216

* Maximum dynamic memory allocated =     4 MB

siesta:                 ==============================
                            Begin MD step =      1
                        ==============================

superc: Internal auxiliary supercell:     2 x     2 x     2  =       8
superc: Number of atoms, orbitals, and projectors:    576   7488   9216

outcell: Unit cell vectors (Ang):
       12.804619    7.392750    0.000000
        0.000000   14.785500    0.000000
        0.000000    0.000000   10.000000

outcell: Cell vector modules (Ang)   :   14.785500   14.785500   10.000000
outcell: Cell angles (23,13,12) (deg):     90.0000     90.0000     60.0000
outcell: Cell volume (Ang**3)        :   1893.2269
New_DM. Step:     1
Initializing Density Matrix...

InitMesh: MESH =   120 x   120 x    90 =     1296000
InitMesh: Mesh cutoff (required, used) =   200.000   223.865 Ry

* Maximum dynamic memory allocated =   218 MB

stepf: Fermi-Dirac step function

siesta: Program's energy decomposition (eV):
siesta: Ebs     =     -5667.242970
siesta: Eions   =     16482.160403
siesta: Ena     =      4366.021145
siesta: Ekin    =      5587.107004
siesta: Enl     =       759.939590
siesta: DEna    =        -0.000010
siesta: DUscf   =         0.000000
siesta: DUext   =         0.000000
siesta: Exc     =     -4197.651211
siesta: eta*DQ  =         0.000000
siesta: Emadel  =         0.000000
siesta: Emeta   =         0.000000
siesta: Emolmec =         0.000000
siesta: Ekinion =         0.000000
siesta: Eharris =     -9675.681858
siesta: Etot    =     -9966.743885
siesta: FreeEng =     -9966.743885

siesta: iscf   Eharris(eV)      E_KS(eV)   FreeEng(eV)   dDmax  Ef(eV)
siesta:    1    -9675.6819    -9966.7439    -9966.7439  6.9031 -8.2878
timer: Routine,Calls,Time,% = IterSCF        1    4479.075  99.74
elaps: Routine,Calls,Wall,% = IterSCF        1     560.581  99.74
siesta:    2   -13361.5160    -9065.2421    -9065.2861 20.8153 -1.8102
siesta:    3    -9605.7311    -9832.5599    -9832.5981  3.9878 -7.3208
siesta:    4    -9578.4511    -9668.2802    -9668.3152  1.3761 -5.9273
siesta:    5    -9546.1930    -9612.0042    -9612.0507  0.8271 -5.7039
siesta:    6    -9532.8160    -9569.8495    -9569.8833  0.7120 -5.3454
siesta:    7    -9529.4330    -9562.8811    -9562.9300  0.6600 -5.2844
siesta:    8    -9526.5183    -9552.7276    -9552.7827  0.5728 -5.2613
siesta:    9    -9525.1832    -9543.7547    -9543.8047  0.5031 -5.2082
siesta:   10    -9526.9711    -9521.6340    -9521.6835  0.3532 -5.1037
siesta:   11    -9525.0212    -9515.4804    -9515.5232  0.2506 -5.0777
siesta:   12    -9525.0897    -9504.3519    -9504.3974  0.1819 -5.0435
siesta:   13    -9524.6473    -9500.5163    -9500.5648  0.1587 -5.0317
siesta:   14    -9524.2933    -9504.4931    -9504.5383  0.1383 -5.0624
siesta:   15    -9523.8639    -9507.9477    -9507.9976  0.0982 -5.1017
siesta:   16    -9523.5236    -9510.9946    -9511.0535  0.0922 -5.1088
siesta:   17    -9523.4840    -9513.9700    -9514.0173  0.0632 -5.1205
siesta:   18    -9523.4497    -9514.9895    -9515.0399  0.0532 -5.1205
siesta:   19    -9523.4296    -9518.9136    -9518.9644  0.0303 -5.1273
siesta:   20    -9522.3893    -9521.5275    -9521.5779  0.5775 -5.1334
siesta:   21    -9523.4297    -9521.7326    -9521.7842  0.0252 -5.1320
siesta:   22    -9523.4234    -9522.1612    -9522.2128  0.0188 -5.1287
siesta:   23    -9523.4196    -9522.1124    -9522.1635  0.0155 -5.1235
siesta:   24    -9523.4172    -9522.3439    -9522.3960  0.0155 -5.1220
siesta:   25    -9523.4147    -9523.2859    -9523.3375  0.0097 -5.1249
siesta:   26    -9523.4141    -9523.6537    -9523.7066  0.0074 -5.1259
siesta:   27    -9523.4134    -9523.7457    -9523.7983  0.0048 -5.1251
siesta:   28    -9523.4135    -9523.6612    -9523.7136  0.0030 -5.1250
siesta:   29    -9523.4134    -9523.6037    -9523.6558  0.0020 -5.1253
siesta:   30    -9523.4133    -9523.4982    -9523.5504  0.0016 -5.1255
siesta:   31    -9523.4132    -9523.4433    -9523.4955  0.0014 -5.1257
siesta:   32    -9523.4132    -9523.4652    -9523.5175  0.0009 -5.1259
siesta:   33    -9523.4132    -9523.4722    -9523.5245  0.0008 -5.1259
siesta:   34    -9523.4132    -9523.4562    -9523.5085  0.0005 -5.1259
siesta:   35    -9523.4132    -9523.4283    -9523.4806  0.0003 -5.1258
siesta:   36    -9523.4132    -9523.4216    -9523.4739  0.0002 -5.1258
siesta:   37    -9523.4132    -9523.4213    -9523.4736  0.0001 -5.1258
siesta:   38    -9523.4132    -9523.4166    -9523.4689  0.0001 -5.1258

siesta: E_KS(eV) =            -9523.4129

siesta: E_KS - E_eggbox =     -9523.4129

siesta: Atomic forces (eV/Ang):
----------------------------------------
   Tot   -0.058503    0.057571    0.000000
----------------------------------------
   Max  556.716675
   Res  157.182038    sqrt( Sum f_i^2 / 3N )
----------------------------------------
   Max  556.716675    constrained

Stress-tensor-Voigt (kbar):     -811.73    -2830.07       -0.57       -3.67        0.00        0.00
(Free)E + p*V (eV/cell)    -8088.8017
Target enthalpy (eV/cell)    -9523.4652

siesta: Stress tensor (static) (eV/Ang**3):
        -0.506634   -0.002293    0.000000
        -0.002293   -1.766371    0.000000
         0.000000    0.000000   -0.000358

siesta: Pressure (static):       1214.12242304  kBar

siesta: Stress tensor (total) (eV/Ang**3):
        -0.506634   -0.002293    0.000000
        -0.002293   -1.766371    0.000000
         0.000000    0.000000   -0.000358

siesta: Pressure (total):       1214.12242304  kBar

siesta: Temp_ion =       0.000 K

* Maximum dynamic memory allocated =   234 MB
Computing bands...

siesta: Program's energy decomposition (eV):
siesta: Ebs     =     -4273.129910
siesta: Eions   =     16482.160403
siesta: Ena     =      4366.021145
siesta: Ekin    =      8548.700709
siesta: Enl     =      -867.294651
siesta: DEna    =      -822.210268
siesta: DUscf   =       109.980966
siesta: DUext   =         0.000000
siesta: Exc     =     -4376.450394
siesta: eta*DQ  =         0.000000
siesta: Emadel  =         0.000000
siesta: Emeta   =         0.000000
siesta: Emolmec =         0.000000
siesta: Ekinion =         0.000000
siesta: Eharris =     -9523.413238
siesta: Etot    =     -9523.412894
siesta: FreeEng =     -9523.465198

siesta: Final energy (eV):
siesta:  Band Struct. =   -4273.129910
siesta:       Kinetic =    8548.700709
siesta:       Hartree =   27872.762625
siesta:    Ext. field =       0.000000
siesta:   Exch.-corr. =   -4376.450394
siesta:  Ion-electron =  -63981.791024
siesta:       Ion-ion =   22413.365188
siesta:       Ekinion =       0.000000
siesta:         Total =   -9523.412894

siesta: Atomic forces (eV/Ang):
siesta:      1  -22.266034    0.956672    0.000000
siesta:      2   -1.498955    0.274626    0.000000
siesta:      3  -14.887586   -4.894604    0.000000
siesta:      4    4.130241   -1.481545    0.000000
siesta:      5    4.148474   -1.626476    0.000000
siesta:      6   -1.796137    1.644662    0.000000
siesta:      7   -3.980327    1.404164    0.000000
siesta:      8    4.414851   -2.215912    0.000000
siesta:      9   -8.727955    5.521816    0.000000
siesta:     10    1.982808   -2.264157    0.000000
siesta:     11   -3.969835    1.359992    0.000000
siesta:     12    5.791945   -2.372311    0.000000
siesta:     13   15.090011    5.729528    0.000000
siesta:     14  -23.923336 -405.225245    0.000000
siesta:     15   -8.784817    5.714015    0.000000
siesta:     16   -0.920533  549.816191    0.000000
siesta:     17    0.552448 -131.566831    0.000000
siesta:     18    0.712896  126.270382    0.000000
siesta:     19  -18.549623 -552.555159    0.000000
siesta:     20   -1.935611  126.513228    0.000000
siesta:     21   15.461655 -547.056426    0.000000
siesta:     22   26.003920    2.944943    0.000000
siesta:     23   30.849269 -549.412113    0.000000
siesta:     24    7.038790    2.334879    0.000000
siesta:     25   -2.857396    1.836639    0.000000
siesta:     26    2.849193    1.484775    0.000000
siesta:     27   -1.813280    0.656808    0.000000
siesta:     28  -27.597519 -548.394735    0.000000
siesta:     29   18.509707  552.340982    0.000000
siesta:     30   -1.737443 -127.359427    0.000000
siesta:     31   34.304653  550.401327    0.000000
siesta:     32   27.190886   -5.244129    0.000000
siesta:     33   -3.107748   -1.623844    0.000000
siesta:     34    6.698631   -2.163735    0.000000
siesta:     35   -1.801412   -0.274208    0.000000
siesta:     36    2.389284   -1.778097    0.000000
siesta:     37    0.078572    6.355310    0.000000
siesta:     38   -0.503599   -6.343453    0.000000
siesta:     39  -15.151733  403.224967    0.000000
siesta:     40   -1.385948 -125.837029    0.000000
siesta:     41    2.295405  547.699803    0.000000
siesta:     42   -1.015351 -128.087185    0.000000
siesta:     43   25.216210  555.725299    0.000000
siesta:     44   19.167680   -5.932376    0.000000
siesta:     45   -0.235605    3.842092    0.000000
siesta:     46   -0.324589    0.845132    0.000000
siesta:     47   -0.491310   -0.763132    0.000000
siesta:     48  -36.094125  555.016641    0.000000
siesta:     49  -26.947090   -5.221354    0.000000
siesta:     50  -22.142608  553.967109    0.000000
siesta:     51   -2.071262  556.716675    0.000000
siesta:     52    3.392142   -2.498744    0.000000
siesta:     53    2.847694   -1.596586    0.000000
siesta:     54   -6.883788   -2.258059    0.000000
siesta:     55   -3.486001    1.911990    0.000000
siesta:     56   -3.089620    3.032553    0.000000
siesta:     57    1.739286   -0.177317    0.000000
siesta:     58   -2.090432   -2.063416    0.000000
siesta:     59    0.752152   -3.664782    0.000000
siesta:     60   -0.647088    7.276826    0.000000
siesta:     61   -2.670656   -9.845683    0.000000
siesta:     62    0.463485   -0.626811    0.000000
siesta:     63    3.045196   -1.641407    0.000000
siesta:     64   -0.624863 -556.182470    0.000000
siesta:     65    3.329047   -2.254274    0.000000
siesta:     66   27.289425 -553.186796    0.000000
siesta:     67  -19.417777    4.893572    0.000000
siesta:     68    1.124585    2.088607    0.000000
siesta:     69   -5.228086  119.141092    0.000000
siesta:     70    0.267333 -546.297835    0.000000
siesta:     71   -2.380709  132.971803    0.000000
siesta:     72    3.851411 -549.869863    0.000000
siesta: ----------------------------------------
siesta:    Tot   -0.058503    0.057571    0.000000

siesta: Stress tensor (static) (eV/Ang**3):
siesta:    -0.506634   -0.002293    0.000000
siesta:    -0.002293   -1.766371    0.000000
siesta:     0.000000    0.000000   -0.000358

siesta: Cell volume =       1893.226884 Ang**3

siesta: Pressure (static):
siesta:                Solid            Molecule  Units
siesta:           0.00825327          0.12185937  Ry/Bohr**3
siesta:           0.75778742         11.18871322  eV/Ang**3
siesta:        1214.12242304      17926.48864924  kBar
(Free)E+ p_basis*V_orbitals  =       -9487.988279
(Free)Eharris+ p_basis*V_orbitals  =       -9487.984882

siesta: Electric dipole (a.u.)  =    0.000000    0.000000    0.000000
siesta: Electric dipole (Debye) =    0.000000    0.000000    0.000000

* Maximum dynamic memory allocated : Node    0 =   234 MB
* Maximum dynamic memory allocated : Node    1 =    82 MB
* Maximum dynamic memory allocated : Node    2 =    84 MB
* Maximum dynamic memory allocated : Node    3 =   222 MB
* Maximum dynamic memory allocated : Node    4 =   219 MB
* Maximum dynamic memory allocated : Node    5 =    80 MB
* Maximum dynamic memory allocated : Node    6 =    83 MB
* Maximum dynamic memory allocated : Node    7 =   203 MB

* Maximum memory occured during matrixMtoO                    

timer: CPU execution times:
timer:  Routine       Calls   Time/call    Tot.time        %
timer:  siesta            1  167235.113  167235.113   100.00
timer:  Setup             1       3.054       3.054     0.00
timer:  bands             3     271.292     813.876     0.49
timer:  writewave         1       0.022       0.022     0.00
timer:  KSV_init          1       0.000       0.000     0.00
timer:  IterMD            1  166412.304  166412.304    99.51
timer:  hsparse           1       0.405       0.405     0.00
timer:  overlap           1       7.779       7.779     0.00
timer:  IterSCF          38    4373.482  166192.300    99.38
timer:  kinefsm           2       4.026       8.053     0.00
timer:  nlefsm            2      20.791      41.583     0.02
timer:  DHSCF            39     118.307    4613.981     2.76
timer:  DHSCF1            1       0.993       0.993     0.00
timer:  DHSCF2            1      46.499      46.499     0.03
timer:  REORD           314       0.010       3.244     0.00
timer:  POISON           40       2.367      94.683     0.06
timer:  DHSCF3           39     115.979    4523.199     2.70
timer:  rhoofd           39      24.300     947.716     0.57
timer:  cellXC           39       3.493     136.214     0.08
timer:  vmat             39      56.415    2200.180     1.32
timer:  MolMec            2       0.000       0.000     0.00
timer:  diagon           38    4253.971  161650.895    96.66
timer:  c-eigval       8899       6.729   59883.709    35.81
timer:  c-buildHS      8899       0.125    1109.393     0.66
timer:  cdiag         17677       6.942  122717.562    73.38
timer:  cdiag1        17677       0.433    7650.559     4.57
timer:  cdiag2        17677       1.920   33945.282    20.30
timer:  cdiag3        17677       3.972   70219.917    41.99
timer:  cdiag4        17677       0.231    4074.854     2.44
timer:  c-eigvec       8778       7.355   64559.501    38.60
timer:  c-buildD       8778       4.326   37972.402    22.71
timer:  DHSCF4            1      41.104      41.104     0.02
timer:  dfscf             1      38.467      38.467     0.02
timer:  overfsm           1       0.469       0.469     0.00
timer:  optical           1       5.131       5.131     0.00
  

elaps: ELAPSED times:
elaps:  Routine       Calls   Time/call    Tot.time        %
elaps:  siesta            1   20928.678   20928.678   100.00
elaps:  Setup             1       0.381       0.381     0.00
elaps:  bands             3      33.963     101.890     0.49
elaps:  writewave         1       0.002       0.002     0.00
elaps:  KSV_init          1       0.000       0.000     0.00
elaps:  IterMD            1   20825.729   20825.729    99.51
elaps:  hsparse           1       0.050       0.050     0.00
elaps:  overlap           1       0.989       0.989     0.00
elaps:  IterSCF          38     547.321   20798.209    99.38
elaps:  kinefsm           2       0.511       1.023     0.00
elaps:  nlefsm            2       2.623       5.245     0.03
elaps:  DHSCF            39      14.934     582.428     2.78
elaps:  DHSCF1            1       0.129       0.129     0.00
elaps:  DHSCF2            1       5.812       5.812     0.03
elaps:  REORD           314       0.001       0.430     0.00
elaps:  POISON           40       0.296      11.844     0.06
elaps:  DHSCF3           39      14.510     565.888     2.70
elaps:  rhoofd           39       6.496     253.328     1.21
elaps:  cellXC           39       0.436      17.010     0.08
elaps:  vmat             39       7.057     275.242     1.32
elaps:  MolMec            2       0.000       0.000     0.00
elaps:  diagon           38     532.392   20230.887    96.67
elaps:  c-eigval       8899       0.842    7492.646    35.80
elaps:  c-buildHS      8899       0.017     150.324     0.72
elaps:  cdiag         17677       0.856   15136.330    72.32
elaps:  cdiag1        17677       0.054     951.074     4.54
elaps:  cdiag2        17677       0.240    4247.747    20.30
elaps:  cdiag3        17677       0.498    8797.699    42.04
elaps:  cdiag4        17677       0.029     516.990     2.47
elaps:  c-eigvec       8778       0.900    7896.665    37.73
elaps:  c-buildD       8778       0.562    4935.862    23.58
elaps:  DHSCF4            1      10.304      10.304     0.05
elaps:  dfscf             1       9.775       9.775     0.05
elaps:  overfsm           1       0.059       0.059     0.00
elaps:  optical           1       0.000       0.000     0.00
  
>> End of run:   9-MAY-2016   3:06:28
