Siesta Version:                                        siesta-3.2-pl-3
Architecture  : x86_64-unknown-linux-gnu--unknown
Compiler flags: mpiifort -g -O2 -fPIC -xSSE4.1 -fp-model source -shared-intel 
PARALLEL version

* Running on   12 nodes in parallel
>> Start of run:   4-MAY-2016   0:19:49

                           ***********************       
                           *  WELCOME TO SIESTA  *       
                           ***********************       

reinit: Reading from standard input
************************** Dump of input data file ****************************
#(1) General system descriptors
SystemName            GRP_doping    # Descriptive name of the system
SystemLabel           GRP_doping    # Short name for naming files
%include STRUCT.fdf
%include KPT.fdf
%include BASIS.fdf
#%include TS.fdf # for transiesta calculation
#(4) DFT, Grid, SCF
XC.functional         GGA           # LDA or GGA (default = LDA)
XC.authors            PBE           # CA (Ceperley-Aldr) = PZ
                                    #    (Perdew-Zunger) - LDA - Default
                                    # PW92 (Perdew-Wang-92) - LDA
                                    # PBE (Perdew-Burke-Ernzerhof) - GGA
MeshCutoff            200.000000    Ry      # Default: 50.0 Ry ~ 0.444 Bohr
                                    #         100.0 Ry ~ 0.314 Bohr
MaxSCFIterations      500           # Default: 50
DM.MixingWeight       0.05          # Default: 0.25
DM.NumberPulay        10            # Default: 0
DM.PulayOnFile        F             # SystemLabel.P1, SystemLabel.P2
DM.Tolerance          1.d-4         # Default: 1.d-4
DM.UseSaveDM          .true.        # because of the bug
SCFMustConverge       .true.
NeglNonOverlapInt     F             # Default: F
#(5) Eigenvalue problem: order-N or diagonalization
SolutionMethod        Diagon        # or Transiesta
ElectronicTemperature 300.0 K       # Default: 300.0 K
#(6) Molecular dynamics and relaxations
#MD.TypeOfRun          CG            # Type of dynamics:
#MD.VariableCell       F
#MD.NumCGsteps         0           # 0 for single-point / 100 for gopt
#MD.MaxCGDispl         0.2 Bohr      # Default: 0.2 Bohr
#MD.MaxForceTol        0.02 eV/Ang   # Default: 0.04 eV/Ang
#MD.MaxStressTol       1.0 GPa       # Default: 1.0 GPa
# Geometry Constraints
#%block GeometryConstraints
#	position from 1 to 44
#%endblock GeometryConstraints
BandLinesScale   pi/a
%block BandLines
 1   0.00000000  0.00000000  0.00000000
50   0.00000000  0.07809418  0.00000000
50   0.04509075  0.07809242  0.00000000
20   0.00000000  0.00000000  0.00000000
%endblock BandLines
************************** End of input data file *****************************

reinit: -----------------------------------------------------------------------
reinit: System Name: GRP_doping
reinit: -----------------------------------------------------------------------
reinit: System Label: GRP_doping                                                  
reinit: -----------------------------------------------------------------------

initatom: Reading input for the pseudopotentials and atomic orbitals ----------
 Species number:            1  Label: B Atomic number:           5
 Species number:            2  Label: C Atomic number:           6
Ground state valence configuration:   2s02  2p01
Reading pseudopotential information in formatted form from B.psf

Valence configuration for pseudopotential generation:
2s( 2.00) rc: 1.74
2p( 1.00) rc: 1.74
3d( 0.00) rc: 1.74
4f( 0.00) rc: 1.74
Ground state valence configuration:   2s02  2p02
Reading pseudopotential information in formatted form from C.psf

Valence configuration for pseudopotential generation:
2s( 2.00) rc: 1.54
2p( 2.00) rc: 1.54
3d( 0.00) rc: 1.54
4f( 0.00) rc: 1.54
For B, standard SIESTA heuristics set lmxkb to 3
 (one more than the basis l, including polarization orbitals).
Use PS.lmax or PS.KBprojectors blocks to override.
For C, standard SIESTA heuristics set lmxkb to 3
 (one more than the basis l, including polarization orbitals).
Use PS.lmax or PS.KBprojectors blocks to override.

<basis_specs>
===============================================================================
B                    Z=   5    Mass=  10.810        Charge= 0.17977+309
Lmxo=1 Lmxkb= 3    BasisType=split      Semic=F
L=0  Nsemic=0  Cnfigmx=2
          n=1  nzeta=2  polorb=0
            splnorm:   0.15000    
               vcte:    0.0000    
               rinn:    0.0000    
                rcs:    0.0000      0.0000    
            lambdas:    1.0000      1.0000    
L=1  Nsemic=0  Cnfigmx=2
          n=1  nzeta=2  polorb=1
            splnorm:   0.15000    
               vcte:    0.0000    
               rinn:    0.0000    
                rcs:    0.0000      0.0000    
            lambdas:    1.0000      1.0000    
-------------------------------------------------------------------------------
L=0  Nkbl=1  erefs: 0.17977+309
L=1  Nkbl=1  erefs: 0.17977+309
L=2  Nkbl=1  erefs: 0.17977+309
L=3  Nkbl=1  erefs: 0.17977+309
===============================================================================
</basis_specs>

atom: Called for B                     (Z =   5)

read_vps: Pseudopotential generation method:
read_vps: ATM3      Troullier-Martins                       
Total valence charge:    3.00000

read_vps: Pseudopotential includes a core correction:
read_vps: Pseudo-core for xc-correction

xc_check: Exchange-correlation functional:
xc_check: GGA Perdew, Burke & Ernzerhof 1996
V l=0 = -2*Zval/r beyond r=  1.7165
V l=1 = -2*Zval/r beyond r=  1.7165
V l=2 = -2*Zval/r beyond r=  1.7165
V l=3 = -2*Zval/r beyond r=  1.6951
All V_l potentials equal beyond r=  1.7165
This should be close to max(r_c) in ps generation
All pots = -2*Zval/r beyond r=  1.7165

VLOCAL1: 99.0% of the norm of Vloc inside     14.733 Ry
VLOCAL1: 99.9% of the norm of Vloc inside     33.577 Ry
atom: Maximum radius for 4*pi*r*r*local-pseudopot. charge    2.04484
atom: Maximum radius for r*vlocal+2*Zval:    1.75994
GHOST: No ghost state for L =  0
GHOST: No ghost state for L =  1
GHOST: No ghost state for L =  2
GHOST: No ghost state for L =  3

KBgen: Kleinman-Bylander projectors: 
   l= 0   rc=  1.897051   el= -0.693730   Ekb=  4.595746   kbcos=  0.286105
   l= 1   rc=  1.920920   el= -0.265236   Ekb= -2.350715   kbcos= -0.315747
   l= 2   rc=  2.044840   el=  0.002055   Ekb= -0.690767   kbcos= -0.013822
   l= 3   rc=  2.149707   el=  0.003188   Ekb= -0.315358   kbcos= -0.002055

KBgen: Total number of  Kleinman-Bylander projectors:   16
atom: -------------------------------------------------------------------------

atom: SANKEY-TYPE ORBITALS:
atom: Selected multiple-zeta basis: split     

SPLIT: Orbitals with angular momentum L= 0

SPLIT: Basis orbitals for state 2s

SPLIT: PAO cut-off radius determined from an
SPLIT: energy shift=  0.007350 Ry

   izeta = 1
                 lambda =    1.000000
                     rc =    5.422032
                 energy =   -0.686029
                kinetic =    0.576707
    potential(screened) =   -1.262736
       potential(ionic) =   -3.271094

   izeta = 2
                 rmatch =    4.222573
              splitnorm =    0.150000
                 energy =   -0.602132
                kinetic =    0.858975
    potential(screened) =   -1.461107
       potential(ionic) =   -3.582536

SPLIT: Orbitals with angular momentum L= 1

SPLIT: Basis orbitals for state 2p

SPLIT: PAO cut-off radius determined from an
SPLIT: energy shift=  0.007350 Ry

   izeta = 1
                 lambda =    1.000000
                     rc =    6.790259
                 energy =   -0.258578
                kinetic =    1.481412
    potential(screened) =   -1.739989
       potential(ionic) =   -3.657461

   izeta = 2
                 rmatch =    4.608740
              splitnorm =    0.150000
                 energy =   -0.173757
                kinetic =    2.186690
    potential(screened) =   -2.360447
       potential(ionic) =   -4.464260

POLgen: Perturbative polarization orbital with L=  2

POLgen: Polarization orbital for state 2p

   izeta = 1
                     rc =    6.790259
                 energy =    0.684082
                kinetic =    1.471481
    potential(screened) =   -0.787399
       potential(ionic) =   -2.406985
atom: Total number of Sankey-type orbitals: 13

atm_pop: Valence configuration (for local Pseudopot. screening):
 2s( 2.00)                                                            
 2p( 1.00)                                                            
Vna: chval, zval:    3.00000   3.00000

Vna:  Cut-off radius for the neutral-atom potential:   6.790259
comcore: Pseudo-core radius Rcore=  2.122997

atom: _________________________________________________________________________

<basis_specs>
===============================================================================
C                    Z=   6    Mass=  12.010        Charge= 0.17977+309
Lmxo=1 Lmxkb= 3    BasisType=split      Semic=F
L=0  Nsemic=0  Cnfigmx=2
          n=1  nzeta=2  polorb=0
            splnorm:   0.15000    
               vcte:    0.0000    
               rinn:    0.0000    
                rcs:    0.0000      0.0000    
            lambdas:    1.0000      1.0000    
L=1  Nsemic=0  Cnfigmx=2
          n=1  nzeta=2  polorb=1
            splnorm:   0.15000    
               vcte:    0.0000    
               rinn:    0.0000    
                rcs:    0.0000      0.0000    
            lambdas:    1.0000      1.0000    
-------------------------------------------------------------------------------
L=0  Nkbl=1  erefs: 0.17977+309
L=1  Nkbl=1  erefs: 0.17977+309
L=2  Nkbl=1  erefs: 0.17977+309
L=3  Nkbl=1  erefs: 0.17977+309
===============================================================================
</basis_specs>

atom: Called for C                     (Z =   6)

read_vps: Pseudopotential generation method:
read_vps: ATM3      Troullier-Martins                       
Total valence charge:    4.00000

read_vps: Pseudopotential includes a core correction:
read_vps: Pseudo-core for xc-correction

xc_check: Exchange-correlation functional:
xc_check: GGA Perdew, Burke & Ernzerhof 1996
V l=0 = -2*Zval/r beyond r=  1.5227
V l=1 = -2*Zval/r beyond r=  1.5227
V l=2 = -2*Zval/r beyond r=  1.5227
V l=3 = -2*Zval/r beyond r=  1.5038
All V_l potentials equal beyond r=  1.5227
This should be close to max(r_c) in ps generation
All pots = -2*Zval/r beyond r=  1.5227

VLOCAL1: 99.0% of the norm of Vloc inside     18.722 Ry
VLOCAL1: 99.9% of the norm of Vloc inside     42.668 Ry
atom: Maximum radius for 4*pi*r*r*local-pseudopot. charge    1.83678
atom: Maximum radius for r*vlocal+2*Zval:    1.58088
GHOST: No ghost state for L =  0
GHOST: No ghost state for L =  1
GHOST: No ghost state for L =  2
GHOST: No ghost state for L =  3

KBgen: Kleinman-Bylander projectors: 
   l= 0   rc=  1.704034   el= -1.009801   Ekb=  5.335044   kbcos=  0.316824
   l= 1   rc=  1.704034   el= -0.388707   Ekb= -3.785862   kbcos= -0.366464
   l= 2   rc=  1.791422   el=  0.001971   Ekb= -0.970471   kbcos= -0.009212
   l= 3   rc=  1.859892   el=  0.003065   Ekb= -0.399525   kbcos= -0.001223

KBgen: Total number of  Kleinman-Bylander projectors:   16
atom: -------------------------------------------------------------------------

atom: SANKEY-TYPE ORBITALS:
atom: Selected multiple-zeta basis: split     

SPLIT: Orbitals with angular momentum L= 0

SPLIT: Basis orbitals for state 2s

SPLIT: PAO cut-off radius determined from an
SPLIT: energy shift=  0.007350 Ry

   izeta = 1
                 lambda =    1.000000
                     rc =    4.632753
                 energy =   -1.002270
                kinetic =    0.855760
    potential(screened) =   -1.858031
       potential(ionic) =   -5.417575

   izeta = 2
                 rmatch =    3.431921
              splitnorm =    0.150000
                 energy =   -0.867111
                kinetic =    1.300804
    potential(screened) =   -2.167915
       potential(ionic) =   -5.962684

SPLIT: Orbitals with angular momentum L= 1

SPLIT: Basis orbitals for state 2p

SPLIT: PAO cut-off radius determined from an
SPLIT: energy shift=  0.007350 Ry

   izeta = 1
                 lambda =    1.000000
                     rc =    5.658549
                 energy =   -0.381140
                kinetic =    2.399701
    potential(screened) =   -2.780841
       potential(ionic) =   -6.206085

   izeta = 2
                 rmatch =    3.653288
              splitnorm =    0.150000
                 energy =   -0.249149
                kinetic =    3.542762
    potential(screened) =   -3.791911
       potential(ionic) =   -7.581078

POLgen: Perturbative polarization orbital with L=  2

POLgen: Polarization orbital for state 2p

   izeta = 1
                     rc =    5.658549
                 energy =    1.109913
                kinetic =    2.304789
    potential(screened) =   -1.194876
       potential(ionic) =   -4.013592
atom: Total number of Sankey-type orbitals: 13

atm_pop: Valence configuration (for local Pseudopot. screening):
 2s( 2.00)                                                            
 2p( 2.00)                                                            
Vna: chval, zval:    4.00000   4.00000

Vna:  Cut-off radius for the neutral-atom potential:   5.658549
comcore: Pseudo-core radius Rcore=  1.791422

atom: _________________________________________________________________________

prinput: Basis input ----------------------------------------------------------

PAO.BasisType split     

%block ChemicalSpeciesLabel
    1    5 B                       # Species index, atomic number, species label
    2    6 C                       # Species index, atomic number, species label
%endblock ChemicalSpeciesLabel

%block PAO.Basis                 # Define Basis set
B                     2                    # Species label, number of l-shells
 n=2   0   2                         # n, l, Nzeta 
   5.422      4.223   
   1.000      1.000   
 n=2   1   2 P   1                   # n, l, Nzeta, Polarization, NzetaPol
   6.790      4.609   
   1.000      1.000   
C                     2                    # Species label, number of l-shells
 n=2   0   2                         # n, l, Nzeta 
   4.633      3.432   
   1.000      1.000   
 n=2   1   2 P   1                   # n, l, Nzeta, Polarization, NzetaPol
   5.659      3.653   
   1.000      1.000   
%endblock PAO.Basis

prinput: ----------------------------------------------------------------------

coor:   Atomic-coordinates input format  =     Fractional

siesta: Atomic coordinates (Bohr) and species
siesta:     -0.02582  21.41544   0.00000  1        1
siesta:      2.30256  22.75985   0.00000  1        2
siesta:      2.30256  25.44831   0.00000  1        3
siesta:     -2.35420  22.75985   0.00000  1        4
siesta:     -2.35420  25.44831   0.00000  1        5
siesta:     -0.02582  26.79272   0.00000  1        6
siesta:     -4.68258  26.79272   0.00000  1        7
siesta:     -4.68258  29.48119   0.00000  1        8
siesta:     -0.02582   2.59549   0.00000  2        9
siesta:     -0.02582   5.28395   0.00000  2       10
siesta:     -2.35420  38.89134   0.00000  2       11
siesta:     -2.35420  41.57980   0.00000  2       12
siesta:      2.30256  38.89134   0.00000  2       13
siesta:      2.30256  41.57980   0.00000  2       14
siesta:      4.63094  34.85847   0.00000  2       15
siesta:      4.63094  37.54693   0.00000  2       16
siesta:      6.95932  30.82560   0.00000  2       17
siesta:      6.95932  33.51406   0.00000  2       18
siesta:      9.28770  26.79272   0.00000  2       19
siesta:      9.28770  29.48119   0.00000  2       20
siesta:     -4.68258  34.85847   0.00000  2       21
siesta:     -4.68258  37.54693   0.00000  2       22
siesta:      2.30256   6.62836   0.00000  2       23
siesta:      2.30256   9.31683   0.00000  2       24
siesta:      4.63094  10.66124   0.00000  2       25
siesta:      4.63094  13.34970   0.00000  2       26
siesta:      6.95932  14.69411   0.00000  2       27
siesta:      6.95932  17.38257   0.00000  2       28
siesta:      9.28770  18.72698   0.00000  2       29
siesta:      9.28770  21.41544   0.00000  2       30
siesta:     11.61608  22.75985   0.00000  2       31
siesta:     11.61608  25.44831   0.00000  2       32
siesta:     -2.35420   6.62836   0.00000  2       33
siesta:     -2.35420   9.31683   0.00000  2       34
siesta:     -0.02582  10.66124   0.00000  2       35
siesta:     -0.02582  13.34970   0.00000  2       36
siesta:      2.30256  14.69411   0.00000  2       37
siesta:      2.30256  17.38257   0.00000  2       38
siesta:      4.63094  18.72698   0.00000  2       39
siesta:      4.63094  21.41544   0.00000  2       40
siesta:      6.95932  22.75985   0.00000  2       41
siesta:      6.95932  25.44831   0.00000  2       42
siesta:     -4.68258  10.66124   0.00000  2       43
siesta:     -4.68258  13.34970   0.00000  2       44
siesta:     -2.35420  14.69411   0.00000  2       45
siesta:     -2.35420  17.38257   0.00000  2       46
siesta:     -0.02582  18.72698   0.00000  2       47
siesta:     -7.01096  14.69411   0.00000  2       48
siesta:     -7.01096  17.38257   0.00000  2       49
siesta:     -4.68258  18.72698   0.00000  2       50
siesta:     -4.68258  21.41544   0.00000  2       51
siesta:     -9.33934  18.72698   0.00000  2       52
siesta:     -9.33934  21.41544   0.00000  2       53
siesta:     -7.01096  22.75985   0.00000  2       54
siesta:     -7.01096  25.44831   0.00000  2       55
siesta:    -11.66772  22.75985   0.00000  2       56
siesta:    -11.66772  25.44831   0.00000  2       57
siesta:     -9.33934  26.79272   0.00000  2       58
siesta:     -9.33934  29.48119   0.00000  2       59
siesta:      4.63094  26.79272   0.00000  2       60
siesta:      4.63094  29.48119   0.00000  2       61
siesta:     -0.02582  29.48119   0.00000  2       62
siesta:      2.30256  30.82560   0.00000  2       63
siesta:      2.30256  33.51406   0.00000  2       64
siesta:     -2.35420  30.82560   0.00000  2       65
siesta:     -2.35420  33.51406   0.00000  2       66
siesta:     -7.01096  30.82560   0.00000  2       67
siesta:     -7.01096  33.51406   0.00000  2       68
siesta:     -0.02582  34.85847   0.00000  2       69
siesta:     -0.02582  37.54693   0.00000  2       70
siesta:     -0.02582  42.92421   0.00000  2       71
siesta:     -0.02582  45.61267   0.00000  2       72

siesta: System type = slab      

initatomlists: Number of atoms, orbitals, and projectors:     72   936  1152

siesta: ******************** Simulation parameters ****************************
siesta:
siesta: The following are some of the parameters of the simulation.
siesta: A complete list of the parameters used, including default values,
siesta: can be found in file out.fdf
siesta:
redata: Non-Collinear-spin run           =     F
redata: SpinPolarized (Up/Down) run      =     F
redata: Number of spin components        =     1
redata: Long output                      =     F
redata: Number of Atomic Species         =        2
redata: Charge density info will appear in .RHO file
redata: Write Mulliken Pop.              =     NO
redata: Mesh Cutoff                      =   200.0000  Ry
redata: Net charge of the system         =     0.0000 |e|
redata: Max. number of SCF Iter          =      500
redata: SCF convergence failure will abort job
redata: Performing Pulay mixing using    =    10 iterations
redata: Mix DM in first SCF step ?       =     F
redata: Write Pulay info on disk?        =     F
redata: Discard 1st Pulay DM after  kick =     F
redata: New DM Mixing Weight             =     0.0500
redata: New DM Occupancy tolerance       = 0.000000000001
redata: No kicks to SCF
redata: DM Mixing Weight for Kicks       =     0.5000
redata: DM Tolerance for SCF             =     0.000100
redata: Require Energy convergence for SCF =     F
redata: DM Energy tolerance for SCF      =     0.000100 eV
redata: Require Harris convergence for SCF =     F
redata: DM Harris energy tolerance for SCF =     0.000100 eV
redata: Using Saved Data (generic)   =     F
redata: Use continuation files for DM    =     T
redata: Neglect nonoverlap interactions  =     F
redata: Method of Calculation            =     Diagonalization
redata: Divide and Conquer               =     T
redata: Electronic Temperature           =     0.0019  Ry
redata: Fix the spin of the system       =     F
redata: Dynamics option                  =     Verlet MD run
redata: Initial MD time step             =        1
redata:   Final MD time step             =        1
redata: Length of MD time step           =     1.0000  fs
redata: Initial Temperature of MD run    =     0.0000  K
redata: Perform a MD quench              =     F
redata: ***********************************************************************
Total number of electrons:   280.000000
Total ionic charge:   280.000000

* ProcessorY, Blocksize:    3  24

k-point displ. along   1 input, could be:     0.50    0.00
k-point displ. along   2 input, could be:     0.50    0.00
 Kpoints in:          231 . Kpoints trimmed:          231

siesta: k-grid: Number of k-points =   231
siesta: k-grid: Cutoff (effective) =     5.000 Ang
siesta: k-grid: Supercell and displacements
siesta: k-grid:   21   0   0      0.500
siesta: k-grid:    0  21   0      0.500
siesta: k-grid:    0   0   1      0.000
Naive supercell factors:     2    2    2

superc: Internal auxiliary supercell:     2 x     2 x     2  =       8
superc: Number of atoms, orbitals, and projectors:    576   7488   9216

* Maximum dynamic memory allocated =     4 MB

siesta:                 ==============================
                            Begin MD step =      1
                        ==============================

superc: Internal auxiliary supercell:     2 x     2 x     2  =       8
superc: Number of atoms, orbitals, and projectors:    576   7488   9216

outcell: Unit cell vectors (Ang):
       12.804619    7.392750    0.000000
        0.000000   14.785500    0.000000
        0.000000    0.000000   10.000000

outcell: Cell vector modules (Ang)   :   14.785500   14.785500   10.000000
outcell: Cell angles (23,13,12) (deg):     90.0000     90.0000     60.0000
outcell: Cell volume (Ang**3)        :   1893.2269
New_DM. Step:     1
Initializing Density Matrix...

InitMesh: MESH =   120 x   120 x    90 =     1296000
InitMesh: Mesh cutoff (required, used) =   200.000   223.865 Ry

* Maximum dynamic memory allocated =   150 MB

stepf: Fermi-Dirac step function

siesta: Program's energy decomposition (eV):
siesta: Ebs     =     -5756.531143
siesta: Eions   =     17378.557381
siesta: Ena     =      4530.509548
siesta: Ekin    =      5956.271858
siesta: Enl     =       695.105047
siesta: DEna    =        -0.000013
siesta: DUscf   =         0.000000
siesta: DUext   =         0.000000
siesta: Exc     =     -4185.236892
siesta: eta*DQ  =         0.000000
siesta: Emadel  =         0.000000
siesta: Emeta   =         0.000000
siesta: Emolmec =         0.000000
siesta: Ekinion =         0.000000
siesta: Eharris =    -10057.276383
siesta: Etot    =    -10381.907833
siesta: FreeEng =    -10381.907833

siesta: iscf   Eharris(eV)      E_KS(eV)   FreeEng(eV)   dDmax  Ef(eV)
siesta:    1   -10057.2764   -10381.9078   -10381.9078  6.3579 -8.0831
timer: Routine,Calls,Time,% = IterSCF        1    5351.116  99.73
elaps: Routine,Calls,Wall,% = IterSCF        1     466.403  99.73
siesta:    2   -14178.3080    -9402.0634    -9402.1992 16.2941 -2.6056
siesta:    3    -9999.5269   -10223.1766   -10223.2232  3.4188 -6.3174
siesta:    4    -9976.6846   -10060.2799   -10060.2806  1.1453 -5.3314
siesta:    5    -9935.1985    -9992.1378    -9992.1546  0.7881 -5.0699
siesta:    6    -9917.2530    -9958.5343    -9958.5823  0.7012 -4.9714
siesta:    7    -9914.2336    -9951.7858    -9951.8290  0.6664 -5.0167
siesta:    8    -9912.0917    -9945.0646    -9945.1199  0.6290 -4.9904
siesta:    9    -9909.0062    -9919.4338    -9919.4856  0.4197 -5.0066
siesta:   10    -9908.3071    -9913.0404    -9913.1035  0.3698 -4.9368
siesta:   11    -9907.2480    -9902.4045    -9902.4735  0.2414 -4.8454
siesta:   12    -9907.7956    -9887.7525    -9887.8014  0.1625 -4.6934
siesta:   13    -9907.7132    -9884.5565    -9884.6210  0.1432 -4.7518
siesta:   14    -9907.2420    -9886.6276    -9886.6742  0.1322 -4.7905
siesta:   15    -9906.8138    -9888.4901    -9888.5272  0.0923 -4.7763
siesta:   16    -9906.6747    -9893.5759    -9893.6205  0.0721 -4.7989
siesta:   17    -9906.5940    -9896.2088    -9896.2649  0.0519 -4.8214
siesta:   18    -9906.5434    -9900.4259    -9900.4738  0.0447 -4.8407
siesta:   19    -9906.5241    -9902.1225    -9902.1728  0.0362 -4.8442
siesta:   20    -9906.5282    -9903.3161    -9903.3726  0.0329 -4.8433
siesta:   21    -9906.5253    -9904.7024    -9904.7540  0.0247 -4.8416
siesta:   22    -9906.5254    -9905.4865    -9905.5386  0.0260 -4.8434
siesta:   23    -9906.5222    -9907.0448    -9907.0973  0.0239 -4.8463
siesta:   24    -9906.5146    -9906.9356    -9906.9901  0.0115 -4.8398
siesta:   25    -9906.5139    -9907.1171    -9907.1727  0.0072 -4.8374
siesta:   26    -9906.5108    -9906.8455    -9906.9010  0.0042 -4.8338
siesta:   27    -9906.5106    -9906.8965    -9906.9523  0.0041 -4.8339
siesta:   28    -9906.5103    -9906.8826    -9906.9383  0.0030 -4.8344
siesta:   29    -9906.5105    -9906.6928    -9906.7486  0.0014 -4.8354
siesta:   30    -9906.5105    -9906.7156    -9906.7711  0.0010 -4.8358
siesta:   31    -9906.5105    -9906.6561    -9906.7116  0.0010 -4.8361
siesta:   32    -9906.5104    -9906.5822    -9906.6377  0.0008 -4.8360
siesta:   33    -9906.5104    -9906.5785    -9906.6341  0.0007 -4.8360
siesta:   34    -9906.5104    -9906.5793    -9906.6348  0.0006 -4.8360
siesta:   35    -9906.5104    -9906.5570    -9906.6126  0.0004 -4.8360
siesta:   36    -9906.5104    -9906.5403    -9906.5959  0.0003 -4.8360
siesta:   37    -9906.5104    -9906.5261    -9906.5817  0.0002 -4.8359
siesta:   38    -9906.5104    -9906.5235    -9906.5791  0.0001 -4.8358
siesta:   39    -9906.5104    -9906.5162    -9906.5718  0.0001 -4.8358

siesta: E_KS(eV) =            -9906.5156

siesta: E_KS - E_eggbox =     -9906.5156

siesta: Atomic forces (eV/Ang):
----------------------------------------
   Tot   -0.170199   -0.088087    0.000000
----------------------------------------
   Max  562.934763
   Res  161.289423    sqrt( Sum f_i^2 / 3N )
----------------------------------------
   Max  562.934763    constrained

Stress-tensor-Voigt (kbar):     -776.39    -2888.06       -0.41       -1.04        0.00        0.00
(Free)E + p*V (eV/cell)    -8463.0463
Target enthalpy (eV/cell)    -9906.5712

siesta: Stress tensor (static) (eV/Ang**3):
        -0.484582   -0.000652    0.000000
        -0.000652   -1.802568    0.000000
         0.000000    0.000000   -0.000253

siesta: Pressure (static):       1221.62154955  kBar

siesta: Stress tensor (total) (eV/Ang**3):
        -0.484582   -0.000652    0.000000
        -0.000652   -1.802568    0.000000
         0.000000    0.000000   -0.000253

siesta: Pressure (total):       1221.62154955  kBar

siesta: Temp_ion =       0.000 K

* Maximum dynamic memory allocated =   163 MB
Computing bands...

siesta: Program's energy decomposition (eV):
siesta: Ebs     =     -4420.092660
siesta: Eions   =     17378.557381
siesta: Ena     =      4530.509548
siesta: Ekin    =      8925.687036
siesta: Enl     =      -931.469076
siesta: DEna    =      -799.343012
siesta: DUscf   =       105.566815
siesta: DUext   =         0.000000
siesta: Exc     =     -4358.909508
siesta: eta*DQ  =         0.000000
siesta: Emadel  =         0.000000
siesta: Emeta   =         0.000000
siesta: Emolmec =         0.000000
siesta: Ekinion =         0.000000
siesta: Eharris =     -9906.510375
siesta: Etot    =     -9906.515579
siesta: FreeEng =     -9906.571164

siesta: Final energy (eV):
siesta:  Band Struct. =   -4420.092660
siesta:       Kinetic =    8925.687036
siesta:       Hartree =   29345.408327
siesta:    Ext. field =       0.000000
siesta:   Exch.-corr. =   -4358.909508
siesta:  Ion-electron =  -67295.646359
siesta:       Ion-ion =   23476.944926
siesta:       Ekinion =       0.000000
siesta:         Total =   -9906.515579

siesta: Atomic forces (eV/Ang):
siesta:      1    0.543587   -3.622444    0.000000
siesta:      2    3.431863   -3.256472    0.000000
siesta:      3    4.302956    2.573830    0.000000
siesta:      4   -5.404878   -3.014078    0.000000
siesta:      5    2.527866    2.604237    0.000000
siesta:      6   -1.132681    4.110446    0.000000
siesta:      7   -4.562499   -3.979562    0.000000
siesta:      8    2.437343    4.298816    0.000000
siesta:      9    1.133948  551.570862    0.000000
siesta:     10   -0.347319 -128.527436    0.000000
siesta:     11    1.924354  126.410331    0.000000
siesta:     12  -14.612772 -548.067687    0.000000
siesta:     13   -1.912752  126.598280    0.000000
siesta:     14   15.525681 -547.920298    0.000000
siesta:     15   27.112139    5.208253    0.000000
siesta:     16   33.270637 -548.800644    0.000000
siesta:     17    2.312720    0.307232    0.000000
siesta:     18   -2.606552    2.109993    0.000000
siesta:     19    2.399770    1.540333    0.000000
siesta:     20   -1.305299    0.528853    0.000000
siesta:     21  -27.198756    5.625528    0.000000
siesta:     22  -33.237445 -549.336079    0.000000
siesta:     23   13.801729  547.763140    0.000000
siesta:     24   -1.713897 -126.260453    0.000000
siesta:     25   33.506664  548.643505    0.000000
siesta:     26   27.028469   -5.679825    0.000000
siesta:     27   -2.527135   -2.048210    0.000000
siesta:     28    2.207910   -0.343946    0.000000
siesta:     29   -1.201993   -0.659012    0.000000
siesta:     30    2.425883   -1.351364    0.000000
siesta:     31   -0.150003    7.219860    0.000000
siesta:     32   -0.302018   -7.327058    0.000000
siesta:     33  -16.392468  547.704623    0.000000
siesta:     34    2.095724 -125.809409    0.000000
siesta:     35    0.129740  542.570387    0.000000
siesta:     36   -0.109107 -125.389460    0.000000
siesta:     37   22.463184  557.400757    0.000000
siesta:     38   21.349615   -5.378302    0.000000
siesta:     39   -0.678569    2.172071    0.000000
siesta:     40    2.574599   -1.675062    0.000000
siesta:     41    0.220484    0.042200    0.000000
siesta:     42    0.196728   -0.162333    0.000000
siesta:     43  -33.544448  548.974388    0.000000
siesta:     44  -26.719821   -5.696084    0.000000
siesta:     45  -23.279483  557.406158    0.000000
siesta:     46  -21.420946   -5.334513    0.000000
siesta:     47   -0.529614  562.934763    0.000000
siesta:     48    2.332397   -1.879612    0.000000
siesta:     49   -2.165103   -0.398181    0.000000
siesta:     50    0.775109    2.424484    0.000000
siesta:     51   -2.576079   -2.019710    0.000000
siesta:     52    1.295414   -0.690885    0.000000
siesta:     53   -2.848481   -1.448143    0.000000
siesta:     54   -0.418899    0.278573    0.000000
siesta:     55   -2.338481   -1.966191    0.000000
siesta:     56    0.309477    6.691834    0.000000
siesta:     57    0.462599   -6.709251    0.000000
siesta:     58   -2.833048    0.791918    0.000000
siesta:     59    1.579919    0.994541    0.000000
siesta:     60    2.336034    1.962548    0.000000
siesta:     61   -0.720440   -2.227191    0.000000
siesta:     62   -0.234023 -562.715961    0.000000
siesta:     63   21.424823    5.601508    0.000000
siesta:     64   24.375259 -557.136590    0.000000
siesta:     65  -19.159759    6.135792    0.000000
siesta:     66  -22.208825 -557.080125    0.000000
siesta:     67   -6.810666    1.786657    0.000000
siesta:     68    3.058323    1.539051    0.000000
siesta:     69    0.227298  124.742707    0.000000
siesta:     70   -0.316686 -542.402606    0.000000
siesta:     71   -0.009091  127.995765    0.000000
siesta:     72    0.259588 -551.038138    0.000000
siesta: ----------------------------------------
siesta:    Tot   -0.170199   -0.088087    0.000000

siesta: Stress tensor (static) (eV/Ang**3):
siesta:    -0.484582   -0.000652    0.000000
siesta:    -0.000652   -1.802568    0.000000
siesta:     0.000000    0.000000   -0.000253

siesta: Cell volume =       1893.226884 Ang**3

siesta: Pressure (static):
siesta:                Solid            Molecule  Units
siesta:           0.00830425          0.12588059  Ry/Bohr**3
siesta:           0.76246796         11.55792781  eV/Ang**3
siesta:        1221.62154955      18518.04202970  kBar
(Free)E+ p_basis*V_orbitals  =       -9873.305918
(Free)Eharris+ p_basis*V_orbitals  =       -9873.300112

siesta: Electric dipole (a.u.)  =    0.000000    0.000000    0.000000
siesta: Electric dipole (Debye) =    0.000000    0.000000    0.000000

* Maximum dynamic memory allocated : Node    0 =   163 MB
* Maximum dynamic memory allocated : Node    1 =    66 MB
* Maximum dynamic memory allocated : Node    2 =    67 MB
* Maximum dynamic memory allocated : Node    3 =   148 MB
* Maximum dynamic memory allocated : Node    4 =   154 MB
* Maximum dynamic memory allocated : Node    5 =    57 MB
* Maximum dynamic memory allocated : Node    6 =    59 MB
* Maximum dynamic memory allocated : Node    7 =   147 MB
* Maximum dynamic memory allocated : Node    8 =   147 MB
* Maximum dynamic memory allocated : Node    9 =    59 MB
* Maximum dynamic memory allocated : Node   10 =    60 MB
* Maximum dynamic memory allocated : Node   11 =   141 MB

* Maximum memory occured during matrixMtoO                    

timer: CPU execution times:
timer:  Routine       Calls   Time/call    Tot.time        %
timer:  siesta            1  207026.346  207026.346   100.00
timer:  Setup             1       3.413       3.413     0.00
timer:  bands             3     419.831    1259.493     0.61
timer:  writewave         1       0.010       0.010     0.00
timer:  KSV_init          1       0.001       0.001     0.00
timer:  IterMD            1  205755.823  205755.823    99.39
timer:  hsparse           1       0.283       0.283     0.00
timer:  overlap           1       6.021       6.021     0.00
timer:  IterSCF          39    5271.650  205594.343    99.31
timer:  kinefsm           2       3.072       6.144     0.00
timer:  nlefsm            2      19.587      39.173     0.02
timer:  DHSCF            40      77.839    3113.576     1.50
timer:  DHSCF1            1       1.199       1.199     0.00
timer:  DHSCF2            1      36.761      36.761     0.02
timer:  REORD           322       0.002       0.800     0.00
timer:  POISON           41       0.618      25.358     0.01
timer:  DHSCF3           40      76.199    3047.968     1.47
timer:  rhoofd           40      15.725     629.006     0.30
timer:  cellXC           40       2.885     115.404     0.06
timer:  vmat             40      35.647    1425.878     0.69
timer:  MolMec            2       0.000       0.000     0.00
timer:  diagon           39    5191.946  202485.882    97.81
timer:  c-eigval       9130      10.366   94641.737    45.71
timer:  c-buildHS      9130       0.034     308.531     0.15
timer:  cdiag         18139      10.608  192419.733    92.94
timer:  cdiag1        18139       0.479    8683.390     4.19
timer:  cdiag2        18139       3.390   61495.818    29.70
timer:  cdiag3        18139       6.308  114429.508    55.27
timer:  cdiag4        18139       0.164    2981.569     1.44
timer:  c-eigvec       9009      10.917   98350.494    47.51
timer:  c-buildD       9009       1.188   10703.593     5.17
timer:  DHSCF4            1      27.402      27.402     0.01
timer:  dfscf             1      25.354      25.354     0.01
timer:  overfsm           1       0.318       0.318     0.00
timer:  optical           1       6.939       6.939     0.00
  

elaps: ELAPSED times:
elaps:  Routine       Calls   Time/call    Tot.time        %
elaps:  siesta            1   18044.257   18044.257   100.00
elaps:  Setup             1       0.298       0.298     0.00
elaps:  bands             3      36.615     109.845     0.61
elaps:  writewave         1       0.002       0.002     0.00
elaps:  KSV_init          1       0.000       0.000     0.00
elaps:  IterMD            1   17933.517   17933.517    99.39
elaps:  hsparse           1       0.028       0.028     0.00
elaps:  overlap           1       0.870       0.870     0.00
elaps:  IterSCF          39     459.473   17919.441    99.31
elaps:  kinefsm           2       0.423       0.847     0.00
elaps:  nlefsm            2       1.896       3.792     0.02
elaps:  DHSCF            40       6.842     273.674     1.52
elaps:  DHSCF1            1       0.103       0.103     0.00
elaps:  DHSCF2            1       3.203       3.203     0.02
elaps:  REORD           322       0.000       0.090     0.00
elaps:  POISON           41       0.055       2.273     0.01
elaps:  DHSCF3           40       6.642     265.662     1.47
elaps:  rhoofd           40       2.945     117.784     0.65
elaps:  cellXC           40       0.251      10.046     0.06
elaps:  vmat             40       3.108     124.320     0.69
elaps:  MolMec            2       0.000       0.000     0.00
elaps:  diagon           39     452.536   17648.902    97.81
elaps:  c-eigval       9130       0.904    8248.975    45.72
elaps:  c-buildHS      9130       0.004      34.257     0.19
elaps:  cdiag         18139       0.919   16672.328    92.40
elaps:  cdiag1        18139       0.041     748.452     4.15
elaps:  cdiag2        18139       0.296    5366.850    29.74
elaps:  cdiag3        18139       0.551    9989.741    55.36
elaps:  cdiag4        18139       0.014     248.670     1.38
elaps:  c-eigvec       9009       0.942    8489.460    47.05
elaps:  c-buildD       9009       0.113    1014.124     5.62
elaps:  DHSCF4            1       4.669       4.669     0.03
elaps:  dfscf             1       4.276       4.276     0.02
elaps:  overfsm           1       0.088       0.088     0.00
elaps:  optical           1       0.000       0.000     0.00
  
>> End of run:   4-MAY-2016   5:20:33
