Siesta Version:                                        siesta-3.2-pl-3
Architecture  : x86_64-unknown-linux-gnu--unknown
Compiler flags: mpiifort -g -O2 -fPIC -xSSE4.1 -fp-model source -shared-intel 
PARALLEL version

* Running on   12 nodes in parallel
>> Start of run:   6-APR-2016  15:01:40

                           ***********************       
                           *  WELCOME TO SIESTA  *       
                           ***********************       

reinit: Reading from standard input
************************** Dump of input data file ****************************
#(1) General system descriptors
SystemName            GRP_doping    # Descriptive name of the system
SystemLabel           GRP_doping    # Short name for naming files
%include STRUCT.fdf
%include KPT.fdf
%include BASIS.fdf
#%include TS.fdf # for transiesta calculation
#(4) DFT, Grid, SCF
XC.functional         GGA           # LDA or GGA (default = LDA)
XC.authors            PBE           # CA (Ceperley-Aldr) = PZ
                                    #    (Perdew-Zunger) - LDA - Default
                                    # PW92 (Perdew-Wang-92) - LDA
                                    # PBE (Perdew-Burke-Ernzerhof) - GGA
MeshCutoff            200.000000    Ry      # Default: 50.0 Ry ~ 0.444 Bohr
                                    #         100.0 Ry ~ 0.314 Bohr
MaxSCFIterations      500           # Default: 50
DM.MixingWeight       0.05          # Default: 0.25
DM.NumberPulay        10            # Default: 0
DM.PulayOnFile        F             # SystemLabel.P1, SystemLabel.P2
DM.Tolerance          1.d-4         # Default: 1.d-4
DM.UseSaveDM          .true.        # because of the bug
SCFMustConverge       .true.
NeglNonOverlapInt     F             # Default: F
Diag.ParallelOverK    .true.
#(5) Eigenvalue problem: order-N or diagonalization
SolutionMethod        Diagon        # or Transiesta
ElectronicTemperature 300.0 K       # Default: 300.0 K
#(6) Molecular dynamics and relaxations
#MD.TypeOfRun          CG            # Type of dynamics:
#MD.VariableCell       F
#MD.NumCGsteps         0           # 0 for single-point / 100 for gopt
#MD.MaxCGDispl         0.2 Bohr      # Default: 0.2 Bohr
#MD.MaxForceTol        0.02 eV/Ang   # Default: 0.04 eV/Ang
#MD.MaxStressTol       1.0 GPa       # Default: 1.0 GPa
************************** End of input data file *****************************

reinit: -----------------------------------------------------------------------
reinit: System Name: GRP_doping
reinit: -----------------------------------------------------------------------
reinit: System Label: GRP_doping                                                  
reinit: -----------------------------------------------------------------------

initatom: Reading input for the pseudopotentials and atomic orbitals ----------
 Species number:            1  Label: C Atomic number:           6
 Species number:            2  Label: N Atomic number:           7
Ground state valence configuration:   2s02  2p02
Reading pseudopotential information in formatted form from C.psf

Valence configuration for pseudopotential generation:
2s( 2.00) rc: 1.54
2p( 2.00) rc: 1.54
3d( 0.00) rc: 1.54
4f( 0.00) rc: 1.54
Ground state valence configuration:   2s02  2p03
Reading pseudopotential information in formatted form from N.psf

Valence configuration for pseudopotential generation:
2s( 2.00) rc: 1.48
2p( 3.00) rc: 1.48
3d( 0.00) rc: 1.48
4f( 0.00) rc: 1.48
For C, standard SIESTA heuristics set lmxkb to 3
 (one more than the basis l, including polarization orbitals).
Use PS.lmax or PS.KBprojectors blocks to override.
For N, standard SIESTA heuristics set lmxkb to 3
 (one more than the basis l, including polarization orbitals).
Use PS.lmax or PS.KBprojectors blocks to override.

<basis_specs>
===============================================================================
C                    Z=   6    Mass=  12.010        Charge= 0.17977+309
Lmxo=1 Lmxkb= 3    BasisType=split      Semic=F
L=0  Nsemic=0  Cnfigmx=2
          n=1  nzeta=2  polorb=0
            splnorm:   0.15000    
               vcte:    0.0000    
               rinn:    0.0000    
                rcs:    0.0000      0.0000    
            lambdas:    1.0000      1.0000    
L=1  Nsemic=0  Cnfigmx=2
          n=1  nzeta=2  polorb=1
            splnorm:   0.15000    
               vcte:    0.0000    
               rinn:    0.0000    
                rcs:    0.0000      0.0000    
            lambdas:    1.0000      1.0000    
-------------------------------------------------------------------------------
L=0  Nkbl=1  erefs: 0.17977+309
L=1  Nkbl=1  erefs: 0.17977+309
L=2  Nkbl=1  erefs: 0.17977+309
L=3  Nkbl=1  erefs: 0.17977+309
===============================================================================
</basis_specs>

atom: Called for C                     (Z =   6)

read_vps: Pseudopotential generation method:
read_vps: ATM3      Troullier-Martins                       
Total valence charge:    4.00000

read_vps: Pseudopotential includes a core correction:
read_vps: Pseudo-core for xc-correction

xc_check: Exchange-correlation functional:
xc_check: GGA Perdew, Burke & Ernzerhof 1996
V l=0 = -2*Zval/r beyond r=  1.5227
V l=1 = -2*Zval/r beyond r=  1.5227
V l=2 = -2*Zval/r beyond r=  1.5227
V l=3 = -2*Zval/r beyond r=  1.5038
All V_l potentials equal beyond r=  1.5227
This should be close to max(r_c) in ps generation
All pots = -2*Zval/r beyond r=  1.5227

VLOCAL1: 99.0% of the norm of Vloc inside     18.722 Ry
VLOCAL1: 99.9% of the norm of Vloc inside     42.668 Ry
atom: Maximum radius for 4*pi*r*r*local-pseudopot. charge    1.83678
atom: Maximum radius for r*vlocal+2*Zval:    1.58088
GHOST: No ghost state for L =  0
GHOST: No ghost state for L =  1
GHOST: No ghost state for L =  2
GHOST: No ghost state for L =  3

KBgen: Kleinman-Bylander projectors: 
   l= 0   rc=  1.704034   el= -1.009801   Ekb=  5.335044   kbcos=  0.316824
   l= 1   rc=  1.704034   el= -0.388707   Ekb= -3.785862   kbcos= -0.366464
   l= 2   rc=  1.791422   el=  0.001971   Ekb= -0.970471   kbcos= -0.009212
   l= 3   rc=  1.859892   el=  0.003065   Ekb= -0.399525   kbcos= -0.001223

KBgen: Total number of  Kleinman-Bylander projectors:   16
atom: -------------------------------------------------------------------------

atom: SANKEY-TYPE ORBITALS:
atom: Selected multiple-zeta basis: split     

SPLIT: Orbitals with angular momentum L= 0

SPLIT: Basis orbitals for state 2s

SPLIT: PAO cut-off radius determined from an
SPLIT: energy shift=  0.007350 Ry

   izeta = 1
                 lambda =    1.000000
                     rc =    4.632753
                 energy =   -1.002270
                kinetic =    0.855760
    potential(screened) =   -1.858031
       potential(ionic) =   -5.417575

   izeta = 2
                 rmatch =    3.431921
              splitnorm =    0.150000
                 energy =   -0.867111
                kinetic =    1.300804
    potential(screened) =   -2.167915
       potential(ionic) =   -5.962684

SPLIT: Orbitals with angular momentum L= 1

SPLIT: Basis orbitals for state 2p

SPLIT: PAO cut-off radius determined from an
SPLIT: energy shift=  0.007350 Ry

   izeta = 1
                 lambda =    1.000000
                     rc =    5.658549
                 energy =   -0.381140
                kinetic =    2.399701
    potential(screened) =   -2.780841
       potential(ionic) =   -6.206085

   izeta = 2
                 rmatch =    3.653288
              splitnorm =    0.150000
                 energy =   -0.249149
                kinetic =    3.542762
    potential(screened) =   -3.791911
       potential(ionic) =   -7.581078

POLgen: Perturbative polarization orbital with L=  2

POLgen: Polarization orbital for state 2p

   izeta = 1
                     rc =    5.658549
                 energy =    1.109913
                kinetic =    2.304789
    potential(screened) =   -1.194876
       potential(ionic) =   -4.013592
atom: Total number of Sankey-type orbitals: 13

atm_pop: Valence configuration (for local Pseudopot. screening):
 2s( 2.00)                                                            
 2p( 2.00)                                                            
Vna: chval, zval:    4.00000   4.00000

Vna:  Cut-off radius for the neutral-atom potential:   5.658549
comcore: Pseudo-core radius Rcore=  1.791422

atom: _________________________________________________________________________

<basis_specs>
===============================================================================
N                    Z=   7    Mass=  14.010        Charge= 0.17977+309
Lmxo=1 Lmxkb= 3    BasisType=split      Semic=F
L=0  Nsemic=0  Cnfigmx=2
          n=1  nzeta=2  polorb=0
            splnorm:   0.15000    
               vcte:    0.0000    
               rinn:    0.0000    
                rcs:    0.0000      0.0000    
            lambdas:    1.0000      1.0000    
L=1  Nsemic=0  Cnfigmx=2
          n=1  nzeta=2  polorb=1
            splnorm:   0.15000    
               vcte:    0.0000    
               rinn:    0.0000    
                rcs:    0.0000      0.0000    
            lambdas:    1.0000      1.0000    
-------------------------------------------------------------------------------
L=0  Nkbl=1  erefs: 0.17977+309
L=1  Nkbl=1  erefs: 0.17977+309
L=2  Nkbl=1  erefs: 0.17977+309
L=3  Nkbl=1  erefs: 0.17977+309
===============================================================================
</basis_specs>

atom: Called for N                     (Z =   7)

read_vps: Pseudopotential generation method:
read_vps: ATM3      Troullier-Martins                       
Total valence charge:    5.00000

read_vps: Pseudopotential includes a core correction:
read_vps: Pseudo-core for xc-correction

xc_check: Exchange-correlation functional:
xc_check: GGA Perdew, Burke & Ernzerhof 1996
V l=0 = -2*Zval/r beyond r=  1.4606
V l=1 = -2*Zval/r beyond r=  1.4606
V l=2 = -2*Zval/r beyond r=  1.4606
V l=3 = -2*Zval/r beyond r=  1.4606
All V_l potentials equal beyond r=  1.4606
This should be close to max(r_c) in ps generation
All pots = -2*Zval/r beyond r=  1.4606

VLOCAL1: 99.0% of the norm of Vloc inside     20.347 Ry
VLOCAL1: 99.9% of the norm of Vloc inside     46.372 Ry
atom: Maximum radius for 4*pi*r*r*local-pseudopot. charge    1.76189
atom: Maximum radius for r*vlocal+2*Zval:    1.53550
GHOST: No ghost state for L =  0
GHOST: No ghost state for L =  1
GHOST: No ghost state for L =  2
GHOST: No ghost state for L =  3

KBgen: Kleinman-Bylander projectors: 
   l= 0   rc=  1.634559   el= -1.363963   Ekb=  5.296955   kbcos=  0.335621
   l= 1   rc=  1.614250   el= -0.521451   Ekb= -5.259161   kbcos= -0.433408
   l= 2   rc=  1.718383   el=  0.001991   Ekb= -1.271464   kbcos= -0.007566
   l= 3   rc=  1.761893   el=  0.003093   Ekb= -0.494769   kbcos= -0.001015

KBgen: Total number of  Kleinman-Bylander projectors:   16
atom: -------------------------------------------------------------------------

atom: SANKEY-TYPE ORBITALS:
atom: Selected multiple-zeta basis: split     

SPLIT: Orbitals with angular momentum L= 0

SPLIT: Basis orbitals for state 2s

SPLIT: PAO cut-off radius determined from an
SPLIT: energy shift=  0.007350 Ry

   izeta = 1
                 lambda =    1.000000
                     rc =    4.071465
                 energy =   -1.356470
                kinetic =    1.176977
    potential(screened) =   -2.533447
       potential(ionic) =   -8.057990

   izeta = 2
                 rmatch =    2.905100
              splitnorm =    0.150000
                 energy =   -1.158343
                kinetic =    1.813009
    potential(screened) =   -2.971352
       potential(ionic) =   -8.901931

SPLIT: Orbitals with angular momentum L= 1

SPLIT: Basis orbitals for state 2p

SPLIT: PAO cut-off radius determined from an
SPLIT: energy shift=  0.007350 Ry

   izeta = 1
                 lambda =    1.000000
                     rc =    4.972977
                 energy =   -0.513884
                kinetic =    3.441732
    potential(screened) =   -3.955616
       potential(ionic) =   -9.287901

   izeta = 2
                 rmatch =    3.054066
              splitnorm =    0.150000
                 energy =   -0.318226
                kinetic =    5.125348
    potential(screened) =   -5.443573
       potential(ionic) =  -11.380999

POLgen: Perturbative polarization orbital with L=  2

POLgen: Polarization orbital for state 2p

   izeta = 1
                     rc =    4.972977
                 energy =    1.607437
                kinetic =    3.268125
    potential(screened) =   -1.660688
       potential(ionic) =   -5.973652
atom: Total number of Sankey-type orbitals: 13

atm_pop: Valence configuration (for local Pseudopot. screening):
 2s( 2.00)                                                            
 2p( 3.00)                                                            
Vna: chval, zval:    5.00000   5.00000

Vna:  Cut-off radius for the neutral-atom potential:   4.972977
comcore: Pseudo-core radius Rcore=  1.554824

atom: _________________________________________________________________________

prinput: Basis input ----------------------------------------------------------

PAO.BasisType split     

%block ChemicalSpeciesLabel
    1    6 C                       # Species index, atomic number, species label
    2    7 N                       # Species index, atomic number, species label
%endblock ChemicalSpeciesLabel

%block PAO.Basis                 # Define Basis set
C                     2                    # Species label, number of l-shells
 n=2   0   2                         # n, l, Nzeta 
   4.633      3.432   
   1.000      1.000   
 n=2   1   2 P   1                   # n, l, Nzeta, Polarization, NzetaPol
   5.659      3.653   
   1.000      1.000   
N                     2                    # Species label, number of l-shells
 n=2   0   2                         # n, l, Nzeta 
   4.071      2.905   
   1.000      1.000   
 n=2   1   2 P   1                   # n, l, Nzeta, Polarization, NzetaPol
   4.973      3.054   
   1.000      1.000   
%endblock PAO.Basis

prinput: ----------------------------------------------------------------------

coor:   Atomic-coordinates input format  =     Cartesian coordinates
coor:                                          (in Angstroms)

siesta: Atomic coordinates (Bohr) and species
siesta:      2.23554   1.32097   0.00000  1        1
siesta:      4.56367   2.66461   0.00000  1        2
siesta:     32.50328  21.48508   0.00000  1        3
siesta:     34.83116  17.45226   0.00000  1        4
siesta:     37.15930  18.79590   0.00000  1        5
siesta:     32.50291  13.41944   0.00000  1        6
siesta:     34.83104  14.76308   0.00000  1        7
siesta:     30.17465   9.38661   0.00000  1        8
siesta:     32.50278  10.73026   0.00000  1        9
siesta:     27.84639   5.35379   0.00000  1       10
siesta:     30.17453   6.69743   0.00000  1       11
siesta:     27.84714  21.48508   0.00000  1       12
siesta:      6.89168   1.32097   0.00000  1       13
siesta:      9.21981   2.66461   0.00000  1       14
siesta:     11.54782   1.32097   0.00000  1       15
siesta:     13.87595   2.66461   0.00000  1       16
siesta:     16.20396   1.32097   0.00000  1       17
siesta:     18.53210   2.66461   0.00000  1       18
siesta:     20.86199   1.32097   0.00000  1       19
siesta:     23.19013   2.66461   0.00000  1       20
siesta:     25.51813   1.32097   0.00000  1       21
siesta:     27.84627   2.66461   0.00000  1       22
siesta:      4.56380   5.35379   0.00000  1       23
siesta:      6.89193   6.69743   0.00000  1       24
siesta:      9.21994   5.35379   0.00000  1       25
siesta:     11.54807   6.69743   0.00000  1       26
siesta:     13.87608   5.35379   0.00000  1       27
siesta:     16.20421   6.69743   0.00000  1       28
siesta:     18.53411   5.35379   0.00000  1       29
siesta:     20.86224   6.69743   0.00000  1       30
siesta:     23.19025   5.35379   0.00000  1       31
siesta:     25.51838   6.69743   0.00000  1       32
siesta:      6.89205   9.38661   0.00000  1       33
siesta:      9.22019  10.73026   0.00000  1       34
siesta:     11.54820   9.38661   0.00000  1       35
siesta:     13.87633  10.73026   0.00000  1       36
siesta:     16.20434   9.38661   0.00000  1       37
siesta:     18.53247  10.73026   0.00000  1       38
siesta:     20.86237   9.38661   0.00000  1       39
siesta:     23.19050  10.73026   0.00000  1       40
siesta:      9.22031  13.41944   0.00000  1       41
siesta:     11.54845  14.76308   0.00000  1       42
siesta:     13.87645  13.41944   0.00000  1       43
siesta:     16.20459  14.76308   0.00000  1       44
siesta:     18.53448  13.41944   0.00000  1       45
siesta:     20.86262  14.76308   0.00000  1       46
siesta:     11.54857  17.45226   0.00000  1       47
siesta:     16.20471  17.45226   0.00000  1       48
siesta:     18.53284  18.79590   0.00000  1       49
siesta:     13.87683  21.48508   0.00000  1       50
siesta:     18.53486  21.48508   0.00000  1       51
siesta:     25.51851   9.38661   0.00000  1       52
siesta:     27.84664  10.73026   0.00000  1       53
siesta:     23.19063  13.41944   0.00000  1       54
siesta:     25.51876  14.76308   0.00000  1       55
siesta:     20.86274  17.45226   0.00000  1       56
siesta:     23.19088  18.79590   0.00000  1       57
siesta:     27.84677  13.41944   0.00000  1       58
siesta:     30.17490  14.76308   0.00000  1       59
siesta:     25.51888  17.45226   0.00000  1       60
siesta:     27.84702  18.79590   0.00000  1       61
siesta:     23.19100  21.48508   0.00000  1       62
siesta:     30.17503  17.45226   0.00000  1       63
siesta:     32.50316  18.79590   0.00000  1       64
siesta:     37.16131  21.48508   0.00000  1       65
siesta:     34.83141  22.82873   0.00000  2       66
siesta:     30.17527  22.82873   0.00000  2       67
siesta:     13.87670  18.79590   0.00000  2       68
siesta:     16.20496  22.82873   0.00000  2       69
siesta:     20.86299  22.82873   0.00000  2       70
siesta:     25.51913  22.82873   0.00000  2       71
siesta:     39.48945  22.82873   0.00000  2       72

siesta: System type = slab      

initatomlists: Number of atoms, orbitals, and projectors:     72   936  1152

siesta: ******************** Simulation parameters ****************************
siesta:
siesta: The following are some of the parameters of the simulation.
siesta: A complete list of the parameters used, including default values,
siesta: can be found in file out.fdf
siesta:
redata: Non-Collinear-spin run           =     F
redata: SpinPolarized (Up/Down) run      =     F
redata: Number of spin components        =     1
redata: Long output                      =     F
redata: Number of Atomic Species         =        2
redata: Charge density info will appear in .RHO file
redata: Write Mulliken Pop.              =     NO
redata: Mesh Cutoff                      =   200.0000  Ry
redata: Net charge of the system         =     0.0000 |e|
redata: Max. number of SCF Iter          =      500
redata: SCF convergence failure will abort job
redata: Performing Pulay mixing using    =    10 iterations
redata: Mix DM in first SCF step ?       =     F
redata: Write Pulay info on disk?        =     F
redata: Discard 1st Pulay DM after  kick =     F
redata: New DM Mixing Weight             =     0.0500
redata: New DM Occupancy tolerance       = 0.000000000001
redata: No kicks to SCF
redata: DM Mixing Weight for Kicks       =     0.5000
redata: DM Tolerance for SCF             =     0.000100
redata: Require Energy convergence for SCF =     F
redata: DM Energy tolerance for SCF      =     0.000100 eV
redata: Require Harris convergence for SCF =     F
redata: DM Harris energy tolerance for SCF =     0.000100 eV
redata: Using Saved Data (generic)   =     F
redata: Use continuation files for DM    =     T
redata: Neglect nonoverlap interactions  =     F
redata: Method of Calculation            =     Diagonalization
redata: Divide and Conquer               =     T
redata: Electronic Temperature           =     0.0019  Ry
redata: Fix the spin of the system       =     F
redata: Dynamics option                  =     Verlet MD run
redata: Initial MD time step             =        1
redata:   Final MD time step             =        1
redata: Length of MD time step           =     1.0000  fs
redata: Initial Temperature of MD run    =     0.0000  K
redata: Perform a MD quench              =     F
redata: ***********************************************************************
Total number of electrons:   295.000000
Total ionic charge:   295.000000

* ProcessorY, Blocksize:    3  24

k-point displ. along   1 input, could be:     0.50    0.00
k-point displ. along   2 input, could be:     0.50    0.00
 Kpoints in:          231 . Kpoints trimmed:          231

siesta: k-grid: Number of k-points =   231
siesta: k-grid: Cutoff (effective) =     5.000 Ang
siesta: k-grid: Supercell and displacements
siesta: k-grid:   21   0   0      0.500
siesta: k-grid:    0  21   0      0.500
siesta: k-grid:    0   0   1      0.000
Naive supercell factors:     2    2    2

superc: Internal auxiliary supercell:     2 x     2 x     2  =       8
superc: Number of atoms, orbitals, and projectors:    576   7488   9216

* Maximum dynamic memory allocated =     4 MB

siesta:                 ==============================
                            Begin MD step =      1
                        ==============================

superc: Internal auxiliary supercell:     2 x     2 x     2  =       8
superc: Number of atoms, orbitals, and projectors:    576   7488   9216

outcell: Unit cell vectors (Ang):
       14.785000    0.000000    0.000000
        7.393000   12.805052    0.000000
        0.000000    0.000000   10.000000

outcell: Cell vector modules (Ang)   :   14.785000   14.786000   10.000000
outcell: Cell angles (23,13,12) (deg):     90.0000     90.0000     60.0000
outcell: Cell volume (Ang**3)        :   1893.2269
New_DM. Step:     1
Initializing Density Matrix...

iodm: Reading Density Matrix from files

InitMesh: MESH =   120 x   120 x    90 =     1296000
InitMesh: Mesh cutoff (required, used) =   200.000   223.865 Ry

* Maximum dynamic memory allocated =   135 MB

stepf: Fermi-Dirac step function

siesta: Program's energy decomposition (eV):
siesta: Ebs     =     -4131.307806
siesta: Eions   =     19528.238980
siesta: Ena     =      4044.530983
siesta: Ekin    =      8416.808522
siesta: Enl     =     -1000.755703
siesta: DEna    =      -256.547320
siesta: DUscf   =        23.443468
siesta: DUext   =         0.000000
siesta: Exc     =     -4203.615460
siesta: eta*DQ  =         0.000000
siesta: Emadel  =         0.000000
siesta: Emeta   =         0.000000
siesta: Emolmec =         0.000000
siesta: Ekinion =         0.000000
siesta: Eharris =    -12504.374516
siesta: Etot    =    -12504.374489
siesta: FreeEng =    -12504.374489

siesta: iscf   Eharris(eV)      E_KS(eV)   FreeEng(eV)   dDmax  Ef(eV)
siesta:    1   -12504.3745   -12504.3745   -12504.3745  0.0001 -3.6644
timer: Routine,Calls,Time,% = IterSCF        1    1151.954  98.95
elaps: Routine,Calls,Wall,% = IterSCF        1     100.366  98.94

siesta: E_KS(eV) =           -12504.3745

siesta: E_KS - E_eggbox =    -12504.3745

siesta: Atomic forces (eV/Ang):
----------------------------------------
   Tot    0.357213   -0.070139    0.000000
----------------------------------------
   Max    1.588881
   Res    0.351086    sqrt( Sum f_i^2 / 3N )
----------------------------------------
   Max    1.588881    constrained

Stress-tensor-Voigt (kbar):       -7.11      -10.09        0.10       -0.32        0.00        0.00
(Free)E + p*V (eV/cell)   -12497.6633
Target enthalpy (eV/cell)   -12504.3979

siesta: Stress tensor (static) (eV/Ang**3):
        -0.004439   -0.000197    0.000000
        -0.000197   -0.006296    0.000000
         0.000000    0.000000    0.000063

siesta: Pressure (static):          5.69934099  kBar

siesta: Stress tensor (total) (eV/Ang**3):
        -0.004439   -0.000197    0.000000
        -0.000197   -0.006296    0.000000
         0.000000    0.000000    0.000063

siesta: Pressure (total):          5.69934099  kBar

siesta: Temp_ion =       0.000 K

* Maximum dynamic memory allocated =   229 MB

siesta: Program's energy decomposition (eV):
siesta: Ebs     =     -4131.307806
siesta: Eions   =     19528.238980
siesta: Ena     =      4044.530983
siesta: Ekin    =      8416.841492
siesta: Enl     =     -1000.768555
siesta: DEna    =      -256.559617
siesta: DUscf   =        23.441319
siesta: DUext   =         0.000000
siesta: Exc     =     -4203.621148
siesta: eta*DQ  =         0.000000
siesta: Emadel  =         0.000000
siesta: Emeta   =         0.000000
siesta: Emolmec =         0.000000
siesta: Ekinion =         0.000000
siesta: Eharris =    -12504.374516
siesta: Etot    =    -12504.374506
siesta: FreeEng =    -12504.397920

siesta: Final energy (eV):
siesta:  Band Struct. =   -4131.307806
siesta:       Kinetic =    8416.841492
siesta:       Hartree =   24442.957909
siesta:    Ext. field =       0.000000
siesta:   Exch.-corr. =   -4203.621148
siesta:  Ion-electron =  -56699.512502
siesta:       Ion-ion =   15538.959743
siesta:       Ekinion =       0.000000
siesta:         Total =  -12504.374506

siesta: Atomic forces (eV/Ang):
siesta:      1    0.006764    0.725373    0.000000
siesta:      2   -0.164822   -1.583307    0.000000
siesta:      3    0.107695    0.289805    0.000000
siesta:      4    0.262723   -0.089032    0.000000
siesta:      5    0.507210    0.510821    0.000000
siesta:      6    0.014983    0.010474    0.000000
siesta:      7   -0.033058    0.092773    0.000000
siesta:      8    0.020533    0.078672    0.000000
siesta:      9   -0.008634   -0.031240    0.000000
siesta:     10    0.009342    0.074839    0.000000
siesta:     11    0.115283   -0.193743    0.000000
siesta:     12    0.005736    0.015037    0.000000
siesta:     13    0.221203    0.535006    0.000000
siesta:     14   -0.030860   -1.585949    0.000000
siesta:     15    0.009153    0.493135    0.000000
siesta:     16    0.000584   -1.346524    0.000000
siesta:     17    0.015326    0.496889    0.000000
siesta:     18    0.067472   -1.588881    0.000000
siesta:     19   -0.238408    0.542360    0.000000
siesta:     20    0.153353   -1.583647    0.000000
siesta:     21   -0.002922    0.723699    0.000000
siesta:     22    0.010726   -1.339445    0.000000
siesta:     23   -0.077656    0.283886    0.000000
siesta:     24    0.091410   -0.234934    0.000000
siesta:     25    0.038604    0.397945    0.000000
siesta:     26   -0.029887   -0.195468    0.000000
siesta:     27    0.012566    0.211958    0.000000
siesta:     28    0.055761   -0.204972    0.000000
siesta:     29   -0.063432    0.405428    0.000000
siesta:     30   -0.098792   -0.235005    0.000000
siesta:     31    0.078288    0.277668    0.000000
siesta:     32   -0.104737   -0.187237    0.000000
siesta:     33   -0.028702    0.093755    0.000000
siesta:     34    0.098453   -0.035359    0.000000
siesta:     35   -0.075885   -0.013457    0.000000
siesta:     36   -0.001100    0.257084    0.000000
siesta:     37    0.091862   -0.012794    0.000000
siesta:     38   -0.062665   -0.043935    0.000000
siesta:     39   -0.000872    0.096591    0.000000
siesta:     40    0.015313   -0.025858    0.000000
siesta:     41   -0.128839    0.111912    0.000000
siesta:     42    0.312185    0.638284    0.000000
siesta:     43    0.012102   -0.422528    0.000000
siesta:     44   -0.285904    0.624871    0.000000
siesta:     45    0.086768    0.114113    0.000000
siesta:     46    0.049630    0.096393    0.000000
siesta:     47    0.208263    0.068678    0.000000
siesta:     48   -0.207780    0.072305    0.000000
siesta:     49   -0.441230    0.506604    0.000000
siesta:     50    0.023861   -0.028141    0.000000
siesta:     51    0.461142    0.578670    0.000000
siesta:     52   -0.004861    0.078833    0.000000
siesta:     53   -0.001835    0.010777    0.000000
siesta:     54   -0.000150    0.012221    0.000000
siesta:     55   -0.000763    0.167075    0.000000
siesta:     56   -0.276779   -0.082694    0.000000
siesta:     57    0.079678    0.726234    0.000000
siesta:     58    0.007427   -0.035715    0.000000
siesta:     59   -0.002517    0.166652    0.000000
siesta:     60   -0.120778   -0.044031    0.000000
siesta:     61    0.002857    0.929599    0.000000
siesta:     62   -0.089430    0.287462    0.000000
siesta:     63    0.133801   -0.042336    0.000000
siesta:     64   -0.079470    0.727037    0.000000
siesta:     65   -0.511473    0.581575    0.000000
siesta:     66    0.229550   -0.440776    0.000000
siesta:     67   -0.009021   -0.131222    0.000000
siesta:     68    0.016103    1.052319    0.000000
siesta:     69   -0.446905   -0.955157    0.000000
siesta:     70   -0.175274   -0.439252    0.000000
siesta:     71    0.038483   -0.129087    0.000000
siesta:     72    0.490463   -0.953226    0.000000
siesta: ----------------------------------------
siesta:    Tot    0.357213   -0.070139    0.000000

siesta: Stress tensor (static) (eV/Ang**3):
siesta:    -0.004439   -0.000197    0.000000
siesta:    -0.000197   -0.006296    0.000000
siesta:     0.000000    0.000000    0.000063

siesta: Cell volume =       1893.226895 Ang**3

siesta: Pressure (static):
siesta:                Solid            Molecule  Units
siesta:           0.00003874         -0.00003877  Ry/Bohr**3
siesta:           0.00355721         -0.00355977  eV/Ang**3
siesta:           5.69934099         -5.70344825  kBar
(Free)E+ p_basis*V_orbitals  =      -12474.661046
(Free)Eharris+ p_basis*V_orbitals  =      -12474.661073

siesta: Electric dipole (a.u.)  =    0.000000    0.000000    0.000000
siesta: Electric dipole (Debye) =    0.000000    0.000000    0.000000

* Maximum dynamic memory allocated : Node    0 =   229 MB
* Maximum dynamic memory allocated : Node    1 =   144 MB
* Maximum dynamic memory allocated : Node    2 =   145 MB
* Maximum dynamic memory allocated : Node    3 =   219 MB
* Maximum dynamic memory allocated : Node    4 =   227 MB
* Maximum dynamic memory allocated : Node    5 =   140 MB
* Maximum dynamic memory allocated : Node    6 =   141 MB
* Maximum dynamic memory allocated : Node    7 =   221 MB
* Maximum dynamic memory allocated : Node    8 =   223 MB
* Maximum dynamic memory allocated : Node    9 =   139 MB
* Maximum dynamic memory allocated : Node   10 =   141 MB
* Maximum dynamic memory allocated : Node   11 =   217 MB

* Maximum memory occured during cdiag                         

timer: CPU execution times:
timer:  Routine       Calls   Time/call    Tot.time        %
timer:  siesta            1    1280.905    1280.905   100.00
timer:  Setup             1       3.197       3.197     0.25
timer:  bands             1       0.011       0.011     0.00
timer:  writewave         1       0.021       0.021     0.00
timer:  KSV_init          1       0.006       0.006     0.00
timer:  IterMD            1    1271.514    1271.514    99.27
timer:  hsparse           1       0.181       0.181     0.01
timer:  overlap           1       5.698       5.698     0.44
timer:  IterSCF           1    1151.954    1151.954    89.93
timer:  kinefsm           2       2.888       5.776     0.45
timer:  nlefsm            2      18.571      37.141     2.90
timer:  DHSCF             2      84.356     168.711    13.17
timer:  DHSCF1            1       0.895       0.895     0.07
timer:  DHSCF2            1      26.820      26.820     2.09
timer:  REORD            18       0.003       0.050     0.00
timer:  POISON            3       0.684       2.052     0.16
timer:  DHSCF3            2      59.958     119.916     9.36
timer:  rhoofd            2      11.545      23.090     1.80
timer:  cellXC            2       2.432       4.864     0.38
timer:  vmat              2      29.260      58.520     4.57
timer:  MolMec            2       0.000       0.000     0.00
timer:  diagon            1    1014.253    1014.253    79.18
timer:  cdiag            40      17.186     661.807    51.67
timer:  cdiag1           40       0.891      34.268     2.68
timer:  cdiag2           40       3.120     119.977     9.37
timer:  cdiag3           40      12.965     499.431    38.99
timer:  cdiag4           40       0.207       7.966     0.62
timer:  DHSCF4            1      21.005      21.005     1.64
timer:  dfscf             1      19.566      19.566     1.53
timer:  overfsm           1       0.266       0.266     0.02
timer:  optical           1       5.650       5.650     0.44
  

elaps: ELAPSED times:
elaps:  Routine       Calls   Time/call    Tot.time        %
elaps:  siesta            1     111.607     111.607   100.00
elaps:  Setup             1       0.279       0.279     0.25
elaps:  bands             1       0.001       0.001     0.00
elaps:  writewave         1       0.002       0.002     0.00
elaps:  KSV_init          1       0.000       0.000     0.00
elaps:  IterMD            1     110.788     110.788    99.27
elaps:  hsparse           1       0.018       0.018     0.02
elaps:  overlap           1       0.705       0.705     0.63
elaps:  IterSCF           1     100.366     100.366    89.93
elaps:  kinefsm           2       0.358       0.717     0.64
elaps:  nlefsm            2       1.602       3.203     2.87
elaps:  DHSCF             2       8.043      16.086    14.41
elaps:  DHSCF1            1       0.077       0.077     0.07
elaps:  DHSCF2            1       2.337       2.337     2.09
elaps:  REORD            18       0.000       0.005     0.00
elaps:  POISON            3       0.059       0.176     0.16
elaps:  DHSCF3            2       5.225      10.449     9.36
elaps:  rhoofd            2       1.689       3.378     3.03
elaps:  cellXC            2       0.212       0.424     0.38
elaps:  vmat              2       2.550       5.100     4.57
elaps:  MolMec            2       0.000       0.000     0.00
elaps:  diagon            1      88.372      88.372    79.18
elaps:  cdiag            40       1.470      58.803    52.69
elaps:  cdiag1           40       0.069       2.762     2.47
elaps:  cdiag2           40       0.238       9.529     8.54
elaps:  cdiag3           40       1.143      45.735    40.98
elaps:  cdiag4           40       0.019       0.767     0.69
elaps:  DHSCF4            1       3.219       3.219     2.88
elaps:  dfscf             1       3.031       3.031     2.72
elaps:  overfsm           1       0.027       0.027     0.02
elaps:  optical           1       0.000       0.000     0.00
  
>> End of run:   6-APR-2016  15:03:32
