Siesta Version:                                        siesta-3.2-pl-3
Architecture  : x86_64-unknown-linux-gnu--unknown
Compiler flags: mpiifort -g -O2 -fPIC -xSSE4.1 -fp-model source -shared-intel 
PARALLEL version

* Running on    8 nodes in parallel
>> Start of run:   2-MAY-2016   0:06:09

                           ***********************       
                           *  WELCOME TO SIESTA  *       
                           ***********************       

reinit: Reading from standard input
************************** Dump of input data file ****************************
#(1) General system descriptors
SystemName            GRP_doping    # Descriptive name of the system
SystemLabel           GRP_doping    # Short name for naming files
%include STRUCT.fdf
%include KPT.fdf
%include BASIS.fdf
#%include TS.fdf # for transiesta calculation
#(4) DFT, Grid, SCF
XC.functional         GGA           # LDA or GGA (default = LDA)
XC.authors            PBE           # CA (Ceperley-Aldr) = PZ
                                    #    (Perdew-Zunger) - LDA - Default
                                    # PW92 (Perdew-Wang-92) - LDA
                                    # PBE (Perdew-Burke-Ernzerhof) - GGA
MeshCutoff            200.000000    Ry      # Default: 50.0 Ry ~ 0.444 Bohr
                                    #         100.0 Ry ~ 0.314 Bohr
MaxSCFIterations      500           # Default: 50
DM.MixingWeight       0.05          # Default: 0.25
DM.NumberPulay        10            # Default: 0
DM.PulayOnFile        F             # SystemLabel.P1, SystemLabel.P2
DM.Tolerance          1.d-4         # Default: 1.d-4
DM.UseSaveDM          .true.        # because of the bug
SCFMustConverge       .true.
NeglNonOverlapInt     F             # Default: F
#(5) Eigenvalue problem: order-N or diagonalization
SolutionMethod        Diagon        # or Transiesta
ElectronicTemperature 300.0 K       # Default: 300.0 K
#(6) Molecular dynamics and relaxations
#MD.TypeOfRun          CG            # Type of dynamics:
#MD.VariableCell       F
#MD.NumCGsteps         0           # 0 for single-point / 100 for gopt
#MD.MaxCGDispl         0.2 Bohr      # Default: 0.2 Bohr
#MD.MaxForceTol        0.02 eV/Ang   # Default: 0.04 eV/Ang
#MD.MaxStressTol       1.0 GPa       # Default: 1.0 GPa
# Geometry Constraints
#%block GeometryConstraints
#	position from 1 to 44
#%endblock GeometryConstraints
BandLinesScale   pi/a
%block BandLines
 1   0.00000000  0.00000000  0.00000000
50   0.00000000  0.07809418  0.00000000
50   0.04509075  0.07809242  0.00000000
20   0.00000000  0.00000000  0.00000000
%endblock BandLines
************************** End of input data file *****************************

reinit: -----------------------------------------------------------------------
reinit: System Name: GRP_doping
reinit: -----------------------------------------------------------------------
reinit: System Label: GRP_doping                                                  
reinit: -----------------------------------------------------------------------

initatom: Reading input for the pseudopotentials and atomic orbitals ----------
 Species number:            1  Label: B Atomic number:           5
 Species number:            2  Label: C Atomic number:           6
Ground state valence configuration:   2s02  2p01
Reading pseudopotential information in formatted form from B.psf

Valence configuration for pseudopotential generation:
2s( 2.00) rc: 1.74
2p( 1.00) rc: 1.74
3d( 0.00) rc: 1.74
4f( 0.00) rc: 1.74
Ground state valence configuration:   2s02  2p02
Reading pseudopotential information in formatted form from C.psf

Valence configuration for pseudopotential generation:
2s( 2.00) rc: 1.54
2p( 2.00) rc: 1.54
3d( 0.00) rc: 1.54
4f( 0.00) rc: 1.54
For B, standard SIESTA heuristics set lmxkb to 3
 (one more than the basis l, including polarization orbitals).
Use PS.lmax or PS.KBprojectors blocks to override.
For C, standard SIESTA heuristics set lmxkb to 3
 (one more than the basis l, including polarization orbitals).
Use PS.lmax or PS.KBprojectors blocks to override.

<basis_specs>
===============================================================================
B                    Z=   5    Mass=  10.810        Charge= 0.17977+309
Lmxo=1 Lmxkb= 3    BasisType=split      Semic=F
L=0  Nsemic=0  Cnfigmx=2
          n=1  nzeta=2  polorb=0
            splnorm:   0.15000    
               vcte:    0.0000    
               rinn:    0.0000    
                rcs:    0.0000      0.0000    
            lambdas:    1.0000      1.0000    
L=1  Nsemic=0  Cnfigmx=2
          n=1  nzeta=2  polorb=1
            splnorm:   0.15000    
               vcte:    0.0000    
               rinn:    0.0000    
                rcs:    0.0000      0.0000    
            lambdas:    1.0000      1.0000    
-------------------------------------------------------------------------------
L=0  Nkbl=1  erefs: 0.17977+309
L=1  Nkbl=1  erefs: 0.17977+309
L=2  Nkbl=1  erefs: 0.17977+309
L=3  Nkbl=1  erefs: 0.17977+309
===============================================================================
</basis_specs>

atom: Called for B                     (Z =   5)

read_vps: Pseudopotential generation method:
read_vps: ATM3      Troullier-Martins                       
Total valence charge:    3.00000

read_vps: Pseudopotential includes a core correction:
read_vps: Pseudo-core for xc-correction

xc_check: Exchange-correlation functional:
xc_check: GGA Perdew, Burke & Ernzerhof 1996
V l=0 = -2*Zval/r beyond r=  1.7165
V l=1 = -2*Zval/r beyond r=  1.7165
V l=2 = -2*Zval/r beyond r=  1.7165
V l=3 = -2*Zval/r beyond r=  1.6951
All V_l potentials equal beyond r=  1.7165
This should be close to max(r_c) in ps generation
All pots = -2*Zval/r beyond r=  1.7165

VLOCAL1: 99.0% of the norm of Vloc inside     14.733 Ry
VLOCAL1: 99.9% of the norm of Vloc inside     33.577 Ry
atom: Maximum radius for 4*pi*r*r*local-pseudopot. charge    2.04484
atom: Maximum radius for r*vlocal+2*Zval:    1.75994
GHOST: No ghost state for L =  0
GHOST: No ghost state for L =  1
GHOST: No ghost state for L =  2
GHOST: No ghost state for L =  3

KBgen: Kleinman-Bylander projectors: 
   l= 0   rc=  1.897051   el= -0.693730   Ekb=  4.595746   kbcos=  0.286105
   l= 1   rc=  1.920920   el= -0.265236   Ekb= -2.350715   kbcos= -0.315747
   l= 2   rc=  2.044840   el=  0.002055   Ekb= -0.690767   kbcos= -0.013822
   l= 3   rc=  2.149707   el=  0.003188   Ekb= -0.315358   kbcos= -0.002055

KBgen: Total number of  Kleinman-Bylander projectors:   16
atom: -------------------------------------------------------------------------

atom: SANKEY-TYPE ORBITALS:
atom: Selected multiple-zeta basis: split     

SPLIT: Orbitals with angular momentum L= 0

SPLIT: Basis orbitals for state 2s

SPLIT: PAO cut-off radius determined from an
SPLIT: energy shift=  0.007350 Ry

   izeta = 1
                 lambda =    1.000000
                     rc =    5.422032
                 energy =   -0.686029
                kinetic =    0.576707
    potential(screened) =   -1.262736
       potential(ionic) =   -3.271094

   izeta = 2
                 rmatch =    4.222573
              splitnorm =    0.150000
                 energy =   -0.602132
                kinetic =    0.858975
    potential(screened) =   -1.461107
       potential(ionic) =   -3.582536

SPLIT: Orbitals with angular momentum L= 1

SPLIT: Basis orbitals for state 2p

SPLIT: PAO cut-off radius determined from an
SPLIT: energy shift=  0.007350 Ry

   izeta = 1
                 lambda =    1.000000
                     rc =    6.790259
                 energy =   -0.258578
                kinetic =    1.481412
    potential(screened) =   -1.739989
       potential(ionic) =   -3.657461

   izeta = 2
                 rmatch =    4.608740
              splitnorm =    0.150000
                 energy =   -0.173757
                kinetic =    2.186690
    potential(screened) =   -2.360447
       potential(ionic) =   -4.464260

POLgen: Perturbative polarization orbital with L=  2

POLgen: Polarization orbital for state 2p

   izeta = 1
                     rc =    6.790259
                 energy =    0.684082
                kinetic =    1.471481
    potential(screened) =   -0.787399
       potential(ionic) =   -2.406985
atom: Total number of Sankey-type orbitals: 13

atm_pop: Valence configuration (for local Pseudopot. screening):
 2s( 2.00)                                                            
 2p( 1.00)                                                            
Vna: chval, zval:    3.00000   3.00000

Vna:  Cut-off radius for the neutral-atom potential:   6.790259
comcore: Pseudo-core radius Rcore=  2.122997

atom: _________________________________________________________________________

<basis_specs>
===============================================================================
C                    Z=   6    Mass=  12.010        Charge= 0.17977+309
Lmxo=1 Lmxkb= 3    BasisType=split      Semic=F
L=0  Nsemic=0  Cnfigmx=2
          n=1  nzeta=2  polorb=0
            splnorm:   0.15000    
               vcte:    0.0000    
               rinn:    0.0000    
                rcs:    0.0000      0.0000    
            lambdas:    1.0000      1.0000    
L=1  Nsemic=0  Cnfigmx=2
          n=1  nzeta=2  polorb=1
            splnorm:   0.15000    
               vcte:    0.0000    
               rinn:    0.0000    
                rcs:    0.0000      0.0000    
            lambdas:    1.0000      1.0000    
-------------------------------------------------------------------------------
L=0  Nkbl=1  erefs: 0.17977+309
L=1  Nkbl=1  erefs: 0.17977+309
L=2  Nkbl=1  erefs: 0.17977+309
L=3  Nkbl=1  erefs: 0.17977+309
===============================================================================
</basis_specs>

atom: Called for C                     (Z =   6)

read_vps: Pseudopotential generation method:
read_vps: ATM3      Troullier-Martins                       
Total valence charge:    4.00000

read_vps: Pseudopotential includes a core correction:
read_vps: Pseudo-core for xc-correction

xc_check: Exchange-correlation functional:
xc_check: GGA Perdew, Burke & Ernzerhof 1996
V l=0 = -2*Zval/r beyond r=  1.5227
V l=1 = -2*Zval/r beyond r=  1.5227
V l=2 = -2*Zval/r beyond r=  1.5227
V l=3 = -2*Zval/r beyond r=  1.5038
All V_l potentials equal beyond r=  1.5227
This should be close to max(r_c) in ps generation
All pots = -2*Zval/r beyond r=  1.5227

VLOCAL1: 99.0% of the norm of Vloc inside     18.722 Ry
VLOCAL1: 99.9% of the norm of Vloc inside     42.668 Ry
atom: Maximum radius for 4*pi*r*r*local-pseudopot. charge    1.83678
atom: Maximum radius for r*vlocal+2*Zval:    1.58088
GHOST: No ghost state for L =  0
GHOST: No ghost state for L =  1
GHOST: No ghost state for L =  2
GHOST: No ghost state for L =  3

KBgen: Kleinman-Bylander projectors: 
   l= 0   rc=  1.704034   el= -1.009801   Ekb=  5.335044   kbcos=  0.316824
   l= 1   rc=  1.704034   el= -0.388707   Ekb= -3.785862   kbcos= -0.366464
   l= 2   rc=  1.791422   el=  0.001971   Ekb= -0.970471   kbcos= -0.009212
   l= 3   rc=  1.859892   el=  0.003065   Ekb= -0.399525   kbcos= -0.001223

KBgen: Total number of  Kleinman-Bylander projectors:   16
atom: -------------------------------------------------------------------------

atom: SANKEY-TYPE ORBITALS:
atom: Selected multiple-zeta basis: split     

SPLIT: Orbitals with angular momentum L= 0

SPLIT: Basis orbitals for state 2s

SPLIT: PAO cut-off radius determined from an
SPLIT: energy shift=  0.007350 Ry

   izeta = 1
                 lambda =    1.000000
                     rc =    4.632753
                 energy =   -1.002270
                kinetic =    0.855760
    potential(screened) =   -1.858031
       potential(ionic) =   -5.417575

   izeta = 2
                 rmatch =    3.431921
              splitnorm =    0.150000
                 energy =   -0.867111
                kinetic =    1.300804
    potential(screened) =   -2.167915
       potential(ionic) =   -5.962684

SPLIT: Orbitals with angular momentum L= 1

SPLIT: Basis orbitals for state 2p

SPLIT: PAO cut-off radius determined from an
SPLIT: energy shift=  0.007350 Ry

   izeta = 1
                 lambda =    1.000000
                     rc =    5.658549
                 energy =   -0.381140
                kinetic =    2.399701
    potential(screened) =   -2.780841
       potential(ionic) =   -6.206085

   izeta = 2
                 rmatch =    3.653288
              splitnorm =    0.150000
                 energy =   -0.249149
                kinetic =    3.542762
    potential(screened) =   -3.791911
       potential(ionic) =   -7.581078

POLgen: Perturbative polarization orbital with L=  2

POLgen: Polarization orbital for state 2p

   izeta = 1
                     rc =    5.658549
                 energy =    1.109913
                kinetic =    2.304789
    potential(screened) =   -1.194876
       potential(ionic) =   -4.013592
atom: Total number of Sankey-type orbitals: 13

atm_pop: Valence configuration (for local Pseudopot. screening):
 2s( 2.00)                                                            
 2p( 2.00)                                                            
Vna: chval, zval:    4.00000   4.00000

Vna:  Cut-off radius for the neutral-atom potential:   5.658549
comcore: Pseudo-core radius Rcore=  1.791422

atom: _________________________________________________________________________

prinput: Basis input ----------------------------------------------------------

PAO.BasisType split     

%block ChemicalSpeciesLabel
    1    5 B                       # Species index, atomic number, species label
    2    6 C                       # Species index, atomic number, species label
%endblock ChemicalSpeciesLabel

%block PAO.Basis                 # Define Basis set
B                     2                    # Species label, number of l-shells
 n=2   0   2                         # n, l, Nzeta 
   5.422      4.223   
   1.000      1.000   
 n=2   1   2 P   1                   # n, l, Nzeta, Polarization, NzetaPol
   6.790      4.609   
   1.000      1.000   
C                     2                    # Species label, number of l-shells
 n=2   0   2                         # n, l, Nzeta 
   4.633      3.432   
   1.000      1.000   
 n=2   1   2 P   1                   # n, l, Nzeta, Polarization, NzetaPol
   5.659      3.653   
   1.000      1.000   
%endblock PAO.Basis

prinput: ----------------------------------------------------------------------

coor:   Atomic-coordinates input format  =     Fractional

siesta: Atomic coordinates (Bohr) and species
siesta:     -2.35420  38.89134   0.00000  1        1
siesta:     -2.35420  41.57980   0.00000  1        2
siesta:      9.28770  18.72698   0.00000  1        3
siesta:      9.28770  21.41544   0.00000  1        4
siesta:      6.95932  22.75985   0.00000  1        5
siesta:      6.95932  25.44831   0.00000  1        6
siesta:     -7.01096  17.38257   0.00000  1        7
siesta:     -2.35420  22.75985   0.00000  1        8
siesta:     -2.35420  25.44831   0.00000  1        9
siesta:     -9.33934  18.72698   0.00000  1       10
siesta:     -9.33934  21.41544   0.00000  1       11
siesta:     -0.02582  26.79272   0.00000  1       12
siesta:     -0.02582  29.48119   0.00000  1       13
siesta:     -0.02582  34.85847   0.00000  1       14
siesta:     -0.02582  37.54693   0.00000  1       15
siesta:     -0.02582  42.92421   0.00000  1       16
siesta:     -0.02582   2.59549   0.00000  2       17
siesta:     -0.02582   5.28395   0.00000  2       18
siesta:      2.30256  38.89134   0.00000  2       19
siesta:      2.30256  41.57980   0.00000  2       20
siesta:      4.63094  34.85847   0.00000  2       21
siesta:      4.63094  37.54693   0.00000  2       22
siesta:      6.95932  30.82560   0.00000  2       23
siesta:      6.95932  33.51406   0.00000  2       24
siesta:      9.28770  26.79272   0.00000  2       25
siesta:      9.28770  29.48119   0.00000  2       26
siesta:     -4.68258  34.85847   0.00000  2       27
siesta:     -4.68258  37.54693   0.00000  2       28
siesta:      2.30256   6.62836   0.00000  2       29
siesta:      2.30256   9.31683   0.00000  2       30
siesta:      4.63094  10.66124   0.00000  2       31
siesta:      4.63094  13.34970   0.00000  2       32
siesta:      6.95932  14.69411   0.00000  2       33
siesta:      6.95932  17.38257   0.00000  2       34
siesta:     11.61608  22.75985   0.00000  2       35
siesta:     11.61608  25.44831   0.00000  2       36
siesta:     -2.35420   6.62836   0.00000  2       37
siesta:     -2.35420   9.31683   0.00000  2       38
siesta:     -0.02582  10.66124   0.00000  2       39
siesta:     -0.02582  13.34970   0.00000  2       40
siesta:      2.30256  14.69411   0.00000  2       41
siesta:      2.30256  17.38257   0.00000  2       42
siesta:      4.63094  18.72698   0.00000  2       43
siesta:      4.63094  21.41544   0.00000  2       44
siesta:     -4.68258  10.66124   0.00000  2       45
siesta:     -4.68258  13.34970   0.00000  2       46
siesta:     -2.35420  14.69411   0.00000  2       47
siesta:     -2.35420  17.38257   0.00000  2       48
siesta:     -0.02582  18.72698   0.00000  2       49
siesta:     -0.02582  21.41544   0.00000  2       50
siesta:      2.30256  22.75985   0.00000  2       51
siesta:      2.30256  25.44831   0.00000  2       52
siesta:     -7.01096  14.69411   0.00000  2       53
siesta:     -4.68258  18.72698   0.00000  2       54
siesta:     -4.68258  21.41544   0.00000  2       55
siesta:     -7.01096  22.75985   0.00000  2       56
siesta:     -7.01096  25.44831   0.00000  2       57
siesta:    -11.66772  22.75985   0.00000  2       58
siesta:    -11.66772  25.44831   0.00000  2       59
siesta:     -9.33934  26.79272   0.00000  2       60
siesta:     -9.33934  29.48119   0.00000  2       61
siesta:      4.63094  26.79272   0.00000  2       62
siesta:      4.63094  29.48119   0.00000  2       63
siesta:     -4.68258  26.79272   0.00000  2       64
siesta:     -4.68258  29.48119   0.00000  2       65
siesta:      2.30256  30.82560   0.00000  2       66
siesta:      2.30256  33.51406   0.00000  2       67
siesta:     -2.35420  30.82560   0.00000  2       68
siesta:     -2.35420  33.51406   0.00000  2       69
siesta:     -7.01096  30.82560   0.00000  2       70
siesta:     -7.01096  33.51406   0.00000  2       71
siesta:     -0.02582  45.61267   0.00000  2       72

siesta: System type = slab      

initatomlists: Number of atoms, orbitals, and projectors:     72   936  1152

siesta: ******************** Simulation parameters ****************************
siesta:
siesta: The following are some of the parameters of the simulation.
siesta: A complete list of the parameters used, including default values,
siesta: can be found in file out.fdf
siesta:
redata: Non-Collinear-spin run           =     F
redata: SpinPolarized (Up/Down) run      =     F
redata: Number of spin components        =     1
redata: Long output                      =     F
redata: Number of Atomic Species         =        2
redata: Charge density info will appear in .RHO file
redata: Write Mulliken Pop.              =     NO
redata: Mesh Cutoff                      =   200.0000  Ry
redata: Net charge of the system         =     0.0000 |e|
redata: Max. number of SCF Iter          =      500
redata: SCF convergence failure will abort job
redata: Performing Pulay mixing using    =    10 iterations
redata: Mix DM in first SCF step ?       =     F
redata: Write Pulay info on disk?        =     F
redata: Discard 1st Pulay DM after  kick =     F
redata: New DM Mixing Weight             =     0.0500
redata: New DM Occupancy tolerance       = 0.000000000001
redata: No kicks to SCF
redata: DM Mixing Weight for Kicks       =     0.5000
redata: DM Tolerance for SCF             =     0.000100
redata: Require Energy convergence for SCF =     F
redata: DM Energy tolerance for SCF      =     0.000100 eV
redata: Require Harris convergence for SCF =     F
redata: DM Harris energy tolerance for SCF =     0.000100 eV
redata: Using Saved Data (generic)   =     F
redata: Use continuation files for DM    =     T
redata: Neglect nonoverlap interactions  =     F
redata: Method of Calculation            =     Diagonalization
redata: Divide and Conquer               =     T
redata: Electronic Temperature           =     0.0019  Ry
redata: Fix the spin of the system       =     F
redata: Dynamics option                  =     Verlet MD run
redata: Initial MD time step             =        1
redata:   Final MD time step             =        1
redata: Length of MD time step           =     1.0000  fs
redata: Initial Temperature of MD run    =     0.0000  K
redata: Perform a MD quench              =     F
redata: ***********************************************************************
Total number of electrons:   272.000000
Total ionic charge:   272.000000

* ProcessorY, Blocksize:    2  24

k-point displ. along   1 input, could be:     0.50    0.00
k-point displ. along   2 input, could be:     0.50    0.00
 Kpoints in:          231 . Kpoints trimmed:          231

siesta: k-grid: Number of k-points =   231
siesta: k-grid: Cutoff (effective) =     5.000 Ang
siesta: k-grid: Supercell and displacements
siesta: k-grid:   21   0   0      0.500
siesta: k-grid:    0  21   0      0.500
siesta: k-grid:    0   0   1      0.000
Naive supercell factors:     2    2    2

superc: Internal auxiliary supercell:     2 x     2 x     2  =       8
superc: Number of atoms, orbitals, and projectors:    576   7488   9216

* Maximum dynamic memory allocated =     4 MB

siesta:                 ==============================
                            Begin MD step =      1
                        ==============================

superc: Internal auxiliary supercell:     2 x     2 x     2  =       8
superc: Number of atoms, orbitals, and projectors:    576   7488   9216

outcell: Unit cell vectors (Ang):
       12.804619    7.392750    0.000000
        0.000000   14.785500    0.000000
        0.000000    0.000000   10.000000

outcell: Cell vector modules (Ang)   :   14.785500   14.785500   10.000000
outcell: Cell angles (23,13,12) (deg):     90.0000     90.0000     60.0000
outcell: Cell volume (Ang**3)        :   1893.2269
New_DM. Step:     1
Initializing Density Matrix...

InitMesh: MESH =   120 x   120 x    90 =     1296000
InitMesh: Mesh cutoff (required, used) =   200.000   223.865 Ry

* Maximum dynamic memory allocated =   218 MB

stepf: Fermi-Dirac step function

siesta: Program's energy decomposition (eV):
siesta: Ebs     =     -5599.413527
siesta: Eions   =     16354.103692
siesta: Ena     =      4343.590414
siesta: Ekin    =      5534.369168
siesta: Enl     =       775.784374
siesta: DEna    =        -0.000010
siesta: DUscf   =         0.000000
siesta: DUext   =         0.000000
siesta: Exc     =     -4189.045928
siesta: eta*DQ  =         0.000000
siesta: Emadel  =         0.000000
siesta: Emeta   =         0.000000
siesta: Emolmec =         0.000000
siesta: Ekinion =         0.000000
siesta: Eharris =     -9654.908814
siesta: Etot    =     -9889.405673
siesta: FreeEng =     -9889.405673

siesta: iscf   Eharris(eV)      E_KS(eV)   FreeEng(eV)   dDmax  Ef(eV)
siesta:    1    -9654.9088    -9889.4057    -9889.4057  7.3149 -8.3182
timer: Routine,Calls,Time,% = IterSCF        1    4455.790  99.74
elaps: Routine,Calls,Wall,% = IterSCF        1     557.664  99.74
siesta:    2   -14116.8669    -8875.0966    -8875.1578 13.7075 -3.8368
siesta:    3    -9696.8548    -9694.4306    -9694.4856  1.4353 -5.6745
siesta:    4    -9614.6236    -9628.4249    -9628.4531  1.4432 -5.3439
siesta:    5    -9537.0923    -9559.6082    -9559.6321  1.3186 -4.8501
siesta:    6    -9519.9740    -9533.2309    -9533.2444  1.0871 -4.9505
siesta:    7    -9515.7599    -9524.0443    -9524.0933  1.1899 -4.8146
siesta:    8    -9506.6142    -9491.5145    -9491.5414  0.8352 -4.9102
siesta:    9    -9503.5985    -9487.0944    -9487.1595  0.7439 -4.9452
siesta:   10    -9502.2549    -9485.3586    -9485.4075  0.6691 -4.9453
siesta:   11    -9501.0440    -9483.8801    -9483.9471  0.5688 -4.9465
siesta:   12    -9499.4293    -9479.2644    -9479.3071  0.8343 -5.0051
siesta:   13    -9498.9266    -9475.5743    -9475.6372  0.3203 -5.0125
siesta:   14    -9498.2046    -9478.2469    -9478.3076  0.2938 -5.0563
siesta:   15    -9497.9118    -9481.2321    -9481.3014  0.2728 -5.0707
siesta:   16    -9497.4559    -9485.6269    -9485.6916  0.2397 -5.0858
siesta:   17    -9497.6881    -9491.9222    -9491.9766  0.6910 -5.0838
siesta:   18    -9497.0166    -9490.4524    -9490.4912  0.2000 -5.1561
siesta:   19    -9496.9481    -9490.9983    -9491.0591  0.1822 -5.1519
siesta:   20    -9496.9071    -9494.6633    -9494.7217  0.2002 -5.1655
siesta:   21    -9496.8647    -9496.4121    -9496.4794  0.0912 -5.1681
siesta:   22    -9496.8656    -9499.3352    -9499.4058  0.1077 -5.1843
siesta:   23    -9496.8548    -9500.1560    -9500.2271  0.1145 -5.1843
siesta:   24    -9496.8474    -9500.5112    -9500.5835  0.0918 -5.1783
siesta:   25    -9496.8394    -9500.9922    -9501.0645  0.0732 -5.1727
siesta:   26    -9496.8328    -9500.6450    -9500.7199  0.0760 -5.1650
siesta:   27    -9496.8236    -9500.3207    -9500.3928  0.0394 -5.1503
siesta:   28    -9496.8239    -9499.6569    -9499.7335  0.0365 -5.1492
siesta:   29    -9496.8222    -9499.0322    -9499.1070  0.0158 -5.1453
siesta:   30    -9496.8201    -9498.3024    -9498.3771  0.0109 -5.1419
siesta:   31    -9496.8190    -9498.0662    -9498.1400  0.0105 -5.1429
siesta:   32    -9496.8183    -9497.7784    -9497.8526  0.0060 -5.1445
siesta:   33    -9496.8178    -9497.4728    -9497.5471  0.0039 -5.1462
siesta:   34    -9496.8178    -9497.2338    -9497.3083  0.0037 -5.1464
siesta:   35    -9496.8180    -9496.9865    -9497.0609  0.0035 -5.1463
siesta:   36    -9496.8178    -9496.9442    -9497.0183  0.0018 -5.1466
siesta:   37    -9496.8179    -9496.8962    -9496.9705  0.0009 -5.1469
siesta:   38    -9496.8179    -9496.8954    -9496.9695  0.0010 -5.1472
siesta:   39    -9496.8179    -9496.8783    -9496.9524  0.0011 -5.1474
siesta:   40    -9496.8179    -9496.8650    -9496.9391  0.0008 -5.1475
siesta:   41    -9496.8178    -9496.8500    -9496.9242  0.0008 -5.1475
siesta:   42    -9496.8179    -9496.8184    -9496.8926  0.0007 -5.1475
siesta:   43    -9496.8179    -9496.8267    -9496.9009  0.0003 -5.1474
siesta:   44    -9496.8179    -9496.8338    -9496.9080  0.0003 -5.1473
siesta:   45    -9496.8179    -9496.8297    -9496.9038  0.0004 -5.1473
siesta:   46    -9496.8179    -9496.8183    -9496.8925  0.0002 -5.1473
siesta:   47    -9496.8179    -9496.8118    -9496.8860  0.0001 -5.1474

siesta: E_KS(eV) =            -9496.8108

siesta: E_KS - E_eggbox =     -9496.8108

siesta: Atomic forces (eV/Ang):
----------------------------------------
   Tot   -0.134391   -0.177468    0.000000
----------------------------------------
   Max  573.691124
   Res  148.456274    sqrt( Sum f_i^2 / 3N )
----------------------------------------
   Max  573.691124    constrained

Stress-tensor-Voigt (kbar):     -753.91    -2661.12       -0.53        7.82        0.00        0.00
(Free)E + p*V (eV/cell)    -8151.5550
Target enthalpy (eV/cell)    -9496.8850

siesta: Stress tensor (static) (eV/Ang**3):
        -0.470549    0.004882    0.000000
         0.004882   -1.660924    0.000000
         0.000000    0.000000   -0.000331

siesta: Pressure (static):       1138.52155127  kBar

siesta: Stress tensor (total) (eV/Ang**3):
        -0.470549    0.004882    0.000000
         0.004882   -1.660924    0.000000
         0.000000    0.000000   -0.000331

siesta: Pressure (total):       1138.52155127  kBar

siesta: Temp_ion =       0.000 K

* Maximum dynamic memory allocated =   235 MB
Computing bands...

siesta: Program's energy decomposition (eV):
siesta: Ebs     =     -4225.380499
siesta: Eions   =     16354.103692
siesta: Ena     =      4343.590414
siesta: Ekin    =      8400.598838
siesta: Enl     =      -852.444717
siesta: DEna    =      -781.615791
siesta: DUscf   =       107.024665
siesta: DUext   =         0.000000
siesta: Exc     =     -4359.860528
siesta: eta*DQ  =         0.000000
siesta: Emadel  =         0.000000
siesta: Emeta   =         0.000000
siesta: Emolmec =         0.000000
siesta: Ekinion =         0.000000
siesta: Eharris =     -9496.817864
siesta: Etot    =     -9496.810811
siesta: FreeEng =     -9496.884997

siesta: Final energy (eV):
siesta:  Band Struct. =   -4225.380499
siesta:       Kinetic =    8400.598838
siesta:       Hartree =   27316.927482
siesta:    Ext. field =       0.000000
siesta:   Exch.-corr. =   -4359.860528
siesta:  Ion-electron =  -62721.654897
siesta:       Ion-ion =   21867.178294
siesta:       Ekinion =       0.000000
siesta:         Total =   -9496.810811

siesta: Atomic forces (eV/Ang):
siesta:      1    2.203556  105.116283    0.000000
siesta:      2    0.266324 -392.750990    0.000000
siesta:      3   -0.229228   -5.579022    0.000000
siesta:      4    9.600297    1.422631    0.000000
siesta:      5   -4.446282   -3.317963    0.000000
siesta:      6   -0.438942    4.521535    0.000000
siesta:      7    0.574147   -4.937734    0.000000
siesta:      8    0.022482   -4.749614    0.000000
siesta:      9   -4.064157    2.687230    0.000000
siesta:     10   -3.700525   -3.056152    0.000000
siesta:     11   -3.838230    2.642637    0.000000
siesta:     12    3.760954   -0.466934    0.000000
siesta:     13    0.860353 -411.515987    0.000000
siesta:     14    1.067510  113.482130    0.000000
siesta:     15   -5.480452 -392.390500    0.000000
siesta:     16   -5.137402  107.287433    0.000000
siesta:     17   -0.494533  410.223830    0.000000
siesta:     18    0.128409 -125.662839    0.000000
siesta:     19   -6.559237  118.299284    0.000000
siesta:     20    4.389915 -545.617704    0.000000
siesta:     21   26.577483    4.146952    0.000000
siesta:     22   34.645664 -546.907244    0.000000
siesta:     23    2.143138    0.573228    0.000000
siesta:     24   -2.696726    1.828281    0.000000
siesta:     25    6.625359    3.508622    0.000000
siesta:     26   -1.392445    0.109911    0.000000
siesta:     27  -27.273701    4.454538    0.000000
siesta:     28  -25.702479 -543.170266    0.000000
siesta:     29   22.945530  548.312539    0.000000
siesta:     30   -2.638696 -127.903564    0.000000
siesta:     31   34.464335  547.772610    0.000000
siesta:     32   26.415901   -3.445444    0.000000
siesta:     33   -2.379020   -1.510051    0.000000
siesta:     34   -1.164867   -3.500335    0.000000
siesta:     35    1.034095    6.852355    0.000000
siesta:     36    0.315910   -5.070825    0.000000
siesta:     37  -22.865923  551.648923    0.000000
siesta:     38    3.331611 -128.796744    0.000000
siesta:     39    2.056831  408.521044    0.000000
siesta:     40   -6.200794 -124.519209    0.000000
siesta:     41   36.558410  559.147964    0.000000
siesta:     42   18.797009   -6.937218    0.000000
siesta:     43   -0.830292    1.121839    0.000000
siesta:     44   -2.128576   -0.853814    0.000000
siesta:     45  -36.099703  549.479433    0.000000
siesta:     46  -23.933757   -2.890588    0.000000
siesta:     47  -31.330070  408.798875    0.000000
siesta:     48  -20.031358   -2.728434    0.000000
siesta:     49    0.629620  573.691124    0.000000
siesta:     50    2.783859   -1.271037    0.000000
siesta:     51   -0.102296   -1.221152    0.000000
siesta:     52    2.002462   -0.583517    0.000000
siesta:     53    2.429554   -4.381851    0.000000
siesta:     54    3.813848    2.366687    0.000000
siesta:     55   -2.212435   -0.696553    0.000000
siesta:     56    2.769659    1.610840    0.000000
siesta:     57   -0.189692   -0.425816    0.000000
siesta:     58   -2.607404    8.905642    0.000000
siesta:     59   -0.355695   -7.083277    0.000000
siesta:     60   -1.864427    1.776973    0.000000
siesta:     61    0.659585    0.766707    0.000000
siesta:     62   -2.503101    0.628764    0.000000
siesta:     63   -1.766864   -0.339388    0.000000
siesta:     64   -1.988745    1.434605    0.000000
siesta:     65    0.936310   -0.979709    0.000000
siesta:     66   21.073246    1.901889    0.000000
siesta:     67   17.754821 -549.719083    0.000000
siesta:     68  -21.084719    2.468303    0.000000
siesta:     69  -17.900157 -551.114049    0.000000
siesta:     70   -2.057018    0.067761    0.000000
siesta:     71    2.437189    2.151029    0.000000
siesta:     72   -0.519818 -553.813288    0.000000
siesta: ----------------------------------------
siesta:    Tot   -0.134391   -0.177468    0.000000

siesta: Stress tensor (static) (eV/Ang**3):
siesta:    -0.470549    0.004882    0.000000
siesta:     0.004882   -1.660924    0.000000
siesta:     0.000000    0.000000   -0.000331

siesta: Cell volume =       1893.226884 Ang**3

siesta: Pressure (static):
siesta:                Solid            Molecule  Units
siesta:           0.00773936          0.11435877  Ry/Bohr**3
siesta:           0.71060158         10.50003354  eV/Ang**3
siesta:        1138.52155127      16823.09023700  kBar
(Free)E+ p_basis*V_orbitals  =       -9461.092125
(Free)Eharris+ p_basis*V_orbitals  =       -9461.098141

siesta: Electric dipole (a.u.)  =    0.000000    0.000000    0.000000
siesta: Electric dipole (Debye) =    0.000000    0.000000    0.000000

* Maximum dynamic memory allocated : Node    0 =   235 MB
* Maximum dynamic memory allocated : Node    1 =    82 MB
* Maximum dynamic memory allocated : Node    2 =    84 MB
* Maximum dynamic memory allocated : Node    3 =   222 MB
* Maximum dynamic memory allocated : Node    4 =   225 MB
* Maximum dynamic memory allocated : Node    5 =    81 MB
* Maximum dynamic memory allocated : Node    6 =    85 MB
* Maximum dynamic memory allocated : Node    7 =   207 MB

* Maximum memory occured during matrixMtoO                    

timer: CPU execution times:
timer:  Routine       Calls   Time/call    Tot.time        %
timer:  siesta            1  206870.416  206870.416   100.00
timer:  Setup             1       3.032       3.032     0.00
timer:  bands             3     269.224     807.672     0.39
timer:  writewave         1       0.017       0.017     0.00
timer:  KSV_init          1       0.000       0.000     0.00
timer:  IterMD            1  206053.860  206053.860    99.61
timer:  hsparse           1       0.395       0.395     0.00
timer:  overlap           1       7.777       7.777     0.00
timer:  IterSCF          47    4379.524  205837.616    99.50
timer:  kinefsm           2       4.060       8.120     0.00
timer:  nlefsm            2      21.022      42.044     0.02
timer:  DHSCF            48     115.192    5529.219     2.67
timer:  DHSCF1            1       0.987       0.987     0.00
timer:  DHSCF2            1      43.866      43.866     0.02
timer:  REORD           386       0.010       3.904     0.00
timer:  POISON           49       2.256     110.547     0.05
timer:  DHSCF3           48     113.354    5440.989     2.63
timer:  rhoofd           48      24.134    1158.412     0.56
timer:  cellXC           48       3.526     169.250     0.08
timer:  vmat             48      55.210    2650.092     1.28
timer:  MolMec            2       0.000       0.000     0.00
timer:  diagon           47    4263.106  200365.975    96.86
timer:  c-eigval      10978       6.680   73337.169    35.45
timer:  c-buildHS     10978       0.123    1345.576     0.65
timer:  cdiag         21835       6.883  150287.936    72.65
timer:  cdiag1        21835       0.430    9389.967     4.54
timer:  cdiag2        21835       1.915   41814.579    20.21
timer:  cdiag3        21835       3.937   85958.795    41.55
timer:  cdiag4        21835       0.227    4945.815     2.39
timer:  c-eigvec      10857       7.286   79100.390    38.24
timer:  c-buildD      10857       4.483   48676.700    23.53
timer:  DHSCF4            1      40.824      40.824     0.02
timer:  dfscf             1      38.191      38.191     0.02
timer:  overfsm           1       0.467       0.467     0.00
timer:  optical           1       5.104       5.104     0.00
  

elaps: ELAPSED times:
elaps:  Routine       Calls   Time/call    Tot.time        %
elaps:  siesta            1   25888.762   25888.762   100.00
elaps:  Setup             1       0.378       0.378     0.00
elaps:  bands             3      33.704     101.112     0.39
elaps:  writewave         1       0.002       0.002     0.00
elaps:  KSV_init          1       0.000       0.000     0.00
elaps:  IterMD            1   25786.598   25786.598    99.61
elaps:  hsparse           1       0.051       0.051     0.00
elaps:  overlap           1       0.991       0.991     0.00
elaps:  IterSCF          47     548.075   25759.546    99.50
elaps:  kinefsm           2       0.515       1.030     0.00
elaps:  nlefsm            2       2.707       5.413     0.02
elaps:  DHSCF            48      14.516     696.748     2.69
elaps:  DHSCF1            1       0.127       0.127     0.00
elaps:  DHSCF2            1       5.487       5.487     0.02
elaps:  REORD           386       0.001       0.519     0.00
elaps:  POISON           49       0.283      13.843     0.05
elaps:  DHSCF3           48      14.181     680.687     2.63
elaps:  rhoofd           48       6.498     311.890     1.20
elaps:  cellXC           48       0.440      21.128     0.08
elaps:  vmat             48       6.906     331.512     1.28
elaps:  MolMec            2       0.000       0.000     0.00
elaps:  diagon           47     533.535   25076.145    96.86
elaps:  c-eigval      10978       0.836    9175.666    35.44
elaps:  c-buildHS     10978       0.017     184.293     0.71
elaps:  cdiag         21835       0.848   18505.461    71.48
elaps:  cdiag1        21835       0.053    1157.660     4.47
elaps:  cdiag2        21835       0.240    5232.152    20.21
elaps:  cdiag3        21835       0.493   10769.755    41.60
elaps:  cdiag4        21835       0.028     621.832     2.40
elaps:  c-eigvec      10857       0.888    9636.280    37.22
elaps:  c-buildD      10857       0.585    6356.662    24.55
elaps:  DHSCF4            1      10.100      10.100     0.04
elaps:  dfscf             1       9.584       9.584     0.04
elaps:  overfsm           1       0.063       0.063     0.00
elaps:  optical           1       0.000       0.000     0.00
  
>> End of run:   2-MAY-2016   7:17:38
