Siesta Version:                                        siesta-3.2-pl-3
Architecture  : x86_64-unknown-linux-gnu--unknown
Compiler flags: mpiifort -g -O2 -fPIC -xSSE4.1 -fp-model source -shared-intel 
PARALLEL version

* Running on    8 nodes in parallel
>> Start of run:  28-APR-2016  11:36:31

                           ***********************       
                           *  WELCOME TO SIESTA  *       
                           ***********************       

reinit: Reading from standard input
************************** Dump of input data file ****************************
#(1) General system descriptors
SystemName            GRP_doping    # Descriptive name of the system
SystemLabel           GRP_doping    # Short name for naming files
%include STRUCT.fdf
%include KPT.fdf
%include BASIS.fdf
#%include TS.fdf # for transiesta calculation
#(4) DFT, Grid, SCF
XC.functional         GGA           # LDA or GGA (default = LDA)
XC.authors            PBE           # CA (Ceperley-Aldr) = PZ
                                    #    (Perdew-Zunger) - LDA - Default
                                    # PW92 (Perdew-Wang-92) - LDA
                                    # PBE (Perdew-Burke-Ernzerhof) - GGA
MeshCutoff            200.000000    Ry      # Default: 50.0 Ry ~ 0.444 Bohr
                                    #         100.0 Ry ~ 0.314 Bohr
MaxSCFIterations      500           # Default: 50
DM.MixingWeight       0.05          # Default: 0.25
DM.NumberPulay        10            # Default: 0
DM.PulayOnFile        F             # SystemLabel.P1, SystemLabel.P2
DM.Tolerance          1.d-4         # Default: 1.d-4
DM.UseSaveDM          .true.        # because of the bug
SCFMustConverge       .true.
NeglNonOverlapInt     F             # Default: F
#(5) Eigenvalue problem: order-N or diagonalization
SolutionMethod        Diagon        # or Transiesta
ElectronicTemperature 300.0 K       # Default: 300.0 K
#(6) Molecular dynamics and relaxations
#MD.TypeOfRun          CG            # Type of dynamics:
#MD.VariableCell       F
#MD.NumCGsteps         0           # 0 for single-point / 100 for gopt
#MD.MaxCGDispl         0.2 Bohr      # Default: 0.2 Bohr
#MD.MaxForceTol        0.02 eV/Ang   # Default: 0.04 eV/Ang
#MD.MaxStressTol       1.0 GPa       # Default: 1.0 GPa
# Geometry Constraints
#%block GeometryConstraints
#	position from 1 to 44
#%endblock GeometryConstraints
BandLinesScale   pi/a
%block BandLines
 1   0.00000000  0.00000000  0.00000000
50   0.00000000  0.07809418  0.00000000
50   0.04509075  0.07809242  0.00000000
20   0.00000000  0.00000000  0.00000000
%endblock BandLines
************************** End of input data file *****************************

reinit: -----------------------------------------------------------------------
reinit: System Name: GRP_doping
reinit: -----------------------------------------------------------------------
reinit: System Label: GRP_doping                                                  
reinit: -----------------------------------------------------------------------

initatom: Reading input for the pseudopotentials and atomic orbitals ----------
 Species number:            1  Label: N Atomic number:           7
 Species number:            2  Label: C Atomic number:           6
Ground state valence configuration:   2s02  2p03
Reading pseudopotential information in formatted form from N.psf

Valence configuration for pseudopotential generation:
2s( 2.00) rc: 1.48
2p( 3.00) rc: 1.48
3d( 0.00) rc: 1.48
4f( 0.00) rc: 1.48
Ground state valence configuration:   2s02  2p02
Reading pseudopotential information in formatted form from C.psf

Valence configuration for pseudopotential generation:
2s( 2.00) rc: 1.54
2p( 2.00) rc: 1.54
3d( 0.00) rc: 1.54
4f( 0.00) rc: 1.54
For N, standard SIESTA heuristics set lmxkb to 3
 (one more than the basis l, including polarization orbitals).
Use PS.lmax or PS.KBprojectors blocks to override.
For C, standard SIESTA heuristics set lmxkb to 3
 (one more than the basis l, including polarization orbitals).
Use PS.lmax or PS.KBprojectors blocks to override.

<basis_specs>
===============================================================================
N                    Z=   7    Mass=  14.010        Charge= 0.17977+309
Lmxo=1 Lmxkb= 3    BasisType=split      Semic=F
L=0  Nsemic=0  Cnfigmx=2
          n=1  nzeta=2  polorb=0
            splnorm:   0.15000    
               vcte:    0.0000    
               rinn:    0.0000    
                rcs:    0.0000      0.0000    
            lambdas:    1.0000      1.0000    
L=1  Nsemic=0  Cnfigmx=2
          n=1  nzeta=2  polorb=1
            splnorm:   0.15000    
               vcte:    0.0000    
               rinn:    0.0000    
                rcs:    0.0000      0.0000    
            lambdas:    1.0000      1.0000    
-------------------------------------------------------------------------------
L=0  Nkbl=1  erefs: 0.17977+309
L=1  Nkbl=1  erefs: 0.17977+309
L=2  Nkbl=1  erefs: 0.17977+309
L=3  Nkbl=1  erefs: 0.17977+309
===============================================================================
</basis_specs>

atom: Called for N                     (Z =   7)

read_vps: Pseudopotential generation method:
read_vps: ATM3      Troullier-Martins                       
Total valence charge:    5.00000

read_vps: Pseudopotential includes a core correction:
read_vps: Pseudo-core for xc-correction

xc_check: Exchange-correlation functional:
xc_check: GGA Perdew, Burke & Ernzerhof 1996
V l=0 = -2*Zval/r beyond r=  1.4606
V l=1 = -2*Zval/r beyond r=  1.4606
V l=2 = -2*Zval/r beyond r=  1.4606
V l=3 = -2*Zval/r beyond r=  1.4606
All V_l potentials equal beyond r=  1.4606
This should be close to max(r_c) in ps generation
All pots = -2*Zval/r beyond r=  1.4606

VLOCAL1: 99.0% of the norm of Vloc inside     20.347 Ry
VLOCAL1: 99.9% of the norm of Vloc inside     46.372 Ry
atom: Maximum radius for 4*pi*r*r*local-pseudopot. charge    1.76189
atom: Maximum radius for r*vlocal+2*Zval:    1.53550
GHOST: No ghost state for L =  0
GHOST: No ghost state for L =  1
GHOST: No ghost state for L =  2
GHOST: No ghost state for L =  3

KBgen: Kleinman-Bylander projectors: 
   l= 0   rc=  1.634559   el= -1.363963   Ekb=  5.296955   kbcos=  0.335621
   l= 1   rc=  1.614250   el= -0.521451   Ekb= -5.259161   kbcos= -0.433408
   l= 2   rc=  1.718383   el=  0.001991   Ekb= -1.271464   kbcos= -0.007566
   l= 3   rc=  1.761893   el=  0.003093   Ekb= -0.494769   kbcos= -0.001015

KBgen: Total number of  Kleinman-Bylander projectors:   16
atom: -------------------------------------------------------------------------

atom: SANKEY-TYPE ORBITALS:
atom: Selected multiple-zeta basis: split     

SPLIT: Orbitals with angular momentum L= 0

SPLIT: Basis orbitals for state 2s

SPLIT: PAO cut-off radius determined from an
SPLIT: energy shift=  0.007350 Ry

   izeta = 1
                 lambda =    1.000000
                     rc =    4.071465
                 energy =   -1.356470
                kinetic =    1.176977
    potential(screened) =   -2.533447
       potential(ionic) =   -8.057990

   izeta = 2
                 rmatch =    2.905100
              splitnorm =    0.150000
                 energy =   -1.158343
                kinetic =    1.813009
    potential(screened) =   -2.971352
       potential(ionic) =   -8.901931

SPLIT: Orbitals with angular momentum L= 1

SPLIT: Basis orbitals for state 2p

SPLIT: PAO cut-off radius determined from an
SPLIT: energy shift=  0.007350 Ry

   izeta = 1
                 lambda =    1.000000
                     rc =    4.972977
                 energy =   -0.513884
                kinetic =    3.441732
    potential(screened) =   -3.955616
       potential(ionic) =   -9.287901

   izeta = 2
                 rmatch =    3.054066
              splitnorm =    0.150000
                 energy =   -0.318226
                kinetic =    5.125348
    potential(screened) =   -5.443573
       potential(ionic) =  -11.380999

POLgen: Perturbative polarization orbital with L=  2

POLgen: Polarization orbital for state 2p

   izeta = 1
                     rc =    4.972977
                 energy =    1.607437
                kinetic =    3.268125
    potential(screened) =   -1.660688
       potential(ionic) =   -5.973652
atom: Total number of Sankey-type orbitals: 13

atm_pop: Valence configuration (for local Pseudopot. screening):
 2s( 2.00)                                                            
 2p( 3.00)                                                            
Vna: chval, zval:    5.00000   5.00000

Vna:  Cut-off radius for the neutral-atom potential:   4.972977
comcore: Pseudo-core radius Rcore=  1.554824

atom: _________________________________________________________________________

<basis_specs>
===============================================================================
C                    Z=   6    Mass=  12.010        Charge= 0.17977+309
Lmxo=1 Lmxkb= 3    BasisType=split      Semic=F
L=0  Nsemic=0  Cnfigmx=2
          n=1  nzeta=2  polorb=0
            splnorm:   0.15000    
               vcte:    0.0000    
               rinn:    0.0000    
                rcs:    0.0000      0.0000    
            lambdas:    1.0000      1.0000    
L=1  Nsemic=0  Cnfigmx=2
          n=1  nzeta=2  polorb=1
            splnorm:   0.15000    
               vcte:    0.0000    
               rinn:    0.0000    
                rcs:    0.0000      0.0000    
            lambdas:    1.0000      1.0000    
-------------------------------------------------------------------------------
L=0  Nkbl=1  erefs: 0.17977+309
L=1  Nkbl=1  erefs: 0.17977+309
L=2  Nkbl=1  erefs: 0.17977+309
L=3  Nkbl=1  erefs: 0.17977+309
===============================================================================
</basis_specs>

atom: Called for C                     (Z =   6)

read_vps: Pseudopotential generation method:
read_vps: ATM3      Troullier-Martins                       
Total valence charge:    4.00000

read_vps: Pseudopotential includes a core correction:
read_vps: Pseudo-core for xc-correction

xc_check: Exchange-correlation functional:
xc_check: GGA Perdew, Burke & Ernzerhof 1996
V l=0 = -2*Zval/r beyond r=  1.5227
V l=1 = -2*Zval/r beyond r=  1.5227
V l=2 = -2*Zval/r beyond r=  1.5227
V l=3 = -2*Zval/r beyond r=  1.5038
All V_l potentials equal beyond r=  1.5227
This should be close to max(r_c) in ps generation
All pots = -2*Zval/r beyond r=  1.5227

VLOCAL1: 99.0% of the norm of Vloc inside     18.722 Ry
VLOCAL1: 99.9% of the norm of Vloc inside     42.668 Ry
atom: Maximum radius for 4*pi*r*r*local-pseudopot. charge    1.83678
atom: Maximum radius for r*vlocal+2*Zval:    1.58088
GHOST: No ghost state for L =  0
GHOST: No ghost state for L =  1
GHOST: No ghost state for L =  2
GHOST: No ghost state for L =  3

KBgen: Kleinman-Bylander projectors: 
   l= 0   rc=  1.704034   el= -1.009801   Ekb=  5.335044   kbcos=  0.316824
   l= 1   rc=  1.704034   el= -0.388707   Ekb= -3.785862   kbcos= -0.366464
   l= 2   rc=  1.791422   el=  0.001971   Ekb= -0.970471   kbcos= -0.009212
   l= 3   rc=  1.859892   el=  0.003065   Ekb= -0.399525   kbcos= -0.001223

KBgen: Total number of  Kleinman-Bylander projectors:   16
atom: -------------------------------------------------------------------------

atom: SANKEY-TYPE ORBITALS:
atom: Selected multiple-zeta basis: split     

SPLIT: Orbitals with angular momentum L= 0

SPLIT: Basis orbitals for state 2s

SPLIT: PAO cut-off radius determined from an
SPLIT: energy shift=  0.007350 Ry

   izeta = 1
                 lambda =    1.000000
                     rc =    4.632753
                 energy =   -1.002270
                kinetic =    0.855760
    potential(screened) =   -1.858031
       potential(ionic) =   -5.417575

   izeta = 2
                 rmatch =    3.431921
              splitnorm =    0.150000
                 energy =   -0.867111
                kinetic =    1.300804
    potential(screened) =   -2.167915
       potential(ionic) =   -5.962684

SPLIT: Orbitals with angular momentum L= 1

SPLIT: Basis orbitals for state 2p

SPLIT: PAO cut-off radius determined from an
SPLIT: energy shift=  0.007350 Ry

   izeta = 1
                 lambda =    1.000000
                     rc =    5.658549
                 energy =   -0.381140
                kinetic =    2.399701
    potential(screened) =   -2.780841
       potential(ionic) =   -6.206085

   izeta = 2
                 rmatch =    3.653288
              splitnorm =    0.150000
                 energy =   -0.249149
                kinetic =    3.542762
    potential(screened) =   -3.791911
       potential(ionic) =   -7.581078

POLgen: Perturbative polarization orbital with L=  2

POLgen: Polarization orbital for state 2p

   izeta = 1
                     rc =    5.658549
                 energy =    1.109913
                kinetic =    2.304789
    potential(screened) =   -1.194876
       potential(ionic) =   -4.013592
atom: Total number of Sankey-type orbitals: 13

atm_pop: Valence configuration (for local Pseudopot. screening):
 2s( 2.00)                                                            
 2p( 2.00)                                                            
Vna: chval, zval:    4.00000   4.00000

Vna:  Cut-off radius for the neutral-atom potential:   5.658549
comcore: Pseudo-core radius Rcore=  1.791422

atom: _________________________________________________________________________

prinput: Basis input ----------------------------------------------------------

PAO.BasisType split     

%block ChemicalSpeciesLabel
    1    7 N                       # Species index, atomic number, species label
    2    6 C                       # Species index, atomic number, species label
%endblock ChemicalSpeciesLabel

%block PAO.Basis                 # Define Basis set
N                     2                    # Species label, number of l-shells
 n=2   0   2                         # n, l, Nzeta 
   4.071      2.905   
   1.000      1.000   
 n=2   1   2 P   1                   # n, l, Nzeta, Polarization, NzetaPol
   4.973      3.054   
   1.000      1.000   
C                     2                    # Species label, number of l-shells
 n=2   0   2                         # n, l, Nzeta 
   4.633      3.432   
   1.000      1.000   
 n=2   1   2 P   1                   # n, l, Nzeta, Polarization, NzetaPol
   5.659      3.653   
   1.000      1.000   
%endblock PAO.Basis

prinput: ----------------------------------------------------------------------

coor:   Atomic-coordinates input format  =     Fractional

siesta: Atomic coordinates (Bohr) and species
siesta:     -2.35420  38.89134   0.00000  1        1
siesta:     -4.68258  34.85847   0.00000  1        2
siesta:     -4.68258  37.54693   0.00000  1        3
siesta:      9.28770  21.41544   0.00000  1        4
siesta:      6.95932  22.75985   0.00000  1        5
siesta:     -0.02582  21.41544   0.00000  1        6
siesta:      2.30256  22.75985   0.00000  1        7
siesta:     -4.68258  18.72698   0.00000  1        8
siesta:     -4.68258  21.41544   0.00000  1        9
siesta:     -2.35420  22.75985   0.00000  1       10
siesta:     -2.35420  25.44831   0.00000  1       11
siesta:     -7.01096  25.44831   0.00000  1       12
siesta:    -11.66772  22.75985   0.00000  1       13
siesta:    -11.66772  25.44831   0.00000  1       14
siesta:     -9.33934  26.79272   0.00000  1       15
siesta:     -9.33934  29.48119   0.00000  1       16
siesta:     -0.02582  26.79272   0.00000  1       17
siesta:     -4.68258  26.79272   0.00000  1       18
siesta:     -7.01096  30.82560   0.00000  1       19
siesta:     -7.01096  33.51406   0.00000  1       20
siesta:     -0.02582   2.59549   0.00000  2       21
siesta:     -0.02582   5.28395   0.00000  2       22
siesta:     -2.35420  41.57980   0.00000  2       23
siesta:      2.30256  38.89134   0.00000  2       24
siesta:      2.30256  41.57980   0.00000  2       25
siesta:      4.63094  34.85847   0.00000  2       26
siesta:      4.63094  37.54693   0.00000  2       27
siesta:      6.95932  30.82560   0.00000  2       28
siesta:      6.95932  33.51406   0.00000  2       29
siesta:      9.28770  26.79272   0.00000  2       30
siesta:      9.28770  29.48119   0.00000  2       31
siesta:      2.30256   6.62836   0.00000  2       32
siesta:      2.30256   9.31683   0.00000  2       33
siesta:      4.63094  10.66124   0.00000  2       34
siesta:      4.63094  13.34970   0.00000  2       35
siesta:      6.95932  14.69411   0.00000  2       36
siesta:      6.95932  17.38257   0.00000  2       37
siesta:      9.28770  18.72698   0.00000  2       38
siesta:     11.61608  22.75985   0.00000  2       39
siesta:     11.61608  25.44831   0.00000  2       40
siesta:     -2.35420   6.62836   0.00000  2       41
siesta:     -2.35420   9.31683   0.00000  2       42
siesta:     -0.02582  10.66124   0.00000  2       43
siesta:     -0.02582  13.34970   0.00000  2       44
siesta:      2.30256  14.69411   0.00000  2       45
siesta:      2.30256  17.38257   0.00000  2       46
siesta:      4.63094  18.72698   0.00000  2       47
siesta:      4.63094  21.41544   0.00000  2       48
siesta:      6.95932  25.44831   0.00000  2       49
siesta:     -4.68258  10.66124   0.00000  2       50
siesta:     -4.68258  13.34970   0.00000  2       51
siesta:     -2.35420  14.69411   0.00000  2       52
siesta:     -2.35420  17.38257   0.00000  2       53
siesta:     -0.02582  18.72698   0.00000  2       54
siesta:      2.30256  25.44831   0.00000  2       55
siesta:     -7.01096  14.69411   0.00000  2       56
siesta:     -7.01096  17.38257   0.00000  2       57
siesta:     -9.33934  18.72698   0.00000  2       58
siesta:     -9.33934  21.41544   0.00000  2       59
siesta:     -7.01096  22.75985   0.00000  2       60
siesta:      4.63094  26.79272   0.00000  2       61
siesta:      4.63094  29.48119   0.00000  2       62
siesta:     -0.02582  29.48119   0.00000  2       63
siesta:     -4.68258  29.48119   0.00000  2       64
siesta:      2.30256  30.82560   0.00000  2       65
siesta:      2.30256  33.51406   0.00000  2       66
siesta:     -2.35420  30.82560   0.00000  2       67
siesta:     -2.35420  33.51406   0.00000  2       68
siesta:     -0.02582  34.85847   0.00000  2       69
siesta:     -0.02582  37.54693   0.00000  2       70
siesta:     -0.02582  42.92421   0.00000  2       71
siesta:     -0.02582  45.61267   0.00000  2       72

siesta: System type = slab      

initatomlists: Number of atoms, orbitals, and projectors:     72   936  1152

siesta: ******************** Simulation parameters ****************************
siesta:
siesta: The following are some of the parameters of the simulation.
siesta: A complete list of the parameters used, including default values,
siesta: can be found in file out.fdf
siesta:
redata: Non-Collinear-spin run           =     F
redata: SpinPolarized (Up/Down) run      =     F
redata: Number of spin components        =     1
redata: Long output                      =     F
redata: Number of Atomic Species         =        2
redata: Charge density info will appear in .RHO file
redata: Write Mulliken Pop.              =     NO
redata: Mesh Cutoff                      =   200.0000  Ry
redata: Net charge of the system         =     0.0000 |e|
redata: Max. number of SCF Iter          =      500
redata: SCF convergence failure will abort job
redata: Performing Pulay mixing using    =    10 iterations
redata: Mix DM in first SCF step ?       =     F
redata: Write Pulay info on disk?        =     F
redata: Discard 1st Pulay DM after  kick =     F
redata: New DM Mixing Weight             =     0.0500
redata: New DM Occupancy tolerance       = 0.000000000001
redata: No kicks to SCF
redata: DM Mixing Weight for Kicks       =     0.5000
redata: DM Tolerance for SCF             =     0.000100
redata: Require Energy convergence for SCF =     F
redata: DM Energy tolerance for SCF      =     0.000100 eV
redata: Require Harris convergence for SCF =     F
redata: DM Harris energy tolerance for SCF =     0.000100 eV
redata: Using Saved Data (generic)   =     F
redata: Use continuation files for DM    =     T
redata: Neglect nonoverlap interactions  =     F
redata: Method of Calculation            =     Diagonalization
redata: Divide and Conquer               =     T
redata: Electronic Temperature           =     0.0019  Ry
redata: Fix the spin of the system       =     F
redata: Dynamics option                  =     Verlet MD run
redata: Initial MD time step             =        1
redata:   Final MD time step             =        1
redata: Length of MD time step           =     1.0000  fs
redata: Initial Temperature of MD run    =     0.0000  K
redata: Perform a MD quench              =     F
redata: ***********************************************************************
Total number of electrons:   308.000000
Total ionic charge:   308.000000

* ProcessorY, Blocksize:    2  24

k-point displ. along   1 input, could be:     0.50    0.00
k-point displ. along   2 input, could be:     0.50    0.00
 Kpoints in:          231 . Kpoints trimmed:          231

siesta: k-grid: Number of k-points =   231
siesta: k-grid: Cutoff (effective) =     5.000 Ang
siesta: k-grid: Supercell and displacements
siesta: k-grid:   21   0   0      0.500
siesta: k-grid:    0  21   0      0.500
siesta: k-grid:    0   0   1      0.000
Naive supercell factors:     2    2    2

superc: Internal auxiliary supercell:     2 x     2 x     2  =       8
superc: Number of atoms, orbitals, and projectors:    576   7488   9216

* Maximum dynamic memory allocated =     4 MB

siesta:                 ==============================
                            Begin MD step =      1
                        ==============================

superc: Internal auxiliary supercell:     2 x     2 x     2  =       8
superc: Number of atoms, orbitals, and projectors:    576   7488   9216

outcell: Unit cell vectors (Ang):
       12.804619    7.392750    0.000000
        0.000000   14.785500    0.000000
        0.000000    0.000000   10.000000

outcell: Cell vector modules (Ang)   :   14.785500   14.785500   10.000000
outcell: Cell angles (23,13,12) (deg):     90.0000     90.0000     60.0000
outcell: Cell volume (Ang**3)        :   1893.2269
New_DM. Step:     1
Initializing Density Matrix...

InitMesh: MESH =   120 x   120 x    90 =     1296000
InitMesh: Mesh cutoff (required, used) =   200.000   223.865 Ry

* Maximum dynamic memory allocated =   183 MB

stepf: Fermi-Dirac step function

siesta: Program's energy decomposition (eV):
siesta: Ebs     =     -6198.981542
siesta: Eions   =     21617.947954
siesta: Ena     =      4913.351440
siesta: Ekin    =      8056.630787
siesta: Enl     =        67.165449
siesta: DEna    =        -0.000015
siesta: DUscf   =         0.000000
siesta: DUext   =         0.000000
siesta: Exc     =     -4663.378377
siesta: eta*DQ  =         0.000000
siesta: Emadel  =         0.000000
siesta: Emeta   =         0.000000
siesta: Emolmec =         0.000000
siesta: Ekinion =         0.000000
siesta: Eharris =    -12898.380166
siesta: Etot    =    -13244.178669
siesta: FreeEng =    -13244.178669

siesta: iscf   Eharris(eV)      E_KS(eV)   FreeEng(eV)   dDmax  Ef(eV)
siesta:    1   -12898.3802   -13244.1787   -13244.1787  6.0254 -6.8202
timer: Routine,Calls,Time,% = IterSCF        1    3381.892  99.70
elaps: Routine,Calls,Wall,% = IterSCF        1     423.536  99.70
siesta:    2   -19826.8624   -11991.1628   -11991.1989 16.4206 -7.7064
siesta:    3   -12843.8393   -13069.2105   -13069.2357  2.8812 -5.1591
siesta:    4   -12805.6151   -12928.4882   -12928.5428  1.2574 -4.3730
siesta:    5   -12744.1707   -12820.4420   -12820.5030  0.8742 -3.6639
siesta:    6   -12737.3791   -12784.9524   -12784.9937  0.7956 -3.5456
siesta:    7   -12734.8125   -12774.3485   -12774.4001  0.8493 -3.5342
siesta:    8   -12727.9585   -12743.1082   -12743.1445  0.6784 -3.6928
siesta:    9   -12726.9145   -12737.7180   -12737.7789  0.6585 -3.6683
siesta:   10   -12726.6206   -12734.2621   -12734.3238  0.6027 -3.6746
siesta:   11   -12725.6506   -12713.9727   -12714.0331  0.3297 -3.6610
siesta:   12   -12725.7851   -12706.5528   -12706.6017  0.2861 -3.6554
siesta:   13   -12725.3153   -12701.5586   -12701.6215  0.2193 -3.6378
siesta:   14   -12724.5326   -12705.8603   -12705.8953  0.1543 -3.6318
siesta:   15   -12724.2592   -12709.1018   -12709.1558  0.1338 -3.6490
siesta:   16   -12724.1483   -12711.0082   -12711.0772  0.1091 -3.6537
siesta:   17   -12724.0745   -12714.7891   -12714.8428  0.0848 -3.6701
siesta:   18   -12724.0546   -12715.0899   -12715.1515  0.0745 -3.6670
siesta:   19   -12724.0251   -12716.8768   -12716.9313  0.0524 -3.6716
siesta:   20   -12724.0246   -12719.5480   -12719.6104  0.0306 -3.6672
siesta:   21   -12724.0252   -12720.9586   -12721.0188  0.0194 -3.6622
siesta:   22   -12724.0175   -12722.5065   -12722.5635  0.0129 -3.6604
siesta:   23   -12724.0131   -12723.5083   -12723.5675  0.0166 -3.6606
siesta:   24   -12724.0133   -12723.5548   -12723.6171  0.0122 -3.6596
siesta:   25   -12724.0135   -12723.9870   -12724.0478  0.0103 -3.6571
siesta:   26   -12724.0129   -12724.0464   -12724.1064  0.0083 -3.6566
siesta:   27   -12724.0126   -12724.1039   -12724.1646  0.0061 -3.6566
siesta:   28   -12724.0124   -12723.9378   -12723.9986  0.0026 -3.6573
siesta:   29   -12724.0124   -12723.9637   -12724.0246  0.0014 -3.6572
siesta:   30   -12724.0126   -12723.9623   -12724.0231  0.0009 -3.6569
siesta:   31   -12724.0126   -12724.0024   -12724.0630  0.0008 -3.6568
siesta:   32   -12724.0126   -12723.9843   -12724.0450  0.0006 -3.6569
siesta:   33   -12724.0125   -12723.9746   -12724.0352  0.0003 -3.6570
siesta:   34   -12724.0125   -12723.9742   -12724.0349  0.0002 -3.6571
siesta:   35   -12724.0125   -12723.9860   -12724.0467  0.0002 -3.6572
siesta:   36   -12724.0125   -12724.0038   -12724.0645  0.0002 -3.6572
siesta:   37   -12724.0125   -12724.0070   -12724.0678  0.0001 -3.6572

siesta: E_KS(eV) =           -12724.0088

siesta: E_KS - E_eggbox =    -12724.0088

siesta: Atomic forces (eV/Ang):
----------------------------------------
   Tot   -0.167763   -0.236571    0.000000
----------------------------------------
   Max  656.483496
   Res  165.141577    sqrt( Sum f_i^2 / 3N )
----------------------------------------
   Max  656.483496    constrained

Stress-tensor-Voigt (kbar):     -667.29    -2899.00       -0.02       13.18        0.00        0.00
(Free)E + p*V (eV/cell)   -11319.3659
Target enthalpy (eV/cell)   -12724.0695

siesta: Stress tensor (static) (eV/Ang**3):
        -0.416484    0.008225    0.000000
         0.008225   -1.809391    0.000000
         0.000000    0.000000   -0.000013

siesta: Pressure (static):       1188.76804339  kBar

siesta: Stress tensor (total) (eV/Ang**3):
        -0.416484    0.008225    0.000000
         0.008225   -1.809391    0.000000
         0.000000    0.000000   -0.000013

siesta: Pressure (total):       1188.76804339  kBar

siesta: Temp_ion =       0.000 K

* Maximum dynamic memory allocated =   200 MB
Computing bands...

siesta: Program's energy decomposition (eV):
siesta: Ebs     =     -5046.553579
siesta: Eions   =     21617.947954
siesta: Ena     =      4913.351440
siesta: Ekin    =     11001.473820
siesta: Enl     =     -1569.827359
siesta: DEna    =      -730.088643
siesta: DUscf   =       101.770168
siesta: DUext   =         0.000000
siesta: Exc     =     -4822.740238
siesta: eta*DQ  =         0.000000
siesta: Emadel  =         0.000000
siesta: Emeta   =         0.000000
siesta: Emolmec =         0.000000
siesta: Ekinion =         0.000000
siesta: Eharris =    -12724.012528
siesta: Etot    =    -12724.008766
siesta: FreeEng =    -12724.069481

siesta: Final energy (eV):
siesta:  Band Struct. =   -5046.553579
siesta:       Kinetic =   11001.473820
siesta:       Hartree =   34893.731415
siesta:    Ext. field =       0.000000
siesta:   Exch.-corr. =   -4822.740238
siesta:  Ion-electron =  -80353.549071
siesta:       Ion-ion =   26557.075307
siesta:       Ekinion =       0.000000
siesta:         Total =  -12724.008766

siesta: Atomic forces (eV/Ang):
siesta:      1    3.399841  125.865175    0.000000
siesta:      2  -23.142903    3.984115    0.000000
siesta:      3  -26.144279 -652.807239    0.000000
siesta:      4    2.220310   -2.697749    0.000000
siesta:      5   -2.852731    2.429191    0.000000
siesta:      6    0.847662   -3.449269    0.000000
siesta:      7    0.009075    1.981517    0.000000
siesta:      8    1.235005    1.188457    0.000000
siesta:      9   -1.783771    1.950031    0.000000
siesta:     10   -0.780979   -1.474437    0.000000
siesta:     11   -1.222864    1.232965    0.000000
siesta:     12    1.679878   -2.843843    0.000000
siesta:     13    1.066190    3.603396    0.000000
siesta:     14    1.071700   -2.661858    0.000000
siesta:     15    0.179098    1.357970    0.000000
siesta:     16   -0.452639    0.279292    0.000000
siesta:     17    1.824447    1.698306    0.000000
siesta:     18   -1.317932    1.754095    0.000000
siesta:     19    1.935874   -1.943991    0.000000
siesta:     20   -0.686600   -2.291965    0.000000
siesta:     21    2.202259  545.381023    0.000000
siesta:     22   -5.303231 -128.279736    0.000000
siesta:     23  -11.644139 -542.782971    0.000000
siesta:     24    1.180440  129.022564    0.000000
siesta:     25   17.250470 -547.285647    0.000000
siesta:     26   26.671971    4.805279    0.000000
siesta:     27   32.862620 -549.065422    0.000000
siesta:     28    2.091787    0.132922    0.000000
siesta:     29   -3.139081    2.276445    0.000000
siesta:     30    1.487566    2.008734    0.000000
siesta:     31   -1.670295   -0.060099    0.000000
siesta:     32   16.275319  547.006430    0.000000
siesta:     33   -2.359357 -128.358191    0.000000
siesta:     34   33.008851  549.118729    0.000000
siesta:     35   26.105022   -5.532618    0.000000
siesta:     36   -2.522370   -1.452170    0.000000
siesta:     37    1.462148   -0.026312    0.000000
siesta:     38    0.623841    1.298533    0.000000
siesta:     39   -1.675474    3.623241    0.000000
siesta:     40    0.162828   -6.029906    0.000000
siesta:     41  -34.829750  550.359584    0.000000
siesta:     42    1.835384 -124.824034    0.000000
siesta:     43  -18.259049  541.927174    0.000000
siesta:     44   -2.728000 -124.447756    0.000000
siesta:     45   23.125377  557.005362    0.000000
siesta:     46   23.369016   -8.051139    0.000000
siesta:     47   -2.362651    3.805062    0.000000
siesta:     48    1.175892   -0.905193    0.000000
siesta:     49    0.468067   -1.494574    0.000000
siesta:     50  -27.361467  656.483496    0.000000
siesta:     51  -26.337726   -4.431300    0.000000
siesta:     52  -20.559662  563.188182    0.000000
siesta:     53  -23.914201   -7.955448    0.000000
siesta:     54   -0.619274  565.243711    0.000000
siesta:     55   -0.975108   -0.202177    0.000000
siesta:     56    2.424659    0.014369    0.000000
siesta:     57   -1.861375   -0.447115    0.000000
siesta:     58    0.312699    0.638369    0.000000
siesta:     59   -0.990462   -0.118775    0.000000
siesta:     60    1.265220    0.928940    0.000000
siesta:     61   -0.469892   -0.122399    0.000000
siesta:     62   -1.484948   -2.497448    0.000000
siesta:     63   -1.132007 -565.191528    0.000000
siesta:     64   -0.089620   -1.837891    0.000000
siesta:     65   22.307959    6.882679    0.000000
siesta:     66   24.052990 -555.958192    0.000000
siesta:     67  -23.333320    7.239088    0.000000
siesta:     68   -3.010495 -571.823603    0.000000
siesta:     69    0.084312  126.817882    0.000000
siesta:     70    1.819932 -548.463799    0.000000
siesta:     71   -3.038483  130.483752    0.000000
siesta:     72    0.792663 -545.436837    0.000000
siesta: ----------------------------------------
siesta:    Tot   -0.167763   -0.236571    0.000000

siesta: Stress tensor (static) (eV/Ang**3):
siesta:    -0.416484    0.008225    0.000000
siesta:     0.008225   -1.809391    0.000000
siesta:     0.000000    0.000000   -0.000013

siesta: Cell volume =       1893.226884 Ang**3

siesta: Pressure (static):
siesta:                Solid            Molecule  Units
siesta:           0.00808092          0.12883407  Ry/Bohr**3
siesta:           0.74196263         11.82910617  eV/Ang**3
siesta:        1188.76804339      18952.52236182  kBar
(Free)E+ p_basis*V_orbitals  =      -12696.191135
(Free)Eharris+ p_basis*V_orbitals  =      -12696.196618

siesta: Electric dipole (a.u.)  =    0.000000    0.000000    0.000000
siesta: Electric dipole (Debye) =    0.000000    0.000000    0.000000

* Maximum dynamic memory allocated : Node    0 =   200 MB
* Maximum dynamic memory allocated : Node    1 =    71 MB
* Maximum dynamic memory allocated : Node    2 =    72 MB
* Maximum dynamic memory allocated : Node    3 =   191 MB
* Maximum dynamic memory allocated : Node    4 =   186 MB
* Maximum dynamic memory allocated : Node    5 =    71 MB
* Maximum dynamic memory allocated : Node    6 =    72 MB
* Maximum dynamic memory allocated : Node    7 =   170 MB

* Maximum memory occured during matrixMtoO                    

timer: CPU execution times:
timer:  Routine       Calls   Time/call    Tot.time        %
timer:  siesta            1  123662.822  123662.822   100.00
timer:  Setup             1       2.717       2.717     0.00
timer:  bands             3     243.997     731.991     0.59
timer:  writewave         1       0.017       0.017     0.00
timer:  KSV_init          1       0.006       0.006     0.00
timer:  IterMD            1  122922.882  122922.882    99.40
timer:  hsparse           1       0.282       0.282     0.00
timer:  overlap           1       7.121       7.121     0.01
timer:  IterSCF          37    3318.153  122771.674    99.28
timer:  kinefsm           2       3.675       7.350     0.01
timer:  nlefsm            2      17.266      34.531     0.03
timer:  DHSCF            38      75.866    2882.910     2.33
timer:  DHSCF1            1       0.741       0.741     0.00
timer:  DHSCF2            1      30.566      30.566     0.02
timer:  REORD           306       0.005       1.494     0.00
timer:  POISON           39       0.870      33.943     0.03
timer:  DHSCF3           38      74.279    2822.595     2.28
timer:  rhoofd           38      15.624     593.720     0.48
timer:  cellXC           38       3.292     125.097     0.10
timer:  vmat             38      34.257    1301.761     1.05
timer:  MolMec            2       0.001       0.002     0.00
timer:  diagon           37    3241.489  119935.082    96.99
timer:  c-eigval       8668       6.030   52268.465    42.27
timer:  c-buildHS      8668       0.046     401.406     0.32
timer:  cdiag         17215       6.169  106193.789    85.87
timer:  cdiag1        17215       0.385    6620.316     5.35
timer:  cdiag2        17215       1.768   30430.320    24.61
timer:  cdiag3        17215       3.739   64370.622    52.05
timer:  cdiag4        17215       0.153    2629.624     2.13
timer:  c-eigvec       8547       6.392   54629.082    44.18
timer:  c-buildD       8547       1.606   13725.513    11.10
timer:  DHSCF4            1      28.305      28.305     0.02
timer:  dfscf             1      26.437      26.437     0.02
timer:  overfsm           1       0.381       0.381     0.00
timer:  optical           1       4.568       4.568     0.00
  

elaps: ELAPSED times:
elaps:  Routine       Calls   Time/call    Tot.time        %
elaps:  siesta            1   15486.812   15486.812   100.00
elaps:  Setup             1       0.341       0.341     0.00
elaps:  bands             3      30.574      91.721     0.59
elaps:  writewave         1       0.002       0.002     0.00
elaps:  KSV_init          1       0.000       0.000     0.00
elaps:  IterMD            1   15394.146   15394.146    99.40
elaps:  hsparse           1       0.036       0.036     0.00
elaps:  overlap           1       0.892       0.892     0.01
elaps:  IterSCF          37     415.546   15375.213    99.28
elaps:  kinefsm           2       0.459       0.918     0.01
elaps:  nlefsm            2       2.136       4.272     0.03
elaps:  DHSCF            38       9.603     364.899     2.36
elaps:  DHSCF1            1       0.095       0.095     0.00
elaps:  DHSCF2            1       3.826       3.826     0.02
elaps:  REORD           306       0.001       0.203     0.00
elaps:  POISON           39       0.109       4.254     0.03
elaps:  DHSCF3           38       9.303     353.513     2.28
elaps:  rhoofd           38       4.468     169.776     1.10
elaps:  cellXC           38       0.412      15.655     0.10
elaps:  vmat             38       4.291     163.044     1.05
elaps:  MolMec            2       0.000       0.000     0.00
elaps:  diagon           37     405.939   15019.761    96.98
elaps:  c-eigval       8668       0.755    6545.664    42.27
elaps:  c-buildHS      8668       0.006      54.323     0.35
elaps:  cdiag         17215       0.775   13338.999    86.13
elaps:  cdiag1        17215       0.048     825.553     5.33
elaps:  cdiag2        17215       0.221    3811.604    24.61
elaps:  cdiag3        17215       0.469    8071.965    52.12
elaps:  cdiag4        17215       0.019     328.951     2.12
elaps:  c-eigvec       8547       0.806    6891.028    44.50
elaps:  c-buildD       8547       0.195    1667.128    10.76
elaps:  DHSCF4            1       7.376       7.376     0.05
elaps:  dfscf             1       6.975       6.975     0.05
elaps:  overfsm           1       0.046       0.046     0.00
elaps:  optical           1       0.001       0.001     0.00
  
>> End of run:  28-APR-2016  15:54:38
