Siesta Version:                                        siesta-3.2-pl-3
Architecture  : x86_64-unknown-linux-gnu--unknown
Compiler flags: mpiifort -g -O2 -fPIC -xSSE4.1 -fp-model source -shared-intel 
PARALLEL version

* Running on    8 nodes in parallel
>> Start of run:  22-APR-2016  20:04:03

                           ***********************       
                           *  WELCOME TO SIESTA  *       
                           ***********************       

reinit: Reading from standard input
************************** Dump of input data file ****************************
#(1) General system descriptors
SystemName            GRP_doping    # Descriptive name of the system
SystemLabel           GRP_doping    # Short name for naming files
%include STRUCT.fdf
%include KPT.fdf
%include BASIS.fdf
#%include TS.fdf # for transiesta calculation
#(4) DFT, Grid, SCF
XC.functional         GGA           # LDA or GGA (default = LDA)
XC.authors            PBE           # CA (Ceperley-Aldr) = PZ
                                    #    (Perdew-Zunger) - LDA - Default
                                    # PW92 (Perdew-Wang-92) - LDA
                                    # PBE (Perdew-Burke-Ernzerhof) - GGA
MeshCutoff            200.000000    Ry      # Default: 50.0 Ry ~ 0.444 Bohr
                                    #         100.0 Ry ~ 0.314 Bohr
MaxSCFIterations      500           # Default: 50
DM.MixingWeight       0.05          # Default: 0.25
DM.NumberPulay        10            # Default: 0
DM.PulayOnFile        F             # SystemLabel.P1, SystemLabel.P2
DM.Tolerance          1.d-4         # Default: 1.d-4
DM.UseSaveDM          .true.        # because of the bug
SCFMustConverge       .true.
NeglNonOverlapInt     F             # Default: F
#(5) Eigenvalue problem: order-N or diagonalization
SolutionMethod        Diagon        # or Transiesta
ElectronicTemperature 300.0 K       # Default: 300.0 K
#(6) Molecular dynamics and relaxations
#MD.TypeOfRun          CG            # Type of dynamics:
#MD.VariableCell       F
#MD.NumCGsteps         0           # 0 for single-point / 100 for gopt
#MD.MaxCGDispl         0.2 Bohr      # Default: 0.2 Bohr
#MD.MaxForceTol        0.02 eV/Ang   # Default: 0.04 eV/Ang
#MD.MaxStressTol       1.0 GPa       # Default: 1.0 GPa
# Geometry Constraints
#%block GeometryConstraints
#	position from 1 to 44
#%endblock GeometryConstraints
BandLinesScale   pi/a
%block BandLines
 1   0.00000000  0.00000000  0.00000000
50   0.00000000  0.07809418  0.00000000
50   0.04509075  0.07809242  0.00000000
20   0.00000000  0.00000000  0.00000000
%endblock BandLines
************************** End of input data file *****************************

reinit: -----------------------------------------------------------------------
reinit: System Name: GRP_doping
reinit: -----------------------------------------------------------------------
reinit: System Label: GRP_doping                                                  
reinit: -----------------------------------------------------------------------

initatom: Reading input for the pseudopotentials and atomic orbitals ----------
 Species number:            1  Label: B Atomic number:           5
 Species number:            2  Label: C Atomic number:           6
Ground state valence configuration:   2s02  2p01
Reading pseudopotential information in formatted form from B.psf

Valence configuration for pseudopotential generation:
2s( 2.00) rc: 1.74
2p( 1.00) rc: 1.74
3d( 0.00) rc: 1.74
4f( 0.00) rc: 1.74
Ground state valence configuration:   2s02  2p02
Reading pseudopotential information in formatted form from C.psf

Valence configuration for pseudopotential generation:
2s( 2.00) rc: 1.54
2p( 2.00) rc: 1.54
3d( 0.00) rc: 1.54
4f( 0.00) rc: 1.54
For B, standard SIESTA heuristics set lmxkb to 3
 (one more than the basis l, including polarization orbitals).
Use PS.lmax or PS.KBprojectors blocks to override.
For C, standard SIESTA heuristics set lmxkb to 3
 (one more than the basis l, including polarization orbitals).
Use PS.lmax or PS.KBprojectors blocks to override.

<basis_specs>
===============================================================================
B                    Z=   5    Mass=  10.810        Charge= 0.17977+309
Lmxo=1 Lmxkb= 3    BasisType=split      Semic=F
L=0  Nsemic=0  Cnfigmx=2
          n=1  nzeta=2  polorb=0
            splnorm:   0.15000    
               vcte:    0.0000    
               rinn:    0.0000    
                rcs:    0.0000      0.0000    
            lambdas:    1.0000      1.0000    
L=1  Nsemic=0  Cnfigmx=2
          n=1  nzeta=2  polorb=1
            splnorm:   0.15000    
               vcte:    0.0000    
               rinn:    0.0000    
                rcs:    0.0000      0.0000    
            lambdas:    1.0000      1.0000    
-------------------------------------------------------------------------------
L=0  Nkbl=1  erefs: 0.17977+309
L=1  Nkbl=1  erefs: 0.17977+309
L=2  Nkbl=1  erefs: 0.17977+309
L=3  Nkbl=1  erefs: 0.17977+309
===============================================================================
</basis_specs>

atom: Called for B                     (Z =   5)

read_vps: Pseudopotential generation method:
read_vps: ATM3      Troullier-Martins                       
Total valence charge:    3.00000

read_vps: Pseudopotential includes a core correction:
read_vps: Pseudo-core for xc-correction

xc_check: Exchange-correlation functional:
xc_check: GGA Perdew, Burke & Ernzerhof 1996
V l=0 = -2*Zval/r beyond r=  1.7165
V l=1 = -2*Zval/r beyond r=  1.7165
V l=2 = -2*Zval/r beyond r=  1.7165
V l=3 = -2*Zval/r beyond r=  1.6951
All V_l potentials equal beyond r=  1.7165
This should be close to max(r_c) in ps generation
All pots = -2*Zval/r beyond r=  1.7165

VLOCAL1: 99.0% of the norm of Vloc inside     14.733 Ry
VLOCAL1: 99.9% of the norm of Vloc inside     33.577 Ry
atom: Maximum radius for 4*pi*r*r*local-pseudopot. charge    2.04484
atom: Maximum radius for r*vlocal+2*Zval:    1.75994
GHOST: No ghost state for L =  0
GHOST: No ghost state for L =  1
GHOST: No ghost state for L =  2
GHOST: No ghost state for L =  3

KBgen: Kleinman-Bylander projectors: 
   l= 0   rc=  1.897051   el= -0.693730   Ekb=  4.595746   kbcos=  0.286105
   l= 1   rc=  1.920920   el= -0.265236   Ekb= -2.350715   kbcos= -0.315747
   l= 2   rc=  2.044840   el=  0.002055   Ekb= -0.690767   kbcos= -0.013822
   l= 3   rc=  2.149707   el=  0.003188   Ekb= -0.315358   kbcos= -0.002055

KBgen: Total number of  Kleinman-Bylander projectors:   16
atom: -------------------------------------------------------------------------

atom: SANKEY-TYPE ORBITALS:
atom: Selected multiple-zeta basis: split     

SPLIT: Orbitals with angular momentum L= 0

SPLIT: Basis orbitals for state 2s

SPLIT: PAO cut-off radius determined from an
SPLIT: energy shift=  0.007350 Ry

   izeta = 1
                 lambda =    1.000000
                     rc =    5.422032
                 energy =   -0.686029
                kinetic =    0.576707
    potential(screened) =   -1.262736
       potential(ionic) =   -3.271094

   izeta = 2
                 rmatch =    4.222573
              splitnorm =    0.150000
                 energy =   -0.602132
                kinetic =    0.858975
    potential(screened) =   -1.461107
       potential(ionic) =   -3.582536

SPLIT: Orbitals with angular momentum L= 1

SPLIT: Basis orbitals for state 2p

SPLIT: PAO cut-off radius determined from an
SPLIT: energy shift=  0.007350 Ry

   izeta = 1
                 lambda =    1.000000
                     rc =    6.790259
                 energy =   -0.258578
                kinetic =    1.481412
    potential(screened) =   -1.739989
       potential(ionic) =   -3.657461

   izeta = 2
                 rmatch =    4.608740
              splitnorm =    0.150000
                 energy =   -0.173757
                kinetic =    2.186690
    potential(screened) =   -2.360447
       potential(ionic) =   -4.464260

POLgen: Perturbative polarization orbital with L=  2

POLgen: Polarization orbital for state 2p

   izeta = 1
                     rc =    6.790259
                 energy =    0.684082
                kinetic =    1.471481
    potential(screened) =   -0.787399
       potential(ionic) =   -2.406985
atom: Total number of Sankey-type orbitals: 13

atm_pop: Valence configuration (for local Pseudopot. screening):
 2s( 2.00)                                                            
 2p( 1.00)                                                            
Vna: chval, zval:    3.00000   3.00000

Vna:  Cut-off radius for the neutral-atom potential:   6.790259
comcore: Pseudo-core radius Rcore=  2.122997

atom: _________________________________________________________________________

<basis_specs>
===============================================================================
C                    Z=   6    Mass=  12.010        Charge= 0.17977+309
Lmxo=1 Lmxkb= 3    BasisType=split      Semic=F
L=0  Nsemic=0  Cnfigmx=2
          n=1  nzeta=2  polorb=0
            splnorm:   0.15000    
               vcte:    0.0000    
               rinn:    0.0000    
                rcs:    0.0000      0.0000    
            lambdas:    1.0000      1.0000    
L=1  Nsemic=0  Cnfigmx=2
          n=1  nzeta=2  polorb=1
            splnorm:   0.15000    
               vcte:    0.0000    
               rinn:    0.0000    
                rcs:    0.0000      0.0000    
            lambdas:    1.0000      1.0000    
-------------------------------------------------------------------------------
L=0  Nkbl=1  erefs: 0.17977+309
L=1  Nkbl=1  erefs: 0.17977+309
L=2  Nkbl=1  erefs: 0.17977+309
L=3  Nkbl=1  erefs: 0.17977+309
===============================================================================
</basis_specs>

atom: Called for C                     (Z =   6)

read_vps: Pseudopotential generation method:
read_vps: ATM3      Troullier-Martins                       
Total valence charge:    4.00000

read_vps: Pseudopotential includes a core correction:
read_vps: Pseudo-core for xc-correction

xc_check: Exchange-correlation functional:
xc_check: GGA Perdew, Burke & Ernzerhof 1996
V l=0 = -2*Zval/r beyond r=  1.5227
V l=1 = -2*Zval/r beyond r=  1.5227
V l=2 = -2*Zval/r beyond r=  1.5227
V l=3 = -2*Zval/r beyond r=  1.5038
All V_l potentials equal beyond r=  1.5227
This should be close to max(r_c) in ps generation
All pots = -2*Zval/r beyond r=  1.5227

VLOCAL1: 99.0% of the norm of Vloc inside     18.722 Ry
VLOCAL1: 99.9% of the norm of Vloc inside     42.668 Ry
atom: Maximum radius for 4*pi*r*r*local-pseudopot. charge    1.83678
atom: Maximum radius for r*vlocal+2*Zval:    1.58088
GHOST: No ghost state for L =  0
GHOST: No ghost state for L =  1
GHOST: No ghost state for L =  2
GHOST: No ghost state for L =  3

KBgen: Kleinman-Bylander projectors: 
   l= 0   rc=  1.704034   el= -1.009801   Ekb=  5.335044   kbcos=  0.316824
   l= 1   rc=  1.704034   el= -0.388707   Ekb= -3.785862   kbcos= -0.366464
   l= 2   rc=  1.791422   el=  0.001971   Ekb= -0.970471   kbcos= -0.009212
   l= 3   rc=  1.859892   el=  0.003065   Ekb= -0.399525   kbcos= -0.001223

KBgen: Total number of  Kleinman-Bylander projectors:   16
atom: -------------------------------------------------------------------------

atom: SANKEY-TYPE ORBITALS:
atom: Selected multiple-zeta basis: split     

SPLIT: Orbitals with angular momentum L= 0

SPLIT: Basis orbitals for state 2s

SPLIT: PAO cut-off radius determined from an
SPLIT: energy shift=  0.007350 Ry

   izeta = 1
                 lambda =    1.000000
                     rc =    4.632753
                 energy =   -1.002270
                kinetic =    0.855760
    potential(screened) =   -1.858031
       potential(ionic) =   -5.417575

   izeta = 2
                 rmatch =    3.431921
              splitnorm =    0.150000
                 energy =   -0.867111
                kinetic =    1.300804
    potential(screened) =   -2.167915
       potential(ionic) =   -5.962684

SPLIT: Orbitals with angular momentum L= 1

SPLIT: Basis orbitals for state 2p

SPLIT: PAO cut-off radius determined from an
SPLIT: energy shift=  0.007350 Ry

   izeta = 1
                 lambda =    1.000000
                     rc =    5.658549
                 energy =   -0.381140
                kinetic =    2.399701
    potential(screened) =   -2.780841
       potential(ionic) =   -6.206085

   izeta = 2
                 rmatch =    3.653288
              splitnorm =    0.150000
                 energy =   -0.249149
                kinetic =    3.542762
    potential(screened) =   -3.791911
       potential(ionic) =   -7.581078

POLgen: Perturbative polarization orbital with L=  2

POLgen: Polarization orbital for state 2p

   izeta = 1
                     rc =    5.658549
                 energy =    1.109913
                kinetic =    2.304789
    potential(screened) =   -1.194876
       potential(ionic) =   -4.013592
atom: Total number of Sankey-type orbitals: 13

atm_pop: Valence configuration (for local Pseudopot. screening):
 2s( 2.00)                                                            
 2p( 2.00)                                                            
Vna: chval, zval:    4.00000   4.00000

Vna:  Cut-off radius for the neutral-atom potential:   5.658549
comcore: Pseudo-core radius Rcore=  1.791422

atom: _________________________________________________________________________

prinput: Basis input ----------------------------------------------------------

PAO.BasisType split     

%block ChemicalSpeciesLabel
    1    5 B                       # Species index, atomic number, species label
    2    6 C                       # Species index, atomic number, species label
%endblock ChemicalSpeciesLabel

%block PAO.Basis                 # Define Basis set
B                     2                    # Species label, number of l-shells
 n=2   0   2                         # n, l, Nzeta 
   5.422      4.223   
   1.000      1.000   
 n=2   1   2 P   1                   # n, l, Nzeta, Polarization, NzetaPol
   6.790      4.609   
   1.000      1.000   
C                     2                    # Species label, number of l-shells
 n=2   0   2                         # n, l, Nzeta 
   4.633      3.432   
   1.000      1.000   
 n=2   1   2 P   1                   # n, l, Nzeta, Polarization, NzetaPol
   5.659      3.653   
   1.000      1.000   
%endblock PAO.Basis

prinput: ----------------------------------------------------------------------

coor:   Atomic-coordinates input format  =     Fractional

siesta: Atomic coordinates (Bohr) and species
siesta:     -0.02582   5.28395   0.00000  1        1
siesta:      9.28770  26.79272   0.00000  1        2
siesta:      2.30256   6.62836   0.00000  1        3
siesta:      2.30256   9.31683   0.00000  1        4
siesta:      9.28770  21.41544   0.00000  1        5
siesta:     11.61608  22.75985   0.00000  1        6
siesta:     11.61608  25.44831   0.00000  1        7
siesta:     -2.35420   6.62836   0.00000  1        8
siesta:     -2.35420   9.31683   0.00000  1        9
siesta:     -0.02582  10.66124   0.00000  1       10
siesta:      6.95932  22.75985   0.00000  1       11
siesta:      6.95932  25.44831   0.00000  1       12
siesta:     -0.02582  21.41544   0.00000  1       13
siesta:      2.30256  22.75985   0.00000  1       14
siesta:      2.30256  25.44831   0.00000  1       15
siesta:     -2.35420  22.75985   0.00000  1       16
siesta:     -2.35420  25.44831   0.00000  1       17
siesta:     -9.33934  21.41544   0.00000  1       18
siesta:     -7.01096  22.75985   0.00000  1       19
siesta:     -7.01096  25.44831   0.00000  1       20
siesta:    -11.66772  22.75985   0.00000  1       21
siesta:    -11.66772  25.44831   0.00000  1       22
siesta:     -9.33934  26.79272   0.00000  1       23
siesta:     -0.02582  26.79272   0.00000  1       24
siesta:     -0.02582   2.59549   0.00000  2       25
siesta:     -2.35420  38.89134   0.00000  2       26
siesta:     -2.35420  41.57980   0.00000  2       27
siesta:      2.30256  38.89134   0.00000  2       28
siesta:      2.30256  41.57980   0.00000  2       29
siesta:      4.63094  34.85847   0.00000  2       30
siesta:      4.63094  37.54693   0.00000  2       31
siesta:      6.95932  30.82560   0.00000  2       32
siesta:      6.95932  33.51406   0.00000  2       33
siesta:      9.28770  29.48119   0.00000  2       34
siesta:     -4.68258  34.85847   0.00000  2       35
siesta:     -4.68258  37.54693   0.00000  2       36
siesta:      4.63094  10.66124   0.00000  2       37
siesta:      4.63094  13.34970   0.00000  2       38
siesta:      6.95932  14.69411   0.00000  2       39
siesta:      6.95932  17.38257   0.00000  2       40
siesta:      9.28770  18.72698   0.00000  2       41
siesta:     -0.02582  13.34970   0.00000  2       42
siesta:      2.30256  14.69411   0.00000  2       43
siesta:      2.30256  17.38257   0.00000  2       44
siesta:      4.63094  18.72698   0.00000  2       45
siesta:      4.63094  21.41544   0.00000  2       46
siesta:     -4.68258  10.66124   0.00000  2       47
siesta:     -4.68258  13.34970   0.00000  2       48
siesta:     -2.35420  14.69411   0.00000  2       49
siesta:     -2.35420  17.38257   0.00000  2       50
siesta:     -0.02582  18.72698   0.00000  2       51
siesta:     -7.01096  14.69411   0.00000  2       52
siesta:     -7.01096  17.38257   0.00000  2       53
siesta:     -4.68258  18.72698   0.00000  2       54
siesta:     -4.68258  21.41544   0.00000  2       55
siesta:     -9.33934  18.72698   0.00000  2       56
siesta:     -9.33934  29.48119   0.00000  2       57
siesta:      4.63094  26.79272   0.00000  2       58
siesta:      4.63094  29.48119   0.00000  2       59
siesta:     -0.02582  29.48119   0.00000  2       60
siesta:     -4.68258  26.79272   0.00000  2       61
siesta:     -4.68258  29.48119   0.00000  2       62
siesta:      2.30256  30.82560   0.00000  2       63
siesta:      2.30256  33.51406   0.00000  2       64
siesta:     -2.35420  30.82560   0.00000  2       65
siesta:     -2.35420  33.51406   0.00000  2       66
siesta:     -7.01096  30.82560   0.00000  2       67
siesta:     -7.01096  33.51406   0.00000  2       68
siesta:     -0.02582  34.85847   0.00000  2       69
siesta:     -0.02582  37.54693   0.00000  2       70
siesta:     -0.02582  42.92421   0.00000  2       71
siesta:     -0.02582  45.61267   0.00000  2       72

siesta: System type = slab      

initatomlists: Number of atoms, orbitals, and projectors:     72   936  1152

siesta: ******************** Simulation parameters ****************************
siesta:
siesta: The following are some of the parameters of the simulation.
siesta: A complete list of the parameters used, including default values,
siesta: can be found in file out.fdf
siesta:
redata: Non-Collinear-spin run           =     F
redata: SpinPolarized (Up/Down) run      =     F
redata: Number of spin components        =     1
redata: Long output                      =     F
redata: Number of Atomic Species         =        2
redata: Charge density info will appear in .RHO file
redata: Write Mulliken Pop.              =     NO
redata: Mesh Cutoff                      =   200.0000  Ry
redata: Net charge of the system         =     0.0000 |e|
redata: Max. number of SCF Iter          =      500
redata: SCF convergence failure will abort job
redata: Performing Pulay mixing using    =    10 iterations
redata: Mix DM in first SCF step ?       =     F
redata: Write Pulay info on disk?        =     F
redata: Discard 1st Pulay DM after  kick =     F
redata: New DM Mixing Weight             =     0.0500
redata: New DM Occupancy tolerance       = 0.000000000001
redata: No kicks to SCF
redata: DM Mixing Weight for Kicks       =     0.5000
redata: DM Tolerance for SCF             =     0.000100
redata: Require Energy convergence for SCF =     F
redata: DM Energy tolerance for SCF      =     0.000100 eV
redata: Require Harris convergence for SCF =     F
redata: DM Harris energy tolerance for SCF =     0.000100 eV
redata: Using Saved Data (generic)   =     F
redata: Use continuation files for DM    =     T
redata: Neglect nonoverlap interactions  =     F
redata: Method of Calculation            =     Diagonalization
redata: Divide and Conquer               =     T
redata: Electronic Temperature           =     0.0019  Ry
redata: Fix the spin of the system       =     F
redata: Dynamics option                  =     Verlet MD run
redata: Initial MD time step             =        1
redata:   Final MD time step             =        1
redata: Length of MD time step           =     1.0000  fs
redata: Initial Temperature of MD run    =     0.0000  K
redata: Perform a MD quench              =     F
redata: ***********************************************************************
Total number of electrons:   264.000000
Total ionic charge:   264.000000

* ProcessorY, Blocksize:    2  24

k-point displ. along   1 input, could be:     0.50    0.00
k-point displ. along   2 input, could be:     0.50    0.00
 Kpoints in:          231 . Kpoints trimmed:          231

siesta: k-grid: Number of k-points =   231
siesta: k-grid: Cutoff (effective) =     5.000 Ang
siesta: k-grid: Supercell and displacements
siesta: k-grid:   21   0   0      0.500
siesta: k-grid:    0  21   0      0.500
siesta: k-grid:    0   0   1      0.000
Naive supercell factors:     2    2    2

superc: Internal auxiliary supercell:     2 x     2 x     2  =       8
superc: Number of atoms, orbitals, and projectors:    576   7488   9216

* Maximum dynamic memory allocated =     4 MB

siesta:                 ==============================
                            Begin MD step =      1
                        ==============================

superc: Internal auxiliary supercell:     2 x     2 x     2  =       8
superc: Number of atoms, orbitals, and projectors:    576   7488   9216

outcell: Unit cell vectors (Ang):
       12.804619    7.392750    0.000000
        0.000000   14.785500    0.000000
        0.000000    0.000000   10.000000

outcell: Cell vector modules (Ang)   :   14.785500   14.785500   10.000000
outcell: Cell angles (23,13,12) (deg):     90.0000     90.0000     60.0000
outcell: Cell volume (Ang**3)        :   1893.2269
New_DM. Step:     1
Initializing Density Matrix...

InitMesh: MESH =   120 x   120 x    90 =     1296000
InitMesh: Mesh cutoff (required, used) =   200.000   223.865 Ry

* Maximum dynamic memory allocated =   229 MB

stepf: Fermi-Dirac step function

siesta: Program's energy decomposition (eV):
siesta: Ebs     =     -5476.376010
siesta: Eions   =     15329.650002
siesta: Ena     =      4163.144389
siesta: Ekin    =      5112.466478
siesta: Enl     =       848.733795
siesta: DEna    =        -0.000007
siesta: DUscf   =         0.000000
siesta: DUext   =         0.000000
siesta: Exc     =     -4207.615303
siesta: eta*DQ  =         0.000000
siesta: Emadel  =         0.000000
siesta: Emeta   =         0.000000
siesta: Emolmec =         0.000000
siesta: Ekinion =         0.000000
siesta: Eharris =     -9182.649052
siesta: Etot    =     -9412.920650
siesta: FreeEng =     -9412.920650

siesta: iscf   Eharris(eV)      E_KS(eV)   FreeEng(eV)   dDmax  Ef(eV)
siesta:    1    -9182.6491    -9412.9206    -9412.9206  7.0833 -8.7170
timer: Routine,Calls,Time,% = IterSCF        1    3511.500  99.66
elaps: Routine,Calls,Wall,% = IterSCF        1     439.855  99.66
siesta:    2   -13050.6797    -8406.6287    -8406.6791 15.1353 -2.4794
siesta:    3    -9155.0178    -9243.6202    -9243.6638  2.7023 -6.8234
siesta:    4    -9116.9032    -9156.2516    -9156.2794  1.5128 -5.4405
siesta:    5    -9068.9411    -9096.8663    -9096.8703  1.3861 -5.0110
siesta:    6    -9041.9766    -9055.5866    -9055.5944  1.3099 -4.8755
siesta:    7    -9022.0228    -9017.8306    -9017.8630  0.6954 -5.0344
siesta:    8    -9018.7228    -9013.6196    -9013.6928  0.7122 -5.0403
siesta:    9    -9018.2612    -9013.1221    -9013.1655  0.6524 -5.0461
siesta:   10    -9015.6656    -9011.0361    -9011.0852  0.5568 -5.1241
siesta:   11    -9014.2913    -9003.7320    -9003.8042  0.4425 -5.2154
siesta:   12    -9016.6663    -8996.5214    -8996.5849  0.9345 -5.0537
siesta:   13    -9016.3279    -8988.5104    -8988.5557  0.5368 -5.1235
siesta:   14    -9014.3970    -8989.5404    -8989.6162  0.4856 -5.2107
siesta:   15    -9013.1628    -8990.9068    -8990.9708  0.3142 -5.1880
siesta:   16    -9012.8866    -8994.0944    -8994.1625  0.4244 -5.1253
siesta:   17    -9012.7769    -8993.6495    -8993.7150  0.3497 -5.1602
siesta:   18    -9012.8891    -8993.2100    -8993.2881  0.6330 -5.1604
siesta:   19    -9012.5148    -8995.2184    -8995.2756  0.3583 -5.1691
siesta:   20    -9012.3823    -8998.8826    -8998.9721  0.3600 -5.1579
siesta:   21    -9012.3460    -9002.4806    -9002.5623  0.3297 -5.1620
siesta:   22    -9012.3551    -9003.9184    -9003.9999  0.3675 -5.1580
siesta:   23    -9012.3542    -9006.7258    -9006.8045  0.2923 -5.1645
siesta:   24    -9012.3290    -9009.4415    -9009.5244  0.1954 -5.1655
siesta:   25    -9012.3154    -9010.3993    -9010.4785  0.0697 -5.1978
siesta:   26    -9012.3030    -9011.3088    -9011.3976  0.1991 -5.1740
siesta:   27    -9012.3017    -9012.2443    -9012.3275  0.1834 -5.1768
siesta:   28    -9012.2879    -9012.5541    -9012.6365  0.1133 -5.1865
siesta:   29    -9012.2828    -9012.6149    -9012.7006  0.0549 -5.1930
siesta:   30    -9012.2812    -9012.5888    -9012.6764  0.0266 -5.1957
siesta:   31    -9012.2811    -9012.3367    -9012.4249  0.0321 -5.1938
siesta:   32    -9012.2807    -9012.1056    -9012.1934  0.0158 -5.1955
siesta:   33    -9012.2806    -9011.9330    -9012.0211  0.0160 -5.1957
siesta:   34    -9012.2804    -9011.8488    -9011.9369  0.0092 -5.1967
siesta:   35    -9012.2802    -9011.9419    -9012.0299  0.0045 -5.1975
siesta:   36    -9012.2802    -9011.9917    -9012.0798  0.0030 -5.1982
siesta:   37    -9012.2802    -9012.0210    -9012.1090  0.0029 -5.1981
siesta:   38    -9012.2802    -9012.0837    -9012.1718  0.0044 -5.1981
siesta:   39    -9012.2801    -9012.1841    -9012.2722  0.0065 -5.2000
siesta:   40    -9012.2801    -9012.1859    -9012.2740  0.0014 -5.1995
siesta:   41    -9012.2801    -9012.1814    -9012.2695  0.0012 -5.1997
siesta:   42    -9012.2801    -9012.1890    -9012.2771  0.0009 -5.1996
siesta:   43    -9012.2801    -9012.2182    -9012.3063  0.0006 -5.1998
siesta:   44    -9012.2801    -9012.2407    -9012.3289  0.0003 -5.1998
siesta:   45    -9012.2801    -9012.2480    -9012.3361  0.0002 -5.1997
siesta:   46    -9012.2801    -9012.2736    -9012.3617  0.0001 -5.1997
siesta:   47    -9012.2801    -9012.2780    -9012.3661  0.0002 -5.1997
siesta:   48    -9012.2801    -9012.2790    -9012.3672  0.0001 -5.1997

siesta: E_KS(eV) =            -9012.2805

siesta: E_KS - E_eggbox =     -9012.2805

siesta: Atomic forces (eV/Ang):
----------------------------------------
   Tot   -0.154756    0.050755    0.000000
----------------------------------------
   Max  569.404226
   Res  148.492214    sqrt( Sum f_i^2 / 3N )
----------------------------------------
   Max  569.404226    constrained

Stress-tensor-Voigt (kbar):     -782.51    -2709.02       -0.73       -0.63        0.00        0.00
(Free)E + p*V (eV/cell)    -7636.8295
Target enthalpy (eV/cell)    -9012.3686

siesta: Stress tensor (static) (eV/Ang**3):
        -0.488396   -0.000395    0.000000
        -0.000395   -1.690822    0.000000
         0.000000    0.000000   -0.000456

siesta: Pressure (static):       1164.08682666  kBar

siesta: Stress tensor (total) (eV/Ang**3):
        -0.488396   -0.000395    0.000000
        -0.000395   -1.690822    0.000000
         0.000000    0.000000   -0.000456

siesta: Pressure (total):       1164.08682666  kBar

siesta: Temp_ion =       0.000 K

* Maximum dynamic memory allocated =   247 MB
Computing bands...

siesta: Program's energy decomposition (eV):
siesta: Ebs     =     -4084.082440
siesta: Eions   =     15329.650002
siesta: Ena     =      4163.144389
siesta: Ekin    =      7988.809303
siesta: Enl     =      -771.797164
siesta: DEna    =      -789.500659
siesta: DUscf   =       106.127813
siesta: DUext   =         0.000000
siesta: Exc     =     -4379.414181
siesta: eta*DQ  =         0.000000
siesta: Emadel  =         0.000000
siesta: Emeta   =         0.000000
siesta: Emolmec =         0.000000
siesta: Ekinion =         0.000000
siesta: Eharris =     -9012.280075
siesta: Etot    =     -9012.280501
siesta: FreeEng =     -9012.368625

siesta: Final energy (eV):
siesta:  Band Struct. =   -4084.082440
siesta:       Kinetic =    7988.809303
siesta:       Hartree =   26318.227033
siesta:    Ext. field =       0.000000
siesta:   Exch.-corr. =   -4379.414181
siesta:  Ion-electron =  -60348.916992
siesta:       Ion-ion =   21409.014335
siesta:       Ekinion =       0.000000
siesta:         Total =   -9012.280501

siesta: Atomic forces (eV/Ang):
siesta:      1   -0.010759 -105.594992    0.000000
siesta:      2    5.364916    6.964240    0.000000
siesta:      3   -3.406825  396.891694    0.000000
siesta:      4   -2.347976 -105.932965    0.000000
siesta:      5    5.356804   -6.842450    0.000000
siesta:      6    6.272343   -2.492986    0.000000
siesta:      7    6.086942    2.497311    0.000000
siesta:      8    3.403199  396.918368    0.000000
siesta:      9    2.345500 -105.951595    0.000000
siesta:     10    0.038466  388.476053    0.000000
siesta:     11   -4.845677   -2.855215    0.000000
siesta:     12   -4.964856    2.579795    0.000000
siesta:     13   -0.003456   -4.135015    0.000000
siesta:     14    2.958760   -2.808411    0.000000
siesta:     15    3.084213    2.907496    0.000000
siesta:     16   -2.977264   -2.772281    0.000000
siesta:     17   -3.087819    2.904470    0.000000
siesta:     18   -5.349734   -6.820552    0.000000
siesta:     19    4.828345   -2.876203    0.000000
siesta:     20    4.963141    2.587317    0.000000
siesta:     21   -6.244479   -2.488173    0.000000
siesta:     22   -6.060701    2.488811    0.000000
siesta:     23   -5.348207    6.971042    0.000000
siesta:     24    0.002920    3.702036    0.000000
siesta:     25   -0.007582  553.751815    0.000000
siesta:     26   -0.589376  127.106209    0.000000
siesta:     27  -19.171955 -551.639842    0.000000
siesta:     28    0.529759  127.073910    0.000000
siesta:     29   19.147536 -551.606935    0.000000
siesta:     30   24.012734    1.707695    0.000000
siesta:     31   34.750955 -550.441921    0.000000
siesta:     32    3.205304    2.124935    0.000000
siesta:     33   -1.519621    2.355489    0.000000
siesta:     34   -3.144522    1.101369    0.000000
siesta:     35  -24.009793    1.702005    0.000000
siesta:     36  -34.753337 -550.431269    0.000000
siesta:     37   28.193193  543.932954    0.000000
siesta:     38   26.490329   -6.697813    0.000000
siesta:     39   -2.336772   -2.053721    0.000000
siesta:     40    2.932377   -1.829374    0.000000
siesta:     41   -3.247228   -1.131108    0.000000
siesta:     42    0.032363 -130.710952    0.000000
siesta:     43   19.970923  556.392559    0.000000
siesta:     44   22.753509   -6.227336    0.000000
siesta:     45   -1.525996    2.309104    0.000000
siesta:     46    0.375976   -3.406970    0.000000
siesta:     47  -28.212697  543.925182    0.000000
siesta:     48  -26.526877   -6.662205    0.000000
siesta:     49  -19.975775  556.432505    0.000000
siesta:     50  -22.807065   -6.206790    0.000000
siesta:     51    0.010356  559.366590    0.000000
siesta:     52    2.330917   -2.062353    0.000000
siesta:     53   -2.925493   -1.831909    0.000000
siesta:     54    1.515253    2.350299    0.000000
siesta:     55   -0.404469   -3.413887    0.000000
siesta:     56    3.259962   -1.126391    0.000000
siesta:     57    3.148364    1.088303    0.000000
siesta:     58    0.147717    3.510323    0.000000
siesta:     59   -1.781656   -2.007944    0.000000
siesta:     60    0.009241 -569.404226    0.000000
siesta:     61   -0.188906    3.514442    0.000000
siesta:     62    1.786083   -2.008527    0.000000
siesta:     63   19.526063    3.622177    0.000000
siesta:     64   31.170836 -411.086220    0.000000
siesta:     65  -19.527030    3.632382    0.000000
siesta:     66  -31.167442 -411.122131    0.000000
siesta:     67   -3.183431    2.123435    0.000000
siesta:     68    1.516450    2.370384    0.000000
siesta:     69    0.000991  123.782883    0.000000
siesta:     70   -0.013947 -396.851807    0.000000
siesta:     71   -0.004610  131.364697    0.000000
siesta:     72   -0.004161 -550.947059    0.000000
siesta: ----------------------------------------
siesta:    Tot   -0.154756    0.050755    0.000000

siesta: Stress tensor (static) (eV/Ang**3):
siesta:    -0.488396   -0.000395    0.000000
siesta:    -0.000395   -1.690822    0.000000
siesta:     0.000000    0.000000   -0.000456

siesta: Cell volume =       1893.226884 Ang**3

siesta: Pressure (static):
siesta:                Solid            Molecule  Units
siesta:           0.00791314          0.11411454  Ry/Bohr**3
siesta:           0.72655800         10.47760860  eV/Ang**3
siesta:        1164.08682666      16787.16113715  kBar
(Free)E+ p_basis*V_orbitals  =       -8974.048127
(Free)Eharris+ p_basis*V_orbitals  =       -8974.049171

siesta: Electric dipole (a.u.)  =    0.000000    0.000000    0.000000
siesta: Electric dipole (Debye) =    0.000000    0.000000    0.000000

* Maximum dynamic memory allocated : Node    0 =   247 MB
* Maximum dynamic memory allocated : Node    1 =    86 MB
* Maximum dynamic memory allocated : Node    2 =    88 MB
* Maximum dynamic memory allocated : Node    3 =   233 MB
* Maximum dynamic memory allocated : Node    4 =   234 MB
* Maximum dynamic memory allocated : Node    5 =    85 MB
* Maximum dynamic memory allocated : Node    6 =    88 MB
* Maximum dynamic memory allocated : Node    7 =   216 MB

* Maximum memory occured during matrixMtoO                    

timer: CPU execution times:
timer:  Routine       Calls   Time/call    Tot.time        %
timer:  siesta            1  166231.176  166231.176   100.00
timer:  Setup             1       3.834       3.834     0.00
timer:  bands             3     243.479     730.436     0.44
timer:  writewave         1       0.047       0.047     0.00
timer:  KSV_init          1       0.005       0.005     0.00
timer:  IterMD            1  165491.658  165491.658    99.56
timer:  hsparse           1       0.511       0.511     0.00
timer:  overlap           1       7.214       7.214     0.00
timer:  IterSCF          48    3443.236  165275.308    99.42
timer:  kinefsm           2       3.763       7.527     0.00
timer:  nlefsm            2      20.656      41.311     0.02
timer:  DHSCF            49     114.424    5606.769     3.37
timer:  DHSCF1            1       0.991       0.991     0.00
timer:  DHSCF2            1      42.815      42.815     0.03
timer:  REORD           394       0.005       1.869     0.00
timer:  POISON           50       0.868      43.403     0.03
timer:  DHSCF3           49     112.648    5519.753     3.32
timer:  rhoofd           49      24.604    1205.583     0.73
timer:  cellXC           49       3.224     157.971     0.10
timer:  vmat             49      55.689    2728.760     1.64
timer:  MolMec            2       0.000       0.000     0.00
timer:  diagon           48    3327.615  159725.531    96.09
timer:  c-eigval      11209       6.034   67635.915    40.69
timer:  c-buildHS     11209       0.054     607.144     0.37
timer:  cdiag         22297       6.164  137438.560    82.68
timer:  cdiag1        22297       0.385    8590.216     5.17
timer:  cdiag2        22297       1.770   39455.192    23.74
timer:  cdiag3        22297       3.735   83287.795    50.10
timer:  cdiag4        22297       0.152    3398.627     2.04
timer:  c-eigvec      11088       6.396   70923.655    42.67
timer:  c-buildD      11088       1.970   21839.513    13.14
timer:  DHSCF4            1      42.250      42.250     0.03
timer:  dfscf             1      39.428      39.428     0.02
timer:  overfsm           1       0.463       0.463     0.00
timer:  optical           1       4.611       4.611     0.00
  

elaps: ELAPSED times:
elaps:  Routine       Calls   Time/call    Tot.time        %
elaps:  siesta            1   20818.511   20818.511   100.00
elaps:  Setup             1       0.499       0.499     0.00
elaps:  bands             3      30.511      91.533     0.44
elaps:  writewave         1       0.006       0.006     0.00
elaps:  KSV_init          1       0.001       0.001     0.00
elaps:  IterMD            1   20725.871   20725.871    99.56
elaps:  hsparse           1       0.065       0.065     0.00
elaps:  overlap           1       0.905       0.905     0.00
elaps:  IterSCF          48     431.227   20698.915    99.43
elaps:  kinefsm           2       0.472       0.944     0.00
elaps:  nlefsm            2       2.519       5.038     0.02
elaps:  DHSCF            49      14.435     707.309     3.40
elaps:  DHSCF1            1       0.126       0.126     0.00
elaps:  DHSCF2            1       5.361       5.361     0.03
elaps:  REORD           394       0.001       0.266     0.00
elaps:  POISON           50       0.110       5.478     0.03
elaps:  DHSCF3           49      14.108     691.284     3.32
elaps:  rhoofd           49       6.526     319.783     1.54
elaps:  cellXC           49       0.403      19.762     0.09
elaps:  vmat             49       6.974     341.748     1.64
elaps:  MolMec            2       0.000       0.000     0.00
elaps:  diagon           48     416.742   20003.638    96.09
elaps:  c-eigval      11209       0.756    8470.158    40.69
elaps:  c-buildHS     11209       0.007      81.838     0.39
elaps:  cdiag         22297       0.768   17116.044    82.22
elaps:  cdiag1        22297       0.048    1075.662     5.17
elaps:  cdiag2        22297       0.222    4942.125    23.74
elaps:  cdiag3        22297       0.468   10444.114    50.17
elaps:  cdiag4        22297       0.019     419.256     2.01
elaps:  c-eigvec      11088       0.793    8792.495    42.23
elaps:  c-buildD      11088       0.254    2821.699    13.55
elaps:  DHSCF4            1      10.416      10.416     0.05
elaps:  dfscf             1       9.856       9.856     0.05
elaps:  overfsm           1       0.061       0.061     0.00
elaps:  optical           1       0.001       0.001     0.00
  
>> End of run:  23-APR-2016   1:51:02
