Siesta Version:                                        siesta-3.2-pl-3
Architecture  : x86_64-unknown-linux-gnu--unknown
Compiler flags: mpiifort -g -O2 -fPIC -xSSE4.1 -fp-model source -shared-intel 
PARALLEL version

* Running on   12 nodes in parallel
>> Start of run:  14-APR-2016  14:38:36

                           ***********************       
                           *  WELCOME TO SIESTA  *       
                           ***********************       

reinit: Reading from standard input
************************** Dump of input data file ****************************
#(1) General system descriptors
SystemName            GRP_doping    # Descriptive name of the system
SystemLabel           GRP_doping    # Short name for naming files
%include STRUCT.fdf
%include KPT.fdf
%include BASIS.fdf
#%include TS.fdf # for transiesta calculation
#(4) DFT, Grid, SCF
XC.functional         GGA           # LDA or GGA (default = LDA)
XC.authors            PBE           # CA (Ceperley-Aldr) = PZ
                                    #    (Perdew-Zunger) - LDA - Default
                                    # PW92 (Perdew-Wang-92) - LDA
                                    # PBE (Perdew-Burke-Ernzerhof) - GGA
MeshCutoff            200.000000    Ry      # Default: 50.0 Ry ~ 0.444 Bohr
                                    #         100.0 Ry ~ 0.314 Bohr
MaxSCFIterations      500           # Default: 50
DM.MixingWeight       0.05          # Default: 0.25
DM.NumberPulay        10            # Default: 0
DM.PulayOnFile        F             # SystemLabel.P1, SystemLabel.P2
DM.Tolerance          1.d-4         # Default: 1.d-4
DM.UseSaveDM          .true.        # because of the bug
SCFMustConverge       .true.
NeglNonOverlapInt     F             # Default: F
#(5) Eigenvalue problem: order-N or diagonalization
SolutionMethod        Diagon        # or Transiesta
ElectronicTemperature 300.0 K       # Default: 300.0 K
#(6) Molecular dynamics and relaxations
#MD.TypeOfRun          CG            # Type of dynamics:
#MD.VariableCell       F
#MD.NumCGsteps         0           # 0 for single-point / 100 for gopt
#MD.MaxCGDispl         0.2 Bohr      # Default: 0.2 Bohr
#MD.MaxForceTol        0.02 eV/Ang   # Default: 0.04 eV/Ang
#MD.MaxStressTol       1.0 GPa       # Default: 1.0 GPa
# Geometry Constraints
#%block GeometryConstraints
#	position from 1 to 44
#%endblock GeometryConstraints
BandLinesScale   pi/a
%block BandLines
 1   0.00000000  0.00000000  0.00000000
50   0.00000000  0.07809418  0.00000000
50   0.04509075  0.07809242  0.00000000
20   0.00000000  0.00000000  0.00000000
%endblock BandLines
************************** End of input data file *****************************

reinit: -----------------------------------------------------------------------
reinit: System Name: GRP_doping
reinit: -----------------------------------------------------------------------
reinit: System Label: GRP_doping                                                  
reinit: -----------------------------------------------------------------------

initatom: Reading input for the pseudopotentials and atomic orbitals ----------
 Species number:            1  Label: B Atomic number:           5
 Species number:            2  Label: C Atomic number:           6
Ground state valence configuration:   2s02  2p01
Reading pseudopotential information in formatted form from B.psf

Valence configuration for pseudopotential generation:
2s( 2.00) rc: 1.74
2p( 1.00) rc: 1.74
3d( 0.00) rc: 1.74
4f( 0.00) rc: 1.74
Ground state valence configuration:   2s02  2p02
Reading pseudopotential information in formatted form from C.psf

Valence configuration for pseudopotential generation:
2s( 2.00) rc: 1.54
2p( 2.00) rc: 1.54
3d( 0.00) rc: 1.54
4f( 0.00) rc: 1.54
For B, standard SIESTA heuristics set lmxkb to 3
 (one more than the basis l, including polarization orbitals).
Use PS.lmax or PS.KBprojectors blocks to override.
For C, standard SIESTA heuristics set lmxkb to 3
 (one more than the basis l, including polarization orbitals).
Use PS.lmax or PS.KBprojectors blocks to override.

<basis_specs>
===============================================================================
B                    Z=   5    Mass=  10.810        Charge= 0.17977+309
Lmxo=1 Lmxkb= 3    BasisType=split      Semic=F
L=0  Nsemic=0  Cnfigmx=2
          n=1  nzeta=2  polorb=0
            splnorm:   0.15000    
               vcte:    0.0000    
               rinn:    0.0000    
                rcs:    0.0000      0.0000    
            lambdas:    1.0000      1.0000    
L=1  Nsemic=0  Cnfigmx=2
          n=1  nzeta=2  polorb=1
            splnorm:   0.15000    
               vcte:    0.0000    
               rinn:    0.0000    
                rcs:    0.0000      0.0000    
            lambdas:    1.0000      1.0000    
-------------------------------------------------------------------------------
L=0  Nkbl=1  erefs: 0.17977+309
L=1  Nkbl=1  erefs: 0.17977+309
L=2  Nkbl=1  erefs: 0.17977+309
L=3  Nkbl=1  erefs: 0.17977+309
===============================================================================
</basis_specs>

atom: Called for B                     (Z =   5)

read_vps: Pseudopotential generation method:
read_vps: ATM3      Troullier-Martins                       
Total valence charge:    3.00000

read_vps: Pseudopotential includes a core correction:
read_vps: Pseudo-core for xc-correction

xc_check: Exchange-correlation functional:
xc_check: GGA Perdew, Burke & Ernzerhof 1996
V l=0 = -2*Zval/r beyond r=  1.7165
V l=1 = -2*Zval/r beyond r=  1.7165
V l=2 = -2*Zval/r beyond r=  1.7165
V l=3 = -2*Zval/r beyond r=  1.6951
All V_l potentials equal beyond r=  1.7165
This should be close to max(r_c) in ps generation
All pots = -2*Zval/r beyond r=  1.7165

VLOCAL1: 99.0% of the norm of Vloc inside     14.733 Ry
VLOCAL1: 99.9% of the norm of Vloc inside     33.577 Ry
atom: Maximum radius for 4*pi*r*r*local-pseudopot. charge    2.04484
atom: Maximum radius for r*vlocal+2*Zval:    1.75994
GHOST: No ghost state for L =  0
GHOST: No ghost state for L =  1
GHOST: No ghost state for L =  2
GHOST: No ghost state for L =  3

KBgen: Kleinman-Bylander projectors: 
   l= 0   rc=  1.897051   el= -0.693730   Ekb=  4.595746   kbcos=  0.286105
   l= 1   rc=  1.920920   el= -0.265236   Ekb= -2.350715   kbcos= -0.315747
   l= 2   rc=  2.044840   el=  0.002055   Ekb= -0.690767   kbcos= -0.013822
   l= 3   rc=  2.149707   el=  0.003188   Ekb= -0.315358   kbcos= -0.002055

KBgen: Total number of  Kleinman-Bylander projectors:   16
atom: -------------------------------------------------------------------------

atom: SANKEY-TYPE ORBITALS:
atom: Selected multiple-zeta basis: split     

SPLIT: Orbitals with angular momentum L= 0

SPLIT: Basis orbitals for state 2s

SPLIT: PAO cut-off radius determined from an
SPLIT: energy shift=  0.007350 Ry

   izeta = 1
                 lambda =    1.000000
                     rc =    5.422032
                 energy =   -0.686029
                kinetic =    0.576707
    potential(screened) =   -1.262736
       potential(ionic) =   -3.271094

   izeta = 2
                 rmatch =    4.222573
              splitnorm =    0.150000
                 energy =   -0.602132
                kinetic =    0.858975
    potential(screened) =   -1.461107
       potential(ionic) =   -3.582536

SPLIT: Orbitals with angular momentum L= 1

SPLIT: Basis orbitals for state 2p

SPLIT: PAO cut-off radius determined from an
SPLIT: energy shift=  0.007350 Ry

   izeta = 1
                 lambda =    1.000000
                     rc =    6.790259
                 energy =   -0.258578
                kinetic =    1.481412
    potential(screened) =   -1.739989
       potential(ionic) =   -3.657461

   izeta = 2
                 rmatch =    4.608740
              splitnorm =    0.150000
                 energy =   -0.173757
                kinetic =    2.186690
    potential(screened) =   -2.360447
       potential(ionic) =   -4.464260

POLgen: Perturbative polarization orbital with L=  2

POLgen: Polarization orbital for state 2p

   izeta = 1
                     rc =    6.790259
                 energy =    0.684082
                kinetic =    1.471481
    potential(screened) =   -0.787399
       potential(ionic) =   -2.406985
atom: Total number of Sankey-type orbitals: 13

atm_pop: Valence configuration (for local Pseudopot. screening):
 2s( 2.00)                                                            
 2p( 1.00)                                                            
Vna: chval, zval:    3.00000   3.00000

Vna:  Cut-off radius for the neutral-atom potential:   6.790259
comcore: Pseudo-core radius Rcore=  2.122997

atom: _________________________________________________________________________

<basis_specs>
===============================================================================
C                    Z=   6    Mass=  12.010        Charge= 0.17977+309
Lmxo=1 Lmxkb= 3    BasisType=split      Semic=F
L=0  Nsemic=0  Cnfigmx=2
          n=1  nzeta=2  polorb=0
            splnorm:   0.15000    
               vcte:    0.0000    
               rinn:    0.0000    
                rcs:    0.0000      0.0000    
            lambdas:    1.0000      1.0000    
L=1  Nsemic=0  Cnfigmx=2
          n=1  nzeta=2  polorb=1
            splnorm:   0.15000    
               vcte:    0.0000    
               rinn:    0.0000    
                rcs:    0.0000      0.0000    
            lambdas:    1.0000      1.0000    
-------------------------------------------------------------------------------
L=0  Nkbl=1  erefs: 0.17977+309
L=1  Nkbl=1  erefs: 0.17977+309
L=2  Nkbl=1  erefs: 0.17977+309
L=3  Nkbl=1  erefs: 0.17977+309
===============================================================================
</basis_specs>

atom: Called for C                     (Z =   6)

read_vps: Pseudopotential generation method:
read_vps: ATM3      Troullier-Martins                       
Total valence charge:    4.00000

read_vps: Pseudopotential includes a core correction:
read_vps: Pseudo-core for xc-correction

xc_check: Exchange-correlation functional:
xc_check: GGA Perdew, Burke & Ernzerhof 1996
V l=0 = -2*Zval/r beyond r=  1.5227
V l=1 = -2*Zval/r beyond r=  1.5227
V l=2 = -2*Zval/r beyond r=  1.5227
V l=3 = -2*Zval/r beyond r=  1.5038
All V_l potentials equal beyond r=  1.5227
This should be close to max(r_c) in ps generation
All pots = -2*Zval/r beyond r=  1.5227

VLOCAL1: 99.0% of the norm of Vloc inside     18.722 Ry
VLOCAL1: 99.9% of the norm of Vloc inside     42.668 Ry
atom: Maximum radius for 4*pi*r*r*local-pseudopot. charge    1.83678
atom: Maximum radius for r*vlocal+2*Zval:    1.58088
GHOST: No ghost state for L =  0
GHOST: No ghost state for L =  1
GHOST: No ghost state for L =  2
GHOST: No ghost state for L =  3

KBgen: Kleinman-Bylander projectors: 
   l= 0   rc=  1.704034   el= -1.009801   Ekb=  5.335044   kbcos=  0.316824
   l= 1   rc=  1.704034   el= -0.388707   Ekb= -3.785862   kbcos= -0.366464
   l= 2   rc=  1.791422   el=  0.001971   Ekb= -0.970471   kbcos= -0.009212
   l= 3   rc=  1.859892   el=  0.003065   Ekb= -0.399525   kbcos= -0.001223

KBgen: Total number of  Kleinman-Bylander projectors:   16
atom: -------------------------------------------------------------------------

atom: SANKEY-TYPE ORBITALS:
atom: Selected multiple-zeta basis: split     

SPLIT: Orbitals with angular momentum L= 0

SPLIT: Basis orbitals for state 2s

SPLIT: PAO cut-off radius determined from an
SPLIT: energy shift=  0.007350 Ry

   izeta = 1
                 lambda =    1.000000
                     rc =    4.632753
                 energy =   -1.002270
                kinetic =    0.855760
    potential(screened) =   -1.858031
       potential(ionic) =   -5.417575

   izeta = 2
                 rmatch =    3.431921
              splitnorm =    0.150000
                 energy =   -0.867111
                kinetic =    1.300804
    potential(screened) =   -2.167915
       potential(ionic) =   -5.962684

SPLIT: Orbitals with angular momentum L= 1

SPLIT: Basis orbitals for state 2p

SPLIT: PAO cut-off radius determined from an
SPLIT: energy shift=  0.007350 Ry

   izeta = 1
                 lambda =    1.000000
                     rc =    5.658549
                 energy =   -0.381140
                kinetic =    2.399701
    potential(screened) =   -2.780841
       potential(ionic) =   -6.206085

   izeta = 2
                 rmatch =    3.653288
              splitnorm =    0.150000
                 energy =   -0.249149
                kinetic =    3.542762
    potential(screened) =   -3.791911
       potential(ionic) =   -7.581078

POLgen: Perturbative polarization orbital with L=  2

POLgen: Polarization orbital for state 2p

   izeta = 1
                     rc =    5.658549
                 energy =    1.109913
                kinetic =    2.304789
    potential(screened) =   -1.194876
       potential(ionic) =   -4.013592
atom: Total number of Sankey-type orbitals: 13

atm_pop: Valence configuration (for local Pseudopot. screening):
 2s( 2.00)                                                            
 2p( 2.00)                                                            
Vna: chval, zval:    4.00000   4.00000

Vna:  Cut-off radius for the neutral-atom potential:   5.658549
comcore: Pseudo-core radius Rcore=  1.791422

atom: _________________________________________________________________________

prinput: Basis input ----------------------------------------------------------

PAO.BasisType split     

%block ChemicalSpeciesLabel
    1    5 B                       # Species index, atomic number, species label
    2    6 C                       # Species index, atomic number, species label
%endblock ChemicalSpeciesLabel

%block PAO.Basis                 # Define Basis set
B                     2                    # Species label, number of l-shells
 n=2   0   2                         # n, l, Nzeta 
   5.422      4.223   
   1.000      1.000   
 n=2   1   2 P   1                   # n, l, Nzeta, Polarization, NzetaPol
   6.790      4.609   
   1.000      1.000   
C                     2                    # Species label, number of l-shells
 n=2   0   2                         # n, l, Nzeta 
   4.633      3.432   
   1.000      1.000   
 n=2   1   2 P   1                   # n, l, Nzeta, Polarization, NzetaPol
   5.659      3.653   
   1.000      1.000   
%endblock PAO.Basis

prinput: ----------------------------------------------------------------------

coor:   Atomic-coordinates input format  =     Fractional

siesta: Atomic coordinates (Bohr) and species
siesta:     -0.02582   2.59549   0.00000  1        1
siesta:      9.28770  18.72698   0.00000  1        2
siesta:     -4.68258  10.66124   0.00000  1        3
siesta:     -9.33934  18.72698   0.00000  1        4
siesta:      4.63094  26.79272   0.00000  1        5
siesta:     -0.02582  29.48119   0.00000  1        6
siesta:     -0.02582  34.85847   0.00000  1        7
siesta:     -0.02582   5.28395   0.00000  2        8
siesta:     -2.35420  38.89134   0.00000  2        9
siesta:     -2.35420  41.57980   0.00000  2       10
siesta:      2.30256  38.89134   0.00000  2       11
siesta:      2.30256  41.57980   0.00000  2       12
siesta:      4.63094  34.85847   0.00000  2       13
siesta:      4.63094  37.54693   0.00000  2       14
siesta:      6.95932  30.82560   0.00000  2       15
siesta:      6.95932  33.51406   0.00000  2       16
siesta:      9.28770  26.79272   0.00000  2       17
siesta:      9.28770  29.48119   0.00000  2       18
siesta:     -4.68258  34.85847   0.00000  2       19
siesta:     -4.68258  37.54693   0.00000  2       20
siesta:      2.30256   6.62836   0.00000  2       21
siesta:      2.30256   9.31683   0.00000  2       22
siesta:      4.63094  10.66124   0.00000  2       23
siesta:      4.63094  13.34970   0.00000  2       24
siesta:      6.95932  14.69411   0.00000  2       25
siesta:      6.95932  17.38257   0.00000  2       26
siesta:      9.28770  21.41544   0.00000  2       27
siesta:     11.61608  22.75985   0.00000  2       28
siesta:     11.61608  25.44831   0.00000  2       29
siesta:     -2.35420   6.62836   0.00000  2       30
siesta:     -2.35420   9.31683   0.00000  2       31
siesta:     -0.02582  10.66124   0.00000  2       32
siesta:     -0.02582  13.34970   0.00000  2       33
siesta:      2.30256  14.69411   0.00000  2       34
siesta:      2.30256  17.38257   0.00000  2       35
siesta:      4.63094  18.72698   0.00000  2       36
siesta:      4.63094  21.41544   0.00000  2       37
siesta:      6.95932  22.75985   0.00000  2       38
siesta:      6.95932  25.44831   0.00000  2       39
siesta:     -4.68258  13.34970   0.00000  2       40
siesta:     -2.35420  14.69411   0.00000  2       41
siesta:     -2.35420  17.38257   0.00000  2       42
siesta:     -0.02582  18.72698   0.00000  2       43
siesta:     -0.02582  21.41544   0.00000  2       44
siesta:      2.30256  22.75985   0.00000  2       45
siesta:      2.30256  25.44831   0.00000  2       46
siesta:     -7.01096  14.69411   0.00000  2       47
siesta:     -7.01096  17.38257   0.00000  2       48
siesta:     -4.68258  18.72698   0.00000  2       49
siesta:     -4.68258  21.41544   0.00000  2       50
siesta:     -2.35420  22.75985   0.00000  2       51
siesta:     -2.35420  25.44831   0.00000  2       52
siesta:     -9.33934  21.41544   0.00000  2       53
siesta:     -7.01096  22.75985   0.00000  2       54
siesta:     -7.01096  25.44831   0.00000  2       55
siesta:    -11.66772  22.75985   0.00000  2       56
siesta:    -11.66772  25.44831   0.00000  2       57
siesta:     -9.33934  26.79272   0.00000  2       58
siesta:     -9.33934  29.48119   0.00000  2       59
siesta:      4.63094  29.48119   0.00000  2       60
siesta:     -0.02582  26.79272   0.00000  2       61
siesta:     -4.68258  26.79272   0.00000  2       62
siesta:     -4.68258  29.48119   0.00000  2       63
siesta:      2.30256  30.82560   0.00000  2       64
siesta:      2.30256  33.51406   0.00000  2       65
siesta:     -2.35420  30.82560   0.00000  2       66
siesta:     -2.35420  33.51406   0.00000  2       67
siesta:     -7.01096  30.82560   0.00000  2       68
siesta:     -7.01096  33.51406   0.00000  2       69
siesta:     -0.02582  37.54693   0.00000  2       70
siesta:     -0.02582  42.92421   0.00000  2       71
siesta:     -0.02582  45.61267   0.00000  2       72

siesta: System type = slab      

initatomlists: Number of atoms, orbitals, and projectors:     72   936  1152

siesta: ******************** Simulation parameters ****************************
siesta:
siesta: The following are some of the parameters of the simulation.
siesta: A complete list of the parameters used, including default values,
siesta: can be found in file out.fdf
siesta:
redata: Non-Collinear-spin run           =     F
redata: SpinPolarized (Up/Down) run      =     F
redata: Number of spin components        =     1
redata: Long output                      =     F
redata: Number of Atomic Species         =        2
redata: Charge density info will appear in .RHO file
redata: Write Mulliken Pop.              =     NO
redata: Mesh Cutoff                      =   200.0000  Ry
redata: Net charge of the system         =     0.0000 |e|
redata: Max. number of SCF Iter          =      500
redata: SCF convergence failure will abort job
redata: Performing Pulay mixing using    =    10 iterations
redata: Mix DM in first SCF step ?       =     F
redata: Write Pulay info on disk?        =     F
redata: Discard 1st Pulay DM after  kick =     F
redata: New DM Mixing Weight             =     0.0500
redata: New DM Occupancy tolerance       = 0.000000000001
redata: No kicks to SCF
redata: DM Mixing Weight for Kicks       =     0.5000
redata: DM Tolerance for SCF             =     0.000100
redata: Require Energy convergence for SCF =     F
redata: DM Energy tolerance for SCF      =     0.000100 eV
redata: Require Harris convergence for SCF =     F
redata: DM Harris energy tolerance for SCF =     0.000100 eV
redata: Using Saved Data (generic)   =     F
redata: Use continuation files for DM    =     T
redata: Neglect nonoverlap interactions  =     F
redata: Method of Calculation            =     Diagonalization
redata: Divide and Conquer               =     T
redata: Electronic Temperature           =     0.0019  Ry
redata: Fix the spin of the system       =     F
redata: Dynamics option                  =     Verlet MD run
redata: Initial MD time step             =        1
redata:   Final MD time step             =        1
redata: Length of MD time step           =     1.0000  fs
redata: Initial Temperature of MD run    =     0.0000  K
redata: Perform a MD quench              =     F
redata: ***********************************************************************
Total number of electrons:   281.000000
Total ionic charge:   281.000000

* ProcessorY, Blocksize:    3  24

k-point displ. along   1 input, could be:     0.50    0.00
k-point displ. along   2 input, could be:     0.50    0.00
 Kpoints in:          231 . Kpoints trimmed:          231

siesta: k-grid: Number of k-points =   231
siesta: k-grid: Cutoff (effective) =     5.000 Ang
siesta: k-grid: Supercell and displacements
siesta: k-grid:   21   0   0      0.500
siesta: k-grid:    0  21   0      0.500
siesta: k-grid:    0   0   1      0.000
Naive supercell factors:     2    2    2

superc: Internal auxiliary supercell:     2 x     2 x     2  =       8
superc: Number of atoms, orbitals, and projectors:    576   7488   9216

* Maximum dynamic memory allocated =     4 MB

siesta:                 ==============================
                            Begin MD step =      1
                        ==============================

superc: Internal auxiliary supercell:     2 x     2 x     2  =       8
superc: Number of atoms, orbitals, and projectors:    576   7488   9216

outcell: Unit cell vectors (Ang):
       12.804619    7.392750    0.000000
        0.000000   14.785500    0.000000
        0.000000    0.000000   10.000000

outcell: Cell vector modules (Ang)   :   14.785500   14.785500   10.000000
outcell: Cell angles (23,13,12) (deg):     90.0000     90.0000     60.0000
outcell: Cell volume (Ang**3)        :   1893.2269
New_DM. Step:     1
Initializing Density Matrix...

iodm: Reading Density Matrix from files

InitMesh: MESH =   120 x   120 x    90 =     1296000
InitMesh: Mesh cutoff (required, used) =   200.000   223.865 Ry

* Maximum dynamic memory allocated =   151 MB

stepf: Fermi-Dirac step function

siesta: Program's energy decomposition (eV):
siesta: Ebs     =     -4428.233502
siesta: Eions   =     17506.614093
siesta: Ena     =      4534.463347
siesta: Ekin    =      8897.409751
siesta: Enl     =      -958.749824
siesta: DEna    =      -758.987826
siesta: DUscf   =       101.766855
siesta: DUext   =         0.000000
siesta: Exc     =     -4340.046837
siesta: eta*DQ  =         0.000000
siesta: Emadel  =         0.000000
siesta: Emeta   =         0.000000
siesta: Emolmec =         0.000000
siesta: Ekinion =         0.000000
siesta: Eharris =    -10030.758831
siesta: Etot    =    -10030.758627
siesta: FreeEng =    -10030.758627

siesta: iscf   Eharris(eV)      E_KS(eV)   FreeEng(eV)   dDmax  Ef(eV)
siesta:    1   -10030.7588   -10030.7586   -10030.7586  0.0000 -4.7828
timer: Routine,Calls,Time,% = IterSCF        1    3035.706  99.58
elaps: Routine,Calls,Wall,% = IterSCF        1     253.580  99.58

siesta: E_KS(eV) =           -10030.7588

siesta: E_KS - E_eggbox =    -10030.7588

siesta: Atomic forces (eV/Ang):
----------------------------------------
   Tot   -0.250576    0.072685    0.000000
----------------------------------------
   Max  562.562120
   Res  150.679964    sqrt( Sum f_i^2 / 3N )
----------------------------------------
   Max  562.562120    constrained

Stress-tensor-Voigt (kbar):     -723.95    -2644.06       -0.33       -1.38        0.00        0.00
(Free)E + p*V (eV/cell)    -8704.0948
Target enthalpy (eV/cell)   -10030.8223

siesta: Stress tensor (static) (eV/Ang**3):
        -0.451847   -0.000863    0.000000
        -0.000863   -1.650273    0.000000
         0.000000    0.000000   -0.000208

siesta: Pressure (static):       1122.77862379  kBar

siesta: Stress tensor (total) (eV/Ang**3):
        -0.451847   -0.000863    0.000000
        -0.000863   -1.650273    0.000000
         0.000000    0.000000   -0.000208

siesta: Pressure (total):       1122.77862379  kBar

siesta: Temp_ion =       0.000 K

* Maximum dynamic memory allocated =   161 MB
Computing bands...

siesta: Program's energy decomposition (eV):
siesta: Ebs     =     -4428.233502
siesta: Eions   =     17506.614093
siesta: Ena     =      4534.463347
siesta: Ekin    =      8897.405117
siesta: Enl     =      -958.742512
siesta: DEna    =      -758.992125
siesta: DUscf   =       101.768543
siesta: DUext   =         0.000000
siesta: Exc     =     -4340.047108
siesta: eta*DQ  =         0.000000
siesta: Emadel  =         0.000000
siesta: Emeta   =         0.000000
siesta: Emolmec =         0.000000
siesta: Ekinion =         0.000000
siesta: Eharris =    -10030.758831
siesta: Etot    =    -10030.758831
siesta: FreeEng =    -10030.822259

siesta: Final energy (eV):
siesta:  Band Struct. =   -4428.233502
siesta:       Kinetic =    8897.405117
siesta:       Hartree =   29179.396266
siesta:    Ext. field =       0.000000
siesta:   Exch.-corr. =   -4340.047108
siesta:  Ion-electron =  -66942.210171
siesta:       Ion-ion =   23174.697065
siesta:       Ekinion =       0.000000
siesta:         Total =  -10030.758831

siesta: Atomic forces (eV/Ang):
siesta:      1    0.259136  306.661513    0.000000
siesta:      2    1.086302   -1.292939    0.000000
siesta:      3  -27.548321  397.563658    0.000000
siesta:      4   -1.123144   -1.328507    0.000000
siesta:      5    0.031751   -0.133577    0.000000
siesta:      6    0.162405 -310.204656    0.000000
siesta:      7    0.044681  113.892344    0.000000
siesta:      8   -1.460247 -122.963185    0.000000
siesta:      9    2.493009  124.810451    0.000000
siesta:     10  -15.152643 -545.219571    0.000000
siesta:     11   -1.429855  127.799924    0.000000
siesta:     12   17.867159 -549.936617    0.000000
siesta:     13   27.127518    4.606570    0.000000
siesta:     14   32.482349 -547.991070    0.000000
siesta:     15    2.086572    0.088466    0.000000
siesta:     16   -2.480934    2.091633    0.000000
siesta:     17    2.081549    1.018040    0.000000
siesta:     18   -0.143441    1.600191    0.000000
siesta:     19  -26.385373   -0.842262    0.000000
siesta:     20  -33.551905 -399.612032    0.000000
siesta:     21   22.328657  550.698568    0.000000
siesta:     22   -3.233113 -130.914794    0.000000
siesta:     23   34.675601  548.465730    0.000000
siesta:     24   26.839391   -6.652408    0.000000
siesta:     25   -2.411238   -1.546530    0.000000
siesta:     26   -1.234143   -2.891861    0.000000
siesta:     27    3.539547    1.347002    0.000000
siesta:     28   -0.502617    6.775377    0.000000
siesta:     29   -0.300896   -6.616941    0.000000
siesta:     30  -23.052977  551.048451    0.000000
siesta:     31   -3.717164 -121.559109    0.000000
siesta:     32   -3.631656  551.318672    0.000000
siesta:     33    0.069750 -130.728708    0.000000
siesta:     34   20.642444  557.031111    0.000000
siesta:     35   21.996858   -5.656916    0.000000
siesta:     36   -0.241583    2.683960    0.000000
siesta:     37    0.403248   -0.734201    0.000000
siesta:     38   -0.059125    0.895984    0.000000
siesta:     39    2.618220   -2.496015    0.000000
siesta:     40  -27.113341   -2.452805    0.000000
siesta:     41  -25.622633  556.062799    0.000000
siesta:     42  -21.183543   -6.322463    0.000000
siesta:     43    0.556813  562.562120    0.000000
siesta:     44    0.096877    1.912641    0.000000
siesta:     45   -1.052005   -0.730644    0.000000
siesta:     46   -3.700473   -1.545575    0.000000
siesta:     47    3.023507   -2.042916    0.000000
siesta:     48    0.953686   -2.551691    0.000000
siesta:     49    0.154698    2.199307    0.000000
siesta:     50   -0.472181   -0.680020    0.000000
siesta:     51    0.701456   -0.393498    0.000000
siesta:     52    0.829934   -0.219300    0.000000
siesta:     53   -3.188153    1.542810    0.000000
siesta:     54    0.331497    0.425410    0.000000
siesta:     55    0.379614   -0.625328    0.000000
siesta:     56    0.424644    6.899623    0.000000
siesta:     57    0.363191   -6.664934    0.000000
siesta:     58   -2.147528    1.541000    0.000000
siesta:     59    0.202949    1.375292    0.000000
siesta:     60   -1.418441    3.312426    0.000000
siesta:     61   -0.062229   -4.250158    0.000000
siesta:     62   -0.487949    0.375661    0.000000
siesta:     63    0.633474   -0.908850    0.000000
siesta:     64   23.260350    0.540528    0.000000
siesta:     65   16.541546 -552.917607    0.000000
siesta:     66  -22.362651    1.326272    0.000000
siesta:     67  -17.088142 -555.717760    0.000000
siesta:     68   -2.110139   -0.671983    0.000000
siesta:     69    2.982573    2.609330    0.000000
siesta:     70    6.069477 -543.926474    0.000000
siesta:     71   -0.399129  126.807868    0.000000
siesta:     72   -0.524099 -547.874140    0.000000
siesta: ----------------------------------------
siesta:    Tot   -0.250576    0.072685    0.000000

siesta: Stress tensor (static) (eV/Ang**3):
siesta:    -0.451847   -0.000863    0.000000
siesta:    -0.000863   -1.650273    0.000000
siesta:     0.000000    0.000000   -0.000208

siesta: Cell volume =       1893.226884 Ang**3

siesta: Pressure (static):
siesta:                Solid            Molecule  Units
siesta:           0.00763234          0.11494178  Ry/Bohr**3
siesta:           0.70077572         10.55356300  eV/Ang**3
siesta:        1122.77862379      16908.85481713  kBar
(Free)E+ p_basis*V_orbitals  =       -9997.872967
(Free)Eharris+ p_basis*V_orbitals  =       -9997.873171

siesta: Electric dipole (a.u.)  =    0.000000    0.000000    0.000000
siesta: Electric dipole (Debye) =    0.000000    0.000000    0.000000

* Maximum dynamic memory allocated : Node    0 =   161 MB
* Maximum dynamic memory allocated : Node    1 =    63 MB
* Maximum dynamic memory allocated : Node    2 =    64 MB
* Maximum dynamic memory allocated : Node    3 =   147 MB
* Maximum dynamic memory allocated : Node    4 =   155 MB
* Maximum dynamic memory allocated : Node    5 =    56 MB
* Maximum dynamic memory allocated : Node    6 =    57 MB
* Maximum dynamic memory allocated : Node    7 =   146 MB
* Maximum dynamic memory allocated : Node    8 =   141 MB
* Maximum dynamic memory allocated : Node    9 =    55 MB
* Maximum dynamic memory allocated : Node   10 =    58 MB
* Maximum dynamic memory allocated : Node   11 =   135 MB

* Maximum memory occured during matrixMtoO                    

timer: CPU execution times:
timer:  Routine       Calls   Time/call    Tot.time        %
timer:  siesta            1    3865.415    3865.415   100.00
timer:  Setup             1       3.498       3.498     0.09
timer:  bands             3     225.428     676.285    17.50
timer:  writewave         1       0.026       0.026     0.00
timer:  KSV_init          1       0.007       0.007     0.00
timer:  IterMD            1    3178.685    3178.685    82.23
timer:  hsparse           1       0.281       0.281     0.01
timer:  overlap           1       5.767       5.767     0.15
timer:  IterSCF           1    3035.706    3035.706    78.54
timer:  kinefsm           2       2.939       5.877     0.15
timer:  nlefsm            2      19.995      39.990     1.03
timer:  DHSCF             2      99.368     198.737     5.14
timer:  DHSCF1            1       1.194       1.194     0.03
timer:  DHSCF2            1      31.614      31.614     0.82
timer:  REORD            18       0.002       0.038     0.00
timer:  POISON            3       0.473       1.419     0.04
timer:  DHSCF3            2      70.233     140.466     3.63
timer:  rhoofd            2      15.295      30.589     0.79
timer:  cellXC            2       2.405       4.810     0.12
timer:  vmat              2      33.379      66.758     1.73
timer:  MolMec            2       0.000       0.000     0.00
timer:  diagon            1    2890.929    2890.929    74.79
timer:  c-eigval        352       5.579    1963.908    50.81
timer:  c-buildHS       352       0.034      11.987     0.31
timer:  cdiag           583       5.696    3320.625    85.91
timer:  cdiag1          583       0.300     174.781     4.52
timer:  cdiag2          583       1.703     993.106    25.69
timer:  cdiag3          583       3.466    2020.518    52.27
timer:  cdiag4          583       0.108      63.017     1.63
timer:  c-eigvec        231       5.955    1375.605    35.59
timer:  c-buildD        231       0.980     226.291     5.85
timer:  DHSCF4            1      25.408      25.408     0.66
timer:  dfscf             1      23.361      23.361     0.60
timer:  overfsm           1       0.308       0.308     0.01
timer:  optical           1       6.335       6.335     0.16
  

elaps: ELAPSED times:
elaps:  Routine       Calls   Time/call    Tot.time        %
elaps:  siesta            1     322.888     322.888   100.00
elaps:  Setup             1       0.292       0.292     0.09
elaps:  bands             3      18.847      56.540    17.51
elaps:  writewave         1       0.002       0.002     0.00
elaps:  KSV_init          1       0.000       0.000     0.00
elaps:  IterMD            1     265.523     265.523    82.23
elaps:  hsparse           1       0.027       0.027     0.01
elaps:  overlap           1       0.714       0.714     0.22
elaps:  IterSCF           1     253.580     253.580    78.53
elaps:  kinefsm           2       0.366       0.732     0.23
elaps:  nlefsm            2       1.833       3.666     1.14
elaps:  DHSCF             2       9.335      18.670     5.78
elaps:  DHSCF1            1       0.102       0.102     0.03
elaps:  DHSCF2            1       2.639       2.639     0.82
elaps:  REORD            18       0.000       0.005     0.00
elaps:  POISON            3       0.040       0.119     0.04
elaps:  DHSCF3            2       5.867      11.734     3.63
elaps:  rhoofd            2       2.760       5.521     1.71
elaps:  cellXC            2       0.201       0.401     0.12
elaps:  vmat              2       2.788       5.576     1.73
elaps:  MolMec            2       0.000       0.000     0.00
elaps:  diagon            1     241.495     241.495    74.79
elaps:  c-eigval        352       0.466     164.050    50.81
elaps:  c-buildHS       352       0.004       1.314     0.41
elaps:  cdiag           583       0.471     274.817    85.11
elaps:  cdiag1          583       0.025      14.406     4.46
elaps:  cdiag2          583       0.142      83.012    25.71
elaps:  cdiag3          583       0.290     169.130    52.38
elaps:  cdiag4          583       0.009       5.144     1.59
elaps:  c-eigvec        231       0.488     112.837    34.95
elaps:  c-buildD        231       0.091      20.973     6.50
elaps:  DHSCF4            1       4.190       4.190     1.30
elaps:  dfscf             1       3.937       3.937     1.22
elaps:  overfsm           1       0.034       0.034     0.01
elaps:  optical           1       0.000       0.000     0.00
  
>> End of run:  14-APR-2016  14:43:59
