Siesta Version:                                        siesta-3.2-pl-3
Architecture  : x86_64-unknown-linux-gnu--unknown
Compiler flags: mpiifort -g -O2 -fPIC -xSSE4.1 -fp-model source -shared-intel 
PARALLEL version

* Running on    8 nodes in parallel
>> Start of run:   2-MAY-2016   1:28:24

                           ***********************       
                           *  WELCOME TO SIESTA  *       
                           ***********************       

reinit: Reading from standard input
************************** Dump of input data file ****************************
#(1) General system descriptors
SystemName            GRP_doping    # Descriptive name of the system
SystemLabel           GRP_doping    # Short name for naming files
%include STRUCT.fdf
%include KPT.fdf
%include BASIS.fdf
#%include TS.fdf # for transiesta calculation
#(4) DFT, Grid, SCF
XC.functional         GGA           # LDA or GGA (default = LDA)
XC.authors            PBE           # CA (Ceperley-Aldr) = PZ
                                    #    (Perdew-Zunger) - LDA - Default
                                    # PW92 (Perdew-Wang-92) - LDA
                                    # PBE (Perdew-Burke-Ernzerhof) - GGA
MeshCutoff            200.000000    Ry      # Default: 50.0 Ry ~ 0.444 Bohr
                                    #         100.0 Ry ~ 0.314 Bohr
MaxSCFIterations      500           # Default: 50
DM.MixingWeight       0.05          # Default: 0.25
DM.NumberPulay        10            # Default: 0
DM.PulayOnFile        F             # SystemLabel.P1, SystemLabel.P2
DM.Tolerance          1.d-4         # Default: 1.d-4
DM.UseSaveDM          .true.        # because of the bug
SCFMustConverge       .true.
NeglNonOverlapInt     F             # Default: F
#(5) Eigenvalue problem: order-N or diagonalization
SolutionMethod        Diagon        # or Transiesta
ElectronicTemperature 300.0 K       # Default: 300.0 K
#(6) Molecular dynamics and relaxations
#MD.TypeOfRun          CG            # Type of dynamics:
#MD.VariableCell       F
#MD.NumCGsteps         0           # 0 for single-point / 100 for gopt
#MD.MaxCGDispl         0.2 Bohr      # Default: 0.2 Bohr
#MD.MaxForceTol        0.02 eV/Ang   # Default: 0.04 eV/Ang
#MD.MaxStressTol       1.0 GPa       # Default: 1.0 GPa
# Geometry Constraints
#%block GeometryConstraints
#	position from 1 to 44
#%endblock GeometryConstraints
BandLinesScale   pi/a
%block BandLines
 1   0.00000000  0.00000000  0.00000000
50   0.00000000  0.07809418  0.00000000
50   0.04509075  0.07809242  0.00000000
20   0.00000000  0.00000000  0.00000000
%endblock BandLines
************************** End of input data file *****************************

reinit: -----------------------------------------------------------------------
reinit: System Name: GRP_doping
reinit: -----------------------------------------------------------------------
reinit: System Label: GRP_doping                                                  
reinit: -----------------------------------------------------------------------

initatom: Reading input for the pseudopotentials and atomic orbitals ----------
 Species number:            1  Label: B Atomic number:           5
 Species number:            2  Label: C Atomic number:           6
Ground state valence configuration:   2s02  2p01
Reading pseudopotential information in formatted form from B.psf

Valence configuration for pseudopotential generation:
2s( 2.00) rc: 1.74
2p( 1.00) rc: 1.74
3d( 0.00) rc: 1.74
4f( 0.00) rc: 1.74
Ground state valence configuration:   2s02  2p02
Reading pseudopotential information in formatted form from C.psf

Valence configuration for pseudopotential generation:
2s( 2.00) rc: 1.54
2p( 2.00) rc: 1.54
3d( 0.00) rc: 1.54
4f( 0.00) rc: 1.54
For B, standard SIESTA heuristics set lmxkb to 3
 (one more than the basis l, including polarization orbitals).
Use PS.lmax or PS.KBprojectors blocks to override.
For C, standard SIESTA heuristics set lmxkb to 3
 (one more than the basis l, including polarization orbitals).
Use PS.lmax or PS.KBprojectors blocks to override.

<basis_specs>
===============================================================================
B                    Z=   5    Mass=  10.810        Charge= 0.17977+309
Lmxo=1 Lmxkb= 3    BasisType=split      Semic=F
L=0  Nsemic=0  Cnfigmx=2
          n=1  nzeta=2  polorb=0
            splnorm:   0.15000    
               vcte:    0.0000    
               rinn:    0.0000    
                rcs:    0.0000      0.0000    
            lambdas:    1.0000      1.0000    
L=1  Nsemic=0  Cnfigmx=2
          n=1  nzeta=2  polorb=1
            splnorm:   0.15000    
               vcte:    0.0000    
               rinn:    0.0000    
                rcs:    0.0000      0.0000    
            lambdas:    1.0000      1.0000    
-------------------------------------------------------------------------------
L=0  Nkbl=1  erefs: 0.17977+309
L=1  Nkbl=1  erefs: 0.17977+309
L=2  Nkbl=1  erefs: 0.17977+309
L=3  Nkbl=1  erefs: 0.17977+309
===============================================================================
</basis_specs>

atom: Called for B                     (Z =   5)

read_vps: Pseudopotential generation method:
read_vps: ATM3      Troullier-Martins                       
Total valence charge:    3.00000

read_vps: Pseudopotential includes a core correction:
read_vps: Pseudo-core for xc-correction

xc_check: Exchange-correlation functional:
xc_check: GGA Perdew, Burke & Ernzerhof 1996
V l=0 = -2*Zval/r beyond r=  1.7165
V l=1 = -2*Zval/r beyond r=  1.7165
V l=2 = -2*Zval/r beyond r=  1.7165
V l=3 = -2*Zval/r beyond r=  1.6951
All V_l potentials equal beyond r=  1.7165
This should be close to max(r_c) in ps generation
All pots = -2*Zval/r beyond r=  1.7165

VLOCAL1: 99.0% of the norm of Vloc inside     14.733 Ry
VLOCAL1: 99.9% of the norm of Vloc inside     33.577 Ry
atom: Maximum radius for 4*pi*r*r*local-pseudopot. charge    2.04484
atom: Maximum radius for r*vlocal+2*Zval:    1.75994
GHOST: No ghost state for L =  0
GHOST: No ghost state for L =  1
GHOST: No ghost state for L =  2
GHOST: No ghost state for L =  3

KBgen: Kleinman-Bylander projectors: 
   l= 0   rc=  1.897051   el= -0.693730   Ekb=  4.595746   kbcos=  0.286105
   l= 1   rc=  1.920920   el= -0.265236   Ekb= -2.350715   kbcos= -0.315747
   l= 2   rc=  2.044840   el=  0.002055   Ekb= -0.690767   kbcos= -0.013822
   l= 3   rc=  2.149707   el=  0.003188   Ekb= -0.315358   kbcos= -0.002055

KBgen: Total number of  Kleinman-Bylander projectors:   16
atom: -------------------------------------------------------------------------

atom: SANKEY-TYPE ORBITALS:
atom: Selected multiple-zeta basis: split     

SPLIT: Orbitals with angular momentum L= 0

SPLIT: Basis orbitals for state 2s

SPLIT: PAO cut-off radius determined from an
SPLIT: energy shift=  0.007350 Ry

   izeta = 1
                 lambda =    1.000000
                     rc =    5.422032
                 energy =   -0.686029
                kinetic =    0.576707
    potential(screened) =   -1.262736
       potential(ionic) =   -3.271094

   izeta = 2
                 rmatch =    4.222573
              splitnorm =    0.150000
                 energy =   -0.602132
                kinetic =    0.858975
    potential(screened) =   -1.461107
       potential(ionic) =   -3.582536

SPLIT: Orbitals with angular momentum L= 1

SPLIT: Basis orbitals for state 2p

SPLIT: PAO cut-off radius determined from an
SPLIT: energy shift=  0.007350 Ry

   izeta = 1
                 lambda =    1.000000
                     rc =    6.790259
                 energy =   -0.258578
                kinetic =    1.481412
    potential(screened) =   -1.739989
       potential(ionic) =   -3.657461

   izeta = 2
                 rmatch =    4.608740
              splitnorm =    0.150000
                 energy =   -0.173757
                kinetic =    2.186690
    potential(screened) =   -2.360447
       potential(ionic) =   -4.464260

POLgen: Perturbative polarization orbital with L=  2

POLgen: Polarization orbital for state 2p

   izeta = 1
                     rc =    6.790259
                 energy =    0.684082
                kinetic =    1.471481
    potential(screened) =   -0.787399
       potential(ionic) =   -2.406985
atom: Total number of Sankey-type orbitals: 13

atm_pop: Valence configuration (for local Pseudopot. screening):
 2s( 2.00)                                                            
 2p( 1.00)                                                            
Vna: chval, zval:    3.00000   3.00000

Vna:  Cut-off radius for the neutral-atom potential:   6.790259
comcore: Pseudo-core radius Rcore=  2.122997

atom: _________________________________________________________________________

<basis_specs>
===============================================================================
C                    Z=   6    Mass=  12.010        Charge= 0.17977+309
Lmxo=1 Lmxkb= 3    BasisType=split      Semic=F
L=0  Nsemic=0  Cnfigmx=2
          n=1  nzeta=2  polorb=0
            splnorm:   0.15000    
               vcte:    0.0000    
               rinn:    0.0000    
                rcs:    0.0000      0.0000    
            lambdas:    1.0000      1.0000    
L=1  Nsemic=0  Cnfigmx=2
          n=1  nzeta=2  polorb=1
            splnorm:   0.15000    
               vcte:    0.0000    
               rinn:    0.0000    
                rcs:    0.0000      0.0000    
            lambdas:    1.0000      1.0000    
-------------------------------------------------------------------------------
L=0  Nkbl=1  erefs: 0.17977+309
L=1  Nkbl=1  erefs: 0.17977+309
L=2  Nkbl=1  erefs: 0.17977+309
L=3  Nkbl=1  erefs: 0.17977+309
===============================================================================
</basis_specs>

atom: Called for C                     (Z =   6)

read_vps: Pseudopotential generation method:
read_vps: ATM3      Troullier-Martins                       
Total valence charge:    4.00000

read_vps: Pseudopotential includes a core correction:
read_vps: Pseudo-core for xc-correction

xc_check: Exchange-correlation functional:
xc_check: GGA Perdew, Burke & Ernzerhof 1996
V l=0 = -2*Zval/r beyond r=  1.5227
V l=1 = -2*Zval/r beyond r=  1.5227
V l=2 = -2*Zval/r beyond r=  1.5227
V l=3 = -2*Zval/r beyond r=  1.5038
All V_l potentials equal beyond r=  1.5227
This should be close to max(r_c) in ps generation
All pots = -2*Zval/r beyond r=  1.5227

VLOCAL1: 99.0% of the norm of Vloc inside     18.722 Ry
VLOCAL1: 99.9% of the norm of Vloc inside     42.668 Ry
atom: Maximum radius for 4*pi*r*r*local-pseudopot. charge    1.83678
atom: Maximum radius for r*vlocal+2*Zval:    1.58088
GHOST: No ghost state for L =  0
GHOST: No ghost state for L =  1
GHOST: No ghost state for L =  2
GHOST: No ghost state for L =  3

KBgen: Kleinman-Bylander projectors: 
   l= 0   rc=  1.704034   el= -1.009801   Ekb=  5.335044   kbcos=  0.316824
   l= 1   rc=  1.704034   el= -0.388707   Ekb= -3.785862   kbcos= -0.366464
   l= 2   rc=  1.791422   el=  0.001971   Ekb= -0.970471   kbcos= -0.009212
   l= 3   rc=  1.859892   el=  0.003065   Ekb= -0.399525   kbcos= -0.001223

KBgen: Total number of  Kleinman-Bylander projectors:   16
atom: -------------------------------------------------------------------------

atom: SANKEY-TYPE ORBITALS:
atom: Selected multiple-zeta basis: split     

SPLIT: Orbitals with angular momentum L= 0

SPLIT: Basis orbitals for state 2s

SPLIT: PAO cut-off radius determined from an
SPLIT: energy shift=  0.007350 Ry

   izeta = 1
                 lambda =    1.000000
                     rc =    4.632753
                 energy =   -1.002270
                kinetic =    0.855760
    potential(screened) =   -1.858031
       potential(ionic) =   -5.417575

   izeta = 2
                 rmatch =    3.431921
              splitnorm =    0.150000
                 energy =   -0.867111
                kinetic =    1.300804
    potential(screened) =   -2.167915
       potential(ionic) =   -5.962684

SPLIT: Orbitals with angular momentum L= 1

SPLIT: Basis orbitals for state 2p

SPLIT: PAO cut-off radius determined from an
SPLIT: energy shift=  0.007350 Ry

   izeta = 1
                 lambda =    1.000000
                     rc =    5.658549
                 energy =   -0.381140
                kinetic =    2.399701
    potential(screened) =   -2.780841
       potential(ionic) =   -6.206085

   izeta = 2
                 rmatch =    3.653288
              splitnorm =    0.150000
                 energy =   -0.249149
                kinetic =    3.542762
    potential(screened) =   -3.791911
       potential(ionic) =   -7.581078

POLgen: Perturbative polarization orbital with L=  2

POLgen: Polarization orbital for state 2p

   izeta = 1
                     rc =    5.658549
                 energy =    1.109913
                kinetic =    2.304789
    potential(screened) =   -1.194876
       potential(ionic) =   -4.013592
atom: Total number of Sankey-type orbitals: 13

atm_pop: Valence configuration (for local Pseudopot. screening):
 2s( 2.00)                                                            
 2p( 2.00)                                                            
Vna: chval, zval:    4.00000   4.00000

Vna:  Cut-off radius for the neutral-atom potential:   5.658549
comcore: Pseudo-core radius Rcore=  1.791422

atom: _________________________________________________________________________

prinput: Basis input ----------------------------------------------------------

PAO.BasisType split     

%block ChemicalSpeciesLabel
    1    5 B                       # Species index, atomic number, species label
    2    6 C                       # Species index, atomic number, species label
%endblock ChemicalSpeciesLabel

%block PAO.Basis                 # Define Basis set
B                     2                    # Species label, number of l-shells
 n=2   0   2                         # n, l, Nzeta 
   5.422      4.223   
   1.000      1.000   
 n=2   1   2 P   1                   # n, l, Nzeta, Polarization, NzetaPol
   6.790      4.609   
   1.000      1.000   
C                     2                    # Species label, number of l-shells
 n=2   0   2                         # n, l, Nzeta 
   4.633      3.432   
   1.000      1.000   
 n=2   1   2 P   1                   # n, l, Nzeta, Polarization, NzetaPol
   5.659      3.653   
   1.000      1.000   
%endblock PAO.Basis

prinput: ----------------------------------------------------------------------

coor:   Atomic-coordinates input format  =     Fractional

siesta: Atomic coordinates (Bohr) and species
siesta:      6.95932  30.82560   0.00000  1        1
siesta:      4.63094  21.41544   0.00000  1        2
siesta:     -2.35420  17.38257   0.00000  1        3
siesta:     -0.02582  18.72698   0.00000  1        4
siesta:     -0.02582  21.41544   0.00000  1        5
siesta:      2.30256  22.75985   0.00000  1        6
siesta:     -7.01096  17.38257   0.00000  1        7
siesta:     -4.68258  18.72698   0.00000  1        8
siesta:     -9.33934  18.72698   0.00000  1        9
siesta:     -9.33934  21.41544   0.00000  1       10
siesta:      4.63094  26.79272   0.00000  1       11
siesta:      4.63094  29.48119   0.00000  1       12
siesta:     -0.02582  26.79272   0.00000  1       13
siesta:     -0.02582  29.48119   0.00000  1       14
siesta:      2.30256  30.82560   0.00000  1       15
siesta:     -0.02582  34.85847   0.00000  1       16
siesta:     -0.02582   2.59549   0.00000  2       17
siesta:     -0.02582   5.28395   0.00000  2       18
siesta:     -2.35420  38.89134   0.00000  2       19
siesta:     -2.35420  41.57980   0.00000  2       20
siesta:      2.30256  38.89134   0.00000  2       21
siesta:      2.30256  41.57980   0.00000  2       22
siesta:      4.63094  34.85847   0.00000  2       23
siesta:      4.63094  37.54693   0.00000  2       24
siesta:      6.95932  33.51406   0.00000  2       25
siesta:      9.28770  26.79272   0.00000  2       26
siesta:      9.28770  29.48119   0.00000  2       27
siesta:     -4.68258  34.85847   0.00000  2       28
siesta:     -4.68258  37.54693   0.00000  2       29
siesta:      2.30256   6.62836   0.00000  2       30
siesta:      2.30256   9.31683   0.00000  2       31
siesta:      4.63094  10.66124   0.00000  2       32
siesta:      4.63094  13.34970   0.00000  2       33
siesta:      6.95932  14.69411   0.00000  2       34
siesta:      6.95932  17.38257   0.00000  2       35
siesta:      9.28770  18.72698   0.00000  2       36
siesta:      9.28770  21.41544   0.00000  2       37
siesta:     11.61608  22.75985   0.00000  2       38
siesta:     11.61608  25.44831   0.00000  2       39
siesta:     -2.35420   6.62836   0.00000  2       40
siesta:     -2.35420   9.31683   0.00000  2       41
siesta:     -0.02582  10.66124   0.00000  2       42
siesta:     -0.02582  13.34970   0.00000  2       43
siesta:      2.30256  14.69411   0.00000  2       44
siesta:      2.30256  17.38257   0.00000  2       45
siesta:      4.63094  18.72698   0.00000  2       46
siesta:      6.95932  22.75985   0.00000  2       47
siesta:      6.95932  25.44831   0.00000  2       48
siesta:     -4.68258  10.66124   0.00000  2       49
siesta:     -4.68258  13.34970   0.00000  2       50
siesta:     -2.35420  14.69411   0.00000  2       51
siesta:      2.30256  25.44831   0.00000  2       52
siesta:     -7.01096  14.69411   0.00000  2       53
siesta:     -4.68258  21.41544   0.00000  2       54
siesta:     -2.35420  22.75985   0.00000  2       55
siesta:     -2.35420  25.44831   0.00000  2       56
siesta:     -7.01096  22.75985   0.00000  2       57
siesta:     -7.01096  25.44831   0.00000  2       58
siesta:    -11.66772  22.75985   0.00000  2       59
siesta:    -11.66772  25.44831   0.00000  2       60
siesta:     -9.33934  26.79272   0.00000  2       61
siesta:     -9.33934  29.48119   0.00000  2       62
siesta:     -4.68258  26.79272   0.00000  2       63
siesta:     -4.68258  29.48119   0.00000  2       64
siesta:      2.30256  33.51406   0.00000  2       65
siesta:     -2.35420  30.82560   0.00000  2       66
siesta:     -2.35420  33.51406   0.00000  2       67
siesta:     -7.01096  30.82560   0.00000  2       68
siesta:     -7.01096  33.51406   0.00000  2       69
siesta:     -0.02582  37.54693   0.00000  2       70
siesta:     -0.02582  42.92421   0.00000  2       71
siesta:     -0.02582  45.61267   0.00000  2       72

siesta: System type = slab      

initatomlists: Number of atoms, orbitals, and projectors:     72   936  1152

siesta: ******************** Simulation parameters ****************************
siesta:
siesta: The following are some of the parameters of the simulation.
siesta: A complete list of the parameters used, including default values,
siesta: can be found in file out.fdf
siesta:
redata: Non-Collinear-spin run           =     F
redata: SpinPolarized (Up/Down) run      =     F
redata: Number of spin components        =     1
redata: Long output                      =     F
redata: Number of Atomic Species         =        2
redata: Charge density info will appear in .RHO file
redata: Write Mulliken Pop.              =     NO
redata: Mesh Cutoff                      =   200.0000  Ry
redata: Net charge of the system         =     0.0000 |e|
redata: Max. number of SCF Iter          =      500
redata: SCF convergence failure will abort job
redata: Performing Pulay mixing using    =    10 iterations
redata: Mix DM in first SCF step ?       =     F
redata: Write Pulay info on disk?        =     F
redata: Discard 1st Pulay DM after  kick =     F
redata: New DM Mixing Weight             =     0.0500
redata: New DM Occupancy tolerance       = 0.000000000001
redata: No kicks to SCF
redata: DM Mixing Weight for Kicks       =     0.5000
redata: DM Tolerance for SCF             =     0.000100
redata: Require Energy convergence for SCF =     F
redata: DM Energy tolerance for SCF      =     0.000100 eV
redata: Require Harris convergence for SCF =     F
redata: DM Harris energy tolerance for SCF =     0.000100 eV
redata: Using Saved Data (generic)   =     F
redata: Use continuation files for DM    =     T
redata: Neglect nonoverlap interactions  =     F
redata: Method of Calculation            =     Diagonalization
redata: Divide and Conquer               =     T
redata: Electronic Temperature           =     0.0019  Ry
redata: Fix the spin of the system       =     F
redata: Dynamics option                  =     Verlet MD run
redata: Initial MD time step             =        1
redata:   Final MD time step             =        1
redata: Length of MD time step           =     1.0000  fs
redata: Initial Temperature of MD run    =     0.0000  K
redata: Perform a MD quench              =     F
redata: ***********************************************************************
Total number of electrons:   272.000000
Total ionic charge:   272.000000

* ProcessorY, Blocksize:    2  24

k-point displ. along   1 input, could be:     0.50    0.00
k-point displ. along   2 input, could be:     0.50    0.00
 Kpoints in:          231 . Kpoints trimmed:          231

siesta: k-grid: Number of k-points =   231
siesta: k-grid: Cutoff (effective) =     5.000 Ang
siesta: k-grid: Supercell and displacements
siesta: k-grid:   21   0   0      0.500
siesta: k-grid:    0  21   0      0.500
siesta: k-grid:    0   0   1      0.000
Naive supercell factors:     2    2    2

superc: Internal auxiliary supercell:     2 x     2 x     2  =       8
superc: Number of atoms, orbitals, and projectors:    576   7488   9216

* Maximum dynamic memory allocated =     4 MB

siesta:                 ==============================
                            Begin MD step =      1
                        ==============================

superc: Internal auxiliary supercell:     2 x     2 x     2  =       8
superc: Number of atoms, orbitals, and projectors:    576   7488   9216

outcell: Unit cell vectors (Ang):
       12.804619    7.392750    0.000000
        0.000000   14.785500    0.000000
        0.000000    0.000000   10.000000

outcell: Cell vector modules (Ang)   :   14.785500   14.785500   10.000000
outcell: Cell angles (23,13,12) (deg):     90.0000     90.0000     60.0000
outcell: Cell volume (Ang**3)        :   1893.2269
New_DM. Step:     1
Initializing Density Matrix...

InitMesh: MESH =   120 x   120 x    90 =     1296000
InitMesh: Mesh cutoff (required, used) =   200.000   223.865 Ry

* Maximum dynamic memory allocated =   214 MB

stepf: Fermi-Dirac step function

siesta: Program's energy decomposition (eV):
siesta: Ebs     =     -5619.969125
siesta: Eions   =     16354.103692
siesta: Ena     =      4338.662059
siesta: Ekin    =      5534.369168
siesta: Enl     =       768.951169
siesta: DEna    =        -0.000010
siesta: DUscf   =         0.000000
siesta: DUext   =         0.000000
siesta: Exc     =     -4196.335512
siesta: eta*DQ  =         0.000000
siesta: Emadel  =         0.000000
siesta: Emeta   =         0.000000
siesta: Emolmec =         0.000000
siesta: Ekinion =         0.000000
siesta: Eharris =     -9631.012863
siesta: Etot    =     -9908.456818
siesta: FreeEng =     -9908.456818

siesta: iscf   Eharris(eV)      E_KS(eV)   FreeEng(eV)   dDmax  Ef(eV)
siesta:    1    -9631.0129    -9908.4568    -9908.4568  6.9914 -8.3641
timer: Routine,Calls,Time,% = IterSCF        1    4397.996  99.73
elaps: Routine,Calls,Wall,% = IterSCF        1     550.425  99.73
siesta:    2   -13646.4247    -8973.6826    -8973.7408 18.6803 -1.8535
siesta:    3    -9556.7283    -9772.4654    -9772.5265  3.5566 -7.2534
siesta:    4    -9540.2068    -9611.0263    -9611.0541  1.3201 -5.7644
siesta:    5    -9505.0507    -9563.1337    -9563.1760  1.1902 -5.5436
siesta:    6    -9486.4218    -9525.7597    -9525.8032  0.7284 -5.4059
siesta:    7    -9483.3636    -9508.1440    -9508.1663  0.7884 -5.3770
siesta:    8    -9480.7374    -9495.3683    -9495.4271  0.7335 -5.2821
siesta:    9    -9479.3799    -9481.6991    -9481.7450  0.6123 -5.1906
siesta:   10    -9479.4288    -9469.6200    -9469.6861  0.4698 -5.1692
siesta:   11    -9478.1287    -9461.9938    -9462.0403  0.3300 -5.1678
siesta:   12    -9478.3039    -9452.3354    -9452.4111  0.1456 -5.1139
siesta:   13    -9477.9804    -9451.3366    -9451.4061  0.1326 -5.1309
siesta:   14    -9477.3630    -9455.1485    -9455.2164  0.1196 -5.1468
siesta:   15    -9476.9116    -9460.7185    -9460.7857  0.0935 -5.1509
siesta:   16    -9476.8364    -9464.1367    -9464.2030  0.0921 -5.1561
siesta:   17    -9476.8070    -9467.0815    -9467.1423  0.0876 -5.1774
siesta:   18    -9476.7945    -9469.5124    -9469.5731  0.0645 -5.1898
siesta:   19    -9476.7628    -9473.0163    -9473.0774  0.0228 -5.2050
siesta:   20    -9476.7536    -9474.6827    -9474.7488  0.0262 -5.2101
siesta:   21    -9476.7501    -9475.3538    -9475.4202  0.0236 -5.2062
siesta:   22    -9476.7513    -9476.3190    -9476.3846  0.0126 -5.1963
siesta:   23    -9476.7499    -9476.7735    -9476.8371  0.0085 -5.1916
siesta:   24    -9476.7484    -9476.9182    -9476.9823  0.0060 -5.1913
siesta:   25    -9476.7477    -9476.9284    -9476.9931  0.0031 -5.1900
siesta:   26    -9476.7476    -9476.9434    -9477.0083  0.0021 -5.1900
siesta:   27    -9476.7476    -9476.9130    -9476.9779  0.0012 -5.1897
siesta:   28    -9476.7476    -9476.9036    -9476.9685  0.0008 -5.1898
siesta:   29    -9476.7477    -9476.8909    -9476.9557  0.0007 -5.1899
siesta:   30    -9476.7476    -9476.8677    -9476.9325  0.0006 -5.1900
siesta:   31    -9476.7476    -9476.8277    -9476.8925  0.0003 -5.1900
siesta:   32    -9476.7476    -9476.7848    -9476.8496  0.0002 -5.1899
siesta:   33    -9476.7476    -9476.7628    -9476.8275  0.0002 -5.1898
siesta:   34    -9476.7476    -9476.7565    -9476.8213  0.0002 -5.1899
siesta:   35    -9476.7476    -9476.7472    -9476.8120  0.0002 -5.1899
siesta:   36    -9476.7476    -9476.7409    -9476.8057  0.0001 -5.1900
siesta:   37    -9476.7476    -9476.7392    -9476.8040  0.0001 -5.1900

siesta: E_KS(eV) =            -9476.7420

siesta: E_KS - E_eggbox =     -9476.7420

siesta: Atomic forces (eV/Ang):
----------------------------------------
   Tot   -0.008192   -0.112187    0.000000
----------------------------------------
   Max  556.689123
   Res  153.168880    sqrt( Sum f_i^2 / 3N )
----------------------------------------
   Max  556.689123    constrained

Stress-tensor-Voigt (kbar):     -801.05    -2760.94       -0.59        3.68        0.00        0.00
(Free)E + p*V (eV/cell)    -8073.5688
Target enthalpy (eV/cell)    -9476.8068

siesta: Stress tensor (static) (eV/Ang**3):
        -0.499968    0.002295    0.000000
         0.002295   -1.723228    0.000000
         0.000000    0.000000   -0.000370

siesta: Pressure (static):       1187.52772718  kBar

siesta: Stress tensor (total) (eV/Ang**3):
        -0.499968    0.002295    0.000000
         0.002295   -1.723228    0.000000
         0.000000    0.000000   -0.000370

siesta: Pressure (total):       1187.52772718  kBar

siesta: Temp_ion =       0.000 K

* Maximum dynamic memory allocated =   230 MB
Computing bands...

siesta: Program's energy decomposition (eV):
siesta: Ebs     =     -4238.658710
siesta: Eions   =     16354.103692
siesta: Ena     =      4338.662059
siesta: Ekin    =      8452.224866
siesta: Enl     =      -845.915574
siesta: DEna    =      -805.318554
siesta: DUscf   =       109.077784
siesta: DUext   =         0.000000
siesta: Exc     =     -4371.368865
siesta: eta*DQ  =         0.000000
siesta: Emadel  =         0.000000
siesta: Emeta   =         0.000000
siesta: Emolmec =         0.000000
siesta: Ekinion =         0.000000
siesta: Eharris =     -9476.747615
siesta: Etot    =     -9476.741976
siesta: FreeEng =     -9476.806760

siesta: Final energy (eV):
siesta:  Band Struct. =   -4238.658710
siesta:       Kinetic =    8452.224866
siesta:       Hartree =   27679.488765
siesta:    Ext. field =       0.000000
siesta:   Exch.-corr. =   -4371.368865
siesta:  Ion-electron =  -63496.381138
siesta:       Ion-ion =   22259.294396
siesta:       Ekinion =       0.000000
siesta:         Total =   -9476.741976

siesta: Atomic forces (eV/Ang):
siesta:      1    8.545168    3.498715    0.000000
siesta:      2    3.420701   -2.859914    0.000000
siesta:      3  -15.787508   -2.083275    0.000000
siesta:      4   -0.812508  408.947596    0.000000
siesta:      5   -3.221234    0.546570    0.000000
siesta:      6    0.290939    4.814741    0.000000
siesta:      7   -3.296019   -7.041405    0.000000
siesta:      8    0.613601    2.975534    0.000000
siesta:      9   -3.532989   -2.221165    0.000000
siesta:     10   -3.904486    2.137974    0.000000
siesta:     11   -0.038720   -4.533111    0.000000
siesta:     12   -1.976836    1.659317    0.000000
siesta:     13    0.090886   -3.351192    0.000000
siesta:     14   -0.457902 -411.121449    0.000000
siesta:     15   15.638303    2.662177    0.000000
siesta:     16    0.062583  113.198453    0.000000
siesta:     17   -2.333408  409.750255    0.000000
siesta:     18    4.345879 -128.714254    0.000000
siesta:     19    2.324051  127.684376    0.000000
siesta:     20  -18.852619 -553.640350    0.000000
siesta:     21   -2.124504  127.594052    0.000000
siesta:     22   17.658397 -548.850752    0.000000
siesta:     23   26.455242    5.247774    0.000000
siesta:     24   33.055764 -549.122474    0.000000
siesta:     25   -4.332448    4.669240    0.000000
siesta:     26    2.865853    2.123884    0.000000
siesta:     27    0.628706   -3.466750    0.000000
siesta:     28  -26.392791    4.459346    0.000000
siesta:     29  -32.785798 -548.191930    0.000000
siesta:     30   24.031745  554.724730    0.000000
siesta:     31   -4.191712 -131.186141    0.000000
siesta:     32   33.065887  549.166427    0.000000
siesta:     33   26.664002   -4.709450    0.000000
siesta:     34   -2.618204   -1.729163    0.000000
siesta:     35    2.559985   -1.012469    0.000000
siesta:     36   -1.188898   -0.027616    0.000000
siesta:     37    3.229261   -2.046789    0.000000
siesta:     38   -0.252034    6.863042    0.000000
siesta:     39    0.442693   -6.646154    0.000000
siesta:     40  -23.412163  550.808250    0.000000
siesta:     41    3.777329 -131.404208    0.000000
siesta:     42   -0.470612  554.688120    0.000000
siesta:     43   -0.732659 -127.679685    0.000000
siesta:     44   24.421223  556.689123    0.000000
siesta:     45   22.374182   -3.335344    0.000000
siesta:     46   -1.544556   -1.808497    0.000000
siesta:     47    2.671702    3.433596    0.000000
siesta:     48    2.950887   -3.646923    0.000000
siesta:     49  -33.113085  549.117817    0.000000
siesta:     50  -26.001909   -5.165266    0.000000
siesta:     51  -23.671650  556.073510    0.000000
siesta:     52   -0.704799    0.790481    0.000000
siesta:     53    3.471824   -4.408475    0.000000
siesta:     54    0.585915    4.264343    0.000000
siesta:     55   -3.534335    1.793273    0.000000
siesta:     56   -3.447395   -1.573485    0.000000
siesta:     57    3.148996    2.663479    0.000000
siesta:     58    0.413582   -0.794047    0.000000
siesta:     59   -2.709022    9.411494    0.000000
siesta:     60   -0.089827   -7.091745    0.000000
siesta:     61   -2.463113    1.884064    0.000000
siesta:     62    0.997950    0.111720    0.000000
siesta:     63    0.087990   -0.429591    0.000000
siesta:     64    1.066784   -1.278773    0.000000
siesta:     65   15.224981 -551.166989    0.000000
siesta:     66  -21.635256    2.251258    0.000000
siesta:     67  -17.115501 -552.545238    0.000000
siesta:     68   -2.087812    0.404326    0.000000
siesta:     69    2.613012    2.030748    0.000000
siesta:     70    0.488491 -545.149645    0.000000
siesta:     71   -2.776256  126.324745    0.000000
siesta:     72    3.317881 -405.543020    0.000000
siesta: ----------------------------------------
siesta:    Tot   -0.008192   -0.112187    0.000000

siesta: Stress tensor (static) (eV/Ang**3):
siesta:    -0.499968    0.002295    0.000000
siesta:     0.002295   -1.723228    0.000000
siesta:     0.000000    0.000000   -0.000370

siesta: Cell volume =       1893.226884 Ang**3

siesta: Pressure (static):
siesta:                Solid            Molecule  Units
siesta:           0.00807249          0.11807505  Ry/Bohr**3
siesta:           0.74118850         10.84124963  eV/Ang**3
siesta:        1187.52772718      17369.78458724  kBar
(Free)E+ p_basis*V_orbitals  =       -9441.013888
(Free)Eharris+ p_basis*V_orbitals  =       -9441.022283

siesta: Electric dipole (a.u.)  =    0.000000    0.000000    0.000000
siesta: Electric dipole (Debye) =    0.000000    0.000000    0.000000

* Maximum dynamic memory allocated : Node    0 =   230 MB
* Maximum dynamic memory allocated : Node    1 =    80 MB
* Maximum dynamic memory allocated : Node    2 =    83 MB
* Maximum dynamic memory allocated : Node    3 =   218 MB
* Maximum dynamic memory allocated : Node    4 =   226 MB
* Maximum dynamic memory allocated : Node    5 =    82 MB
* Maximum dynamic memory allocated : Node    6 =    85 MB
* Maximum dynamic memory allocated : Node    7 =   210 MB

* Maximum memory occured during matrixMtoO                    

timer: CPU execution times:
timer:  Routine       Calls   Time/call    Tot.time        %
timer:  siesta            1  161290.367  161290.367   100.00
timer:  Setup             1       3.073       3.073     0.00
timer:  bands             3     269.595     808.785     0.50
timer:  writewave         1       0.017       0.017     0.00
timer:  KSV_init          1       0.001       0.001     0.00
timer:  IterMD            1  160472.641  160472.641    99.49
timer:  hsparse           1       0.389       0.389     0.00
timer:  overlap           1       7.762       7.762     0.00
timer:  IterSCF          37    4331.300  160258.095    99.36
timer:  kinefsm           2       4.024       8.049     0.00
timer:  nlefsm            2      20.982      41.964     0.03
timer:  DHSCF            38     114.139    4337.269     2.69
timer:  DHSCF1            1       0.991       0.991     0.00
timer:  DHSCF2            1      43.633      43.633     0.03
timer:  REORD           306       0.010       3.209     0.00
timer:  POISON           39       2.233      87.086     0.05
timer:  DHSCF3           38     111.825    4249.360     2.63
timer:  rhoofd           38      24.339     924.867     0.57
timer:  cellXC           38       3.455     131.283     0.08
timer:  vmat             38      54.635    2076.129     1.29
timer:  MolMec            2       0.000       0.000     0.00
timer:  diagon           37    4215.932  155989.476    96.71
timer:  c-eigval       8668       6.678   57884.048    35.89
timer:  c-buildHS      8668       0.122    1054.351     0.65
timer:  cdiag         17215       6.901  118801.002    73.66
timer:  cdiag1        17215       0.430    7397.218     4.59
timer:  cdiag2        17215       1.912   32913.673    20.41
timer:  cdiag3        17215       3.939   67803.638    42.04
timer:  cdiag4        17215       0.227    3899.230     2.42
timer:  c-eigvec       8547       7.315   62517.663    38.76
timer:  c-buildD       8547       4.253   36346.279    22.53
timer:  DHSCF4            1      41.264      41.264     0.03
timer:  dfscf             1      38.607      38.607     0.02
timer:  overfsm           1       0.469       0.469     0.00
timer:  optical           1       5.119       5.119     0.00
  

elaps: ELAPSED times:
elaps:  Routine       Calls   Time/call    Tot.time        %
elaps:  siesta            1   20184.619   20184.619   100.00
elaps:  Setup             1       0.383       0.383     0.00
elaps:  bands             3      33.751     101.253     0.50
elaps:  writewave         1       0.002       0.002     0.00
elaps:  KSV_init          1       0.000       0.000     0.00
elaps:  IterMD            1   20082.307   20082.307    99.49
elaps:  hsparse           1       0.050       0.050     0.00
elaps:  overlap           1       0.987       0.987     0.00
elaps:  IterSCF          37     542.040   20055.468    99.36
elaps:  kinefsm           2       0.514       1.028     0.01
elaps:  nlefsm            2       2.690       5.379     0.03
elaps:  DHSCF            38      14.408     547.496     2.71
elaps:  DHSCF1            1       0.127       0.127     0.00
elaps:  DHSCF2            1       5.454       5.454     0.03
elaps:  REORD           306       0.001       0.407     0.00
elaps:  POISON           39       0.279      10.899     0.05
elaps:  DHSCF3           38      13.990     531.632     2.63
elaps:  rhoofd           38       6.388     242.761     1.20
elaps:  cellXC           38       0.431      16.386     0.08
elaps:  vmat             38       6.835     259.724     1.29
elaps:  MolMec            2       0.000       0.000     0.00
elaps:  diagon           37     527.629   19522.264    96.72
elaps:  c-eigval       8668       0.836    7242.405    35.88
elaps:  c-buildHS      8668       0.017     144.156     0.71
elaps:  cdiag         17215       0.850   14630.829    72.49
elaps:  cdiag1        17215       0.054     923.307     4.57
elaps:  cdiag2        17215       0.239    4118.295    20.40
elaps:  cdiag3        17215       0.493    8495.325    42.09
elaps:  cdiag4        17215       0.028     487.963     2.42
elaps:  c-eigvec       8547       0.893    7636.350    37.83
elaps:  c-buildD       8547       0.554    4736.419    23.47
elaps:  DHSCF4            1      10.009      10.009     0.05
elaps:  dfscf             1       9.496       9.496     0.05
elaps:  overfsm           1       0.061       0.061     0.00
elaps:  optical           1       0.000       0.000     0.00
  
>> End of run:   2-MAY-2016   7:04:49
