Siesta Version:                                        siesta-3.2-pl-3
Architecture  : x86_64-unknown-linux-gnu--unknown
Compiler flags: mpiifort -g -O2 -fPIC -xSSE4.1 -fp-model source -shared-intel 
PARALLEL version

* Running on   12 nodes in parallel
>> Start of run:   3-MAY-2016  16:34:06

                           ***********************       
                           *  WELCOME TO SIESTA  *       
                           ***********************       

reinit: Reading from standard input
************************** Dump of input data file ****************************
#(1) General system descriptors
SystemName            GRP_doping    # Descriptive name of the system
SystemLabel           GRP_doping    # Short name for naming files
%include STRUCT.fdf
%include KPT.fdf
%include BASIS.fdf
#%include TS.fdf # for transiesta calculation
#(4) DFT, Grid, SCF
XC.functional         GGA           # LDA or GGA (default = LDA)
XC.authors            PBE           # CA (Ceperley-Aldr) = PZ
                                    #    (Perdew-Zunger) - LDA - Default
                                    # PW92 (Perdew-Wang-92) - LDA
                                    # PBE (Perdew-Burke-Ernzerhof) - GGA
MeshCutoff            200.000000    Ry      # Default: 50.0 Ry ~ 0.444 Bohr
                                    #         100.0 Ry ~ 0.314 Bohr
MaxSCFIterations      500           # Default: 50
DM.MixingWeight       0.05          # Default: 0.25
DM.NumberPulay        10            # Default: 0
DM.PulayOnFile        F             # SystemLabel.P1, SystemLabel.P2
DM.Tolerance          1.d-4         # Default: 1.d-4
DM.UseSaveDM          .true.        # because of the bug
SCFMustConverge       .true.
NeglNonOverlapInt     F             # Default: F
#(5) Eigenvalue problem: order-N or diagonalization
SolutionMethod        Diagon        # or Transiesta
ElectronicTemperature 300.0 K       # Default: 300.0 K
#(6) Molecular dynamics and relaxations
#MD.TypeOfRun          CG            # Type of dynamics:
#MD.VariableCell       F
#MD.NumCGsteps         0           # 0 for single-point / 100 for gopt
#MD.MaxCGDispl         0.2 Bohr      # Default: 0.2 Bohr
#MD.MaxForceTol        0.02 eV/Ang   # Default: 0.04 eV/Ang
#MD.MaxStressTol       1.0 GPa       # Default: 1.0 GPa
# Geometry Constraints
#%block GeometryConstraints
#	position from 1 to 44
#%endblock GeometryConstraints
BandLinesScale   pi/a
%block BandLines
 1   0.00000000  0.00000000  0.00000000
50   0.00000000  0.07809418  0.00000000
50   0.04509075  0.07809242  0.00000000
20   0.00000000  0.00000000  0.00000000
%endblock BandLines
************************** End of input data file *****************************

reinit: -----------------------------------------------------------------------
reinit: System Name: GRP_doping
reinit: -----------------------------------------------------------------------
reinit: System Label: GRP_doping                                                  
reinit: -----------------------------------------------------------------------

initatom: Reading input for the pseudopotentials and atomic orbitals ----------
 Species number:            1  Label: B Atomic number:           5
 Species number:            2  Label: C Atomic number:           6
Ground state valence configuration:   2s02  2p01
Reading pseudopotential information in formatted form from B.psf

Valence configuration for pseudopotential generation:
2s( 2.00) rc: 1.74
2p( 1.00) rc: 1.74
3d( 0.00) rc: 1.74
4f( 0.00) rc: 1.74
Ground state valence configuration:   2s02  2p02
Reading pseudopotential information in formatted form from C.psf

Valence configuration for pseudopotential generation:
2s( 2.00) rc: 1.54
2p( 2.00) rc: 1.54
3d( 0.00) rc: 1.54
4f( 0.00) rc: 1.54
For B, standard SIESTA heuristics set lmxkb to 3
 (one more than the basis l, including polarization orbitals).
Use PS.lmax or PS.KBprojectors blocks to override.
For C, standard SIESTA heuristics set lmxkb to 3
 (one more than the basis l, including polarization orbitals).
Use PS.lmax or PS.KBprojectors blocks to override.

<basis_specs>
===============================================================================
B                    Z=   5    Mass=  10.810        Charge= 0.17977+309
Lmxo=1 Lmxkb= 3    BasisType=split      Semic=F
L=0  Nsemic=0  Cnfigmx=2
          n=1  nzeta=2  polorb=0
            splnorm:   0.15000    
               vcte:    0.0000    
               rinn:    0.0000    
                rcs:    0.0000      0.0000    
            lambdas:    1.0000      1.0000    
L=1  Nsemic=0  Cnfigmx=2
          n=1  nzeta=2  polorb=1
            splnorm:   0.15000    
               vcte:    0.0000    
               rinn:    0.0000    
                rcs:    0.0000      0.0000    
            lambdas:    1.0000      1.0000    
-------------------------------------------------------------------------------
L=0  Nkbl=1  erefs: 0.17977+309
L=1  Nkbl=1  erefs: 0.17977+309
L=2  Nkbl=1  erefs: 0.17977+309
L=3  Nkbl=1  erefs: 0.17977+309
===============================================================================
</basis_specs>

atom: Called for B                     (Z =   5)

read_vps: Pseudopotential generation method:
read_vps: ATM3      Troullier-Martins                       
Total valence charge:    3.00000

read_vps: Pseudopotential includes a core correction:
read_vps: Pseudo-core for xc-correction

xc_check: Exchange-correlation functional:
xc_check: GGA Perdew, Burke & Ernzerhof 1996
V l=0 = -2*Zval/r beyond r=  1.7165
V l=1 = -2*Zval/r beyond r=  1.7165
V l=2 = -2*Zval/r beyond r=  1.7165
V l=3 = -2*Zval/r beyond r=  1.6951
All V_l potentials equal beyond r=  1.7165
This should be close to max(r_c) in ps generation
All pots = -2*Zval/r beyond r=  1.7165

VLOCAL1: 99.0% of the norm of Vloc inside     14.733 Ry
VLOCAL1: 99.9% of the norm of Vloc inside     33.577 Ry
atom: Maximum radius for 4*pi*r*r*local-pseudopot. charge    2.04484
atom: Maximum radius for r*vlocal+2*Zval:    1.75994
GHOST: No ghost state for L =  0
GHOST: No ghost state for L =  1
GHOST: No ghost state for L =  2
GHOST: No ghost state for L =  3

KBgen: Kleinman-Bylander projectors: 
   l= 0   rc=  1.897051   el= -0.693730   Ekb=  4.595746   kbcos=  0.286105
   l= 1   rc=  1.920920   el= -0.265236   Ekb= -2.350715   kbcos= -0.315747
   l= 2   rc=  2.044840   el=  0.002055   Ekb= -0.690767   kbcos= -0.013822
   l= 3   rc=  2.149707   el=  0.003188   Ekb= -0.315358   kbcos= -0.002055

KBgen: Total number of  Kleinman-Bylander projectors:   16
atom: -------------------------------------------------------------------------

atom: SANKEY-TYPE ORBITALS:
atom: Selected multiple-zeta basis: split     

SPLIT: Orbitals with angular momentum L= 0

SPLIT: Basis orbitals for state 2s

SPLIT: PAO cut-off radius determined from an
SPLIT: energy shift=  0.007350 Ry

   izeta = 1
                 lambda =    1.000000
                     rc =    5.422032
                 energy =   -0.686029
                kinetic =    0.576707
    potential(screened) =   -1.262736
       potential(ionic) =   -3.271094

   izeta = 2
                 rmatch =    4.222573
              splitnorm =    0.150000
                 energy =   -0.602132
                kinetic =    0.858975
    potential(screened) =   -1.461107
       potential(ionic) =   -3.582536

SPLIT: Orbitals with angular momentum L= 1

SPLIT: Basis orbitals for state 2p

SPLIT: PAO cut-off radius determined from an
SPLIT: energy shift=  0.007350 Ry

   izeta = 1
                 lambda =    1.000000
                     rc =    6.790259
                 energy =   -0.258578
                kinetic =    1.481412
    potential(screened) =   -1.739989
       potential(ionic) =   -3.657461

   izeta = 2
                 rmatch =    4.608740
              splitnorm =    0.150000
                 energy =   -0.173757
                kinetic =    2.186690
    potential(screened) =   -2.360447
       potential(ionic) =   -4.464260

POLgen: Perturbative polarization orbital with L=  2

POLgen: Polarization orbital for state 2p

   izeta = 1
                     rc =    6.790259
                 energy =    0.684082
                kinetic =    1.471481
    potential(screened) =   -0.787399
       potential(ionic) =   -2.406985
atom: Total number of Sankey-type orbitals: 13

atm_pop: Valence configuration (for local Pseudopot. screening):
 2s( 2.00)                                                            
 2p( 1.00)                                                            
Vna: chval, zval:    3.00000   3.00000

Vna:  Cut-off radius for the neutral-atom potential:   6.790259
comcore: Pseudo-core radius Rcore=  2.122997

atom: _________________________________________________________________________

<basis_specs>
===============================================================================
C                    Z=   6    Mass=  12.010        Charge= 0.17977+309
Lmxo=1 Lmxkb= 3    BasisType=split      Semic=F
L=0  Nsemic=0  Cnfigmx=2
          n=1  nzeta=2  polorb=0
            splnorm:   0.15000    
               vcte:    0.0000    
               rinn:    0.0000    
                rcs:    0.0000      0.0000    
            lambdas:    1.0000      1.0000    
L=1  Nsemic=0  Cnfigmx=2
          n=1  nzeta=2  polorb=1
            splnorm:   0.15000    
               vcte:    0.0000    
               rinn:    0.0000    
                rcs:    0.0000      0.0000    
            lambdas:    1.0000      1.0000    
-------------------------------------------------------------------------------
L=0  Nkbl=1  erefs: 0.17977+309
L=1  Nkbl=1  erefs: 0.17977+309
L=2  Nkbl=1  erefs: 0.17977+309
L=3  Nkbl=1  erefs: 0.17977+309
===============================================================================
</basis_specs>

atom: Called for C                     (Z =   6)

read_vps: Pseudopotential generation method:
read_vps: ATM3      Troullier-Martins                       
Total valence charge:    4.00000

read_vps: Pseudopotential includes a core correction:
read_vps: Pseudo-core for xc-correction

xc_check: Exchange-correlation functional:
xc_check: GGA Perdew, Burke & Ernzerhof 1996
V l=0 = -2*Zval/r beyond r=  1.5227
V l=1 = -2*Zval/r beyond r=  1.5227
V l=2 = -2*Zval/r beyond r=  1.5227
V l=3 = -2*Zval/r beyond r=  1.5038
All V_l potentials equal beyond r=  1.5227
This should be close to max(r_c) in ps generation
All pots = -2*Zval/r beyond r=  1.5227

VLOCAL1: 99.0% of the norm of Vloc inside     18.722 Ry
VLOCAL1: 99.9% of the norm of Vloc inside     42.668 Ry
atom: Maximum radius for 4*pi*r*r*local-pseudopot. charge    1.83678
atom: Maximum radius for r*vlocal+2*Zval:    1.58088
GHOST: No ghost state for L =  0
GHOST: No ghost state for L =  1
GHOST: No ghost state for L =  2
GHOST: No ghost state for L =  3

KBgen: Kleinman-Bylander projectors: 
   l= 0   rc=  1.704034   el= -1.009801   Ekb=  5.335044   kbcos=  0.316824
   l= 1   rc=  1.704034   el= -0.388707   Ekb= -3.785862   kbcos= -0.366464
   l= 2   rc=  1.791422   el=  0.001971   Ekb= -0.970471   kbcos= -0.009212
   l= 3   rc=  1.859892   el=  0.003065   Ekb= -0.399525   kbcos= -0.001223

KBgen: Total number of  Kleinman-Bylander projectors:   16
atom: -------------------------------------------------------------------------

atom: SANKEY-TYPE ORBITALS:
atom: Selected multiple-zeta basis: split     

SPLIT: Orbitals with angular momentum L= 0

SPLIT: Basis orbitals for state 2s

SPLIT: PAO cut-off radius determined from an
SPLIT: energy shift=  0.007350 Ry

   izeta = 1
                 lambda =    1.000000
                     rc =    4.632753
                 energy =   -1.002270
                kinetic =    0.855760
    potential(screened) =   -1.858031
       potential(ionic) =   -5.417575

   izeta = 2
                 rmatch =    3.431921
              splitnorm =    0.150000
                 energy =   -0.867111
                kinetic =    1.300804
    potential(screened) =   -2.167915
       potential(ionic) =   -5.962684

SPLIT: Orbitals with angular momentum L= 1

SPLIT: Basis orbitals for state 2p

SPLIT: PAO cut-off radius determined from an
SPLIT: energy shift=  0.007350 Ry

   izeta = 1
                 lambda =    1.000000
                     rc =    5.658549
                 energy =   -0.381140
                kinetic =    2.399701
    potential(screened) =   -2.780841
       potential(ionic) =   -6.206085

   izeta = 2
                 rmatch =    3.653288
              splitnorm =    0.150000
                 energy =   -0.249149
                kinetic =    3.542762
    potential(screened) =   -3.791911
       potential(ionic) =   -7.581078

POLgen: Perturbative polarization orbital with L=  2

POLgen: Polarization orbital for state 2p

   izeta = 1
                     rc =    5.658549
                 energy =    1.109913
                kinetic =    2.304789
    potential(screened) =   -1.194876
       potential(ionic) =   -4.013592
atom: Total number of Sankey-type orbitals: 13

atm_pop: Valence configuration (for local Pseudopot. screening):
 2s( 2.00)                                                            
 2p( 2.00)                                                            
Vna: chval, zval:    4.00000   4.00000

Vna:  Cut-off radius for the neutral-atom potential:   5.658549
comcore: Pseudo-core radius Rcore=  1.791422

atom: _________________________________________________________________________

prinput: Basis input ----------------------------------------------------------

PAO.BasisType split     

%block ChemicalSpeciesLabel
    1    5 B                       # Species index, atomic number, species label
    2    6 C                       # Species index, atomic number, species label
%endblock ChemicalSpeciesLabel

%block PAO.Basis                 # Define Basis set
B                     2                    # Species label, number of l-shells
 n=2   0   2                         # n, l, Nzeta 
   5.422      4.223   
   1.000      1.000   
 n=2   1   2 P   1                   # n, l, Nzeta, Polarization, NzetaPol
   6.790      4.609   
   1.000      1.000   
C                     2                    # Species label, number of l-shells
 n=2   0   2                         # n, l, Nzeta 
   4.633      3.432   
   1.000      1.000   
 n=2   1   2 P   1                   # n, l, Nzeta, Polarization, NzetaPol
   5.659      3.653   
   1.000      1.000   
%endblock PAO.Basis

prinput: ----------------------------------------------------------------------

coor:   Atomic-coordinates input format  =     Fractional

siesta: Atomic coordinates (Bohr) and species
siesta:      4.63094  13.34970   0.00000  1        1
siesta:      6.95932  17.38257   0.00000  1        2
siesta:      2.30256  14.69411   0.00000  1        3
siesta:      4.63094  18.72698   0.00000  1        4
siesta:      4.63094  21.41544   0.00000  1        5
siesta:      6.95932  25.44831   0.00000  1        6
siesta:     -2.35420  17.38257   0.00000  1        7
siesta:     -0.02582  21.41544   0.00000  1        8
siesta:     -2.35420  22.75985   0.00000  1        9
siesta:     -7.01096  25.44831   0.00000  1       10
siesta:      4.63094  26.79272   0.00000  1       11
siesta:     -0.02582  29.48119   0.00000  1       12
siesta:     -4.68258  26.79272   0.00000  1       13
siesta:     -2.35420  30.82560   0.00000  1       14
siesta:     -7.01096  33.51406   0.00000  1       15
siesta:     -0.02582   2.59549   0.00000  2       16
siesta:     -0.02582   5.28395   0.00000  2       17
siesta:     -2.35420  38.89134   0.00000  2       18
siesta:     -2.35420  41.57980   0.00000  2       19
siesta:      2.30256  38.89134   0.00000  2       20
siesta:      2.30256  41.57980   0.00000  2       21
siesta:      4.63094  34.85847   0.00000  2       22
siesta:      4.63094  37.54693   0.00000  2       23
siesta:      6.95932  30.82560   0.00000  2       24
siesta:      6.95932  33.51406   0.00000  2       25
siesta:      9.28770  26.79272   0.00000  2       26
siesta:      9.28770  29.48119   0.00000  2       27
siesta:     -4.68258  34.85847   0.00000  2       28
siesta:     -4.68258  37.54693   0.00000  2       29
siesta:      2.30256   6.62836   0.00000  2       30
siesta:      2.30256   9.31683   0.00000  2       31
siesta:      4.63094  10.66124   0.00000  2       32
siesta:      6.95932  14.69411   0.00000  2       33
siesta:      9.28770  18.72698   0.00000  2       34
siesta:      9.28770  21.41544   0.00000  2       35
siesta:     11.61608  22.75985   0.00000  2       36
siesta:     11.61608  25.44831   0.00000  2       37
siesta:     -2.35420   6.62836   0.00000  2       38
siesta:     -2.35420   9.31683   0.00000  2       39
siesta:     -0.02582  10.66124   0.00000  2       40
siesta:     -0.02582  13.34970   0.00000  2       41
siesta:      2.30256  17.38257   0.00000  2       42
siesta:      6.95932  22.75985   0.00000  2       43
siesta:     -4.68258  10.66124   0.00000  2       44
siesta:     -4.68258  13.34970   0.00000  2       45
siesta:     -2.35420  14.69411   0.00000  2       46
siesta:     -0.02582  18.72698   0.00000  2       47
siesta:      2.30256  22.75985   0.00000  2       48
siesta:      2.30256  25.44831   0.00000  2       49
siesta:     -7.01096  14.69411   0.00000  2       50
siesta:     -7.01096  17.38257   0.00000  2       51
siesta:     -4.68258  18.72698   0.00000  2       52
siesta:     -4.68258  21.41544   0.00000  2       53
siesta:     -2.35420  25.44831   0.00000  2       54
siesta:     -9.33934  18.72698   0.00000  2       55
siesta:     -9.33934  21.41544   0.00000  2       56
siesta:     -7.01096  22.75985   0.00000  2       57
siesta:    -11.66772  22.75985   0.00000  2       58
siesta:    -11.66772  25.44831   0.00000  2       59
siesta:     -9.33934  26.79272   0.00000  2       60
siesta:     -9.33934  29.48119   0.00000  2       61
siesta:      4.63094  29.48119   0.00000  2       62
siesta:     -0.02582  26.79272   0.00000  2       63
siesta:     -4.68258  29.48119   0.00000  2       64
siesta:      2.30256  30.82560   0.00000  2       65
siesta:      2.30256  33.51406   0.00000  2       66
siesta:     -2.35420  33.51406   0.00000  2       67
siesta:     -7.01096  30.82560   0.00000  2       68
siesta:     -0.02582  34.85847   0.00000  2       69
siesta:     -0.02582  37.54693   0.00000  2       70
siesta:     -0.02582  42.92421   0.00000  2       71
siesta:     -0.02582  45.61267   0.00000  2       72

siesta: System type = slab      

initatomlists: Number of atoms, orbitals, and projectors:     72   936  1152

siesta: ******************** Simulation parameters ****************************
siesta:
siesta: The following are some of the parameters of the simulation.
siesta: A complete list of the parameters used, including default values,
siesta: can be found in file out.fdf
siesta:
redata: Non-Collinear-spin run           =     F
redata: SpinPolarized (Up/Down) run      =     F
redata: Number of spin components        =     1
redata: Long output                      =     F
redata: Number of Atomic Species         =        2
redata: Charge density info will appear in .RHO file
redata: Write Mulliken Pop.              =     NO
redata: Mesh Cutoff                      =   200.0000  Ry
redata: Net charge of the system         =     0.0000 |e|
redata: Max. number of SCF Iter          =      500
redata: SCF convergence failure will abort job
redata: Performing Pulay mixing using    =    10 iterations
redata: Mix DM in first SCF step ?       =     F
redata: Write Pulay info on disk?        =     F
redata: Discard 1st Pulay DM after  kick =     F
redata: New DM Mixing Weight             =     0.0500
redata: New DM Occupancy tolerance       = 0.000000000001
redata: No kicks to SCF
redata: DM Mixing Weight for Kicks       =     0.5000
redata: DM Tolerance for SCF             =     0.000100
redata: Require Energy convergence for SCF =     F
redata: DM Energy tolerance for SCF      =     0.000100 eV
redata: Require Harris convergence for SCF =     F
redata: DM Harris energy tolerance for SCF =     0.000100 eV
redata: Using Saved Data (generic)   =     F
redata: Use continuation files for DM    =     T
redata: Neglect nonoverlap interactions  =     F
redata: Method of Calculation            =     Diagonalization
redata: Divide and Conquer               =     T
redata: Electronic Temperature           =     0.0019  Ry
redata: Fix the spin of the system       =     F
redata: Dynamics option                  =     Verlet MD run
redata: Initial MD time step             =        1
redata:   Final MD time step             =        1
redata: Length of MD time step           =     1.0000  fs
redata: Initial Temperature of MD run    =     0.0000  K
redata: Perform a MD quench              =     F
redata: ***********************************************************************
Total number of electrons:   273.000000
Total ionic charge:   273.000000

* ProcessorY, Blocksize:    3  24

k-point displ. along   1 input, could be:     0.50    0.00
k-point displ. along   2 input, could be:     0.50    0.00
 Kpoints in:          231 . Kpoints trimmed:          231

siesta: k-grid: Number of k-points =   231
siesta: k-grid: Cutoff (effective) =     5.000 Ang
siesta: k-grid: Supercell and displacements
siesta: k-grid:   21   0   0      0.500
siesta: k-grid:    0  21   0      0.500
siesta: k-grid:    0   0   1      0.000
Naive supercell factors:     2    2    2

superc: Internal auxiliary supercell:     2 x     2 x     2  =       8
superc: Number of atoms, orbitals, and projectors:    576   7488   9216

* Maximum dynamic memory allocated =     4 MB

siesta:                 ==============================
                            Begin MD step =      1
                        ==============================

superc: Internal auxiliary supercell:     2 x     2 x     2  =       8
superc: Number of atoms, orbitals, and projectors:    576   7488   9216

outcell: Unit cell vectors (Ang):
       12.804619    7.392750    0.000000
        0.000000   14.785500    0.000000
        0.000000    0.000000   10.000000

outcell: Cell vector modules (Ang)   :   14.785500   14.785500   10.000000
outcell: Cell angles (23,13,12) (deg):     90.0000     90.0000     60.0000
outcell: Cell volume (Ang**3)        :   1893.2269
New_DM. Step:     1
Initializing Density Matrix...

InitMesh: MESH =   120 x   120 x    90 =     1296000
InitMesh: Mesh cutoff (required, used) =   200.000   223.865 Ry

* Maximum dynamic memory allocated =   155 MB

stepf: Fermi-Dirac step function

siesta: Program's energy decomposition (eV):
siesta: Ebs     =     -5648.724147
siesta: Eions   =     16482.160403
siesta: Ena     =      4357.495601
siesta: Ekin    =      5587.107004
siesta: Enl     =       757.219480
siesta: DEna    =        -0.000010
siesta: DUscf   =         0.000000
siesta: DUext   =         0.000000
siesta: Exc     =     -4195.321273
siesta: eta*DQ  =         0.000000
siesta: Emadel  =         0.000000
siesta: Emeta   =         0.000000
siesta: Emolmec =         0.000000
siesta: Ekinion =         0.000000
siesta: Eharris =     -9691.630527
siesta: Etot    =     -9975.659601
siesta: FreeEng =     -9975.659601

siesta: iscf   Eharris(eV)      E_KS(eV)   FreeEng(eV)   dDmax  Ef(eV)
siesta:    1    -9691.6305    -9975.6596    -9975.6596  6.8305 -8.2468
timer: Routine,Calls,Time,% = IterSCF        1    3054.650  99.58
elaps: Routine,Calls,Wall,% = IterSCF        1     255.159  99.58
siesta:    2   -13375.6749    -9078.2535    -9078.2924 17.1002 -1.9088
siesta:    3    -9622.0001    -9837.5964    -9837.6484  3.8206 -7.4697
siesta:    4    -9599.8213    -9678.9392    -9678.9814  1.1202 -5.8432
siesta:    5    -9565.7182    -9631.3998    -9631.4553  0.8663 -5.8225
siesta:    6    -9549.2667    -9586.8161    -9586.8521  0.8281 -5.2443
siesta:    7    -9545.1206    -9574.4813    -9574.5258  0.8067 -5.1783
siesta:    8    -9543.4606    -9567.7600    -9567.8203  0.8014 -5.1863
siesta:    9    -9542.6863    -9552.6065    -9552.6600  0.6380 -5.1674
siesta:   10    -9543.2045    -9535.5626    -9535.6070  0.4533 -5.1364
siesta:   11    -9542.1485    -9527.9018    -9527.9421  0.3345 -5.1053
siesta:   12    -9541.7661    -9517.7430    -9517.8140  0.1799 -5.0965
siesta:   13    -9541.2729    -9515.8647    -9515.9294  0.1628 -5.0649
siesta:   14    -9540.7179    -9520.4161    -9520.4858  0.1359 -5.1020
siesta:   15    -9540.3718    -9524.4981    -9524.5793  0.0832 -5.0939
siesta:   16    -9540.2484    -9527.4546    -9527.5262  0.0745 -5.1077
siesta:   17    -9540.2020    -9529.9070    -9529.9880  0.0675 -5.1346
siesta:   18    -9540.1597    -9531.8080    -9531.8876  0.0550 -5.1434
siesta:   19    -9540.1550    -9537.3728    -9537.4552  0.0280 -5.1700
siesta:   20    -9540.1420    -9538.8967    -9538.9745  0.0308 -5.1762
siesta:   21    -9540.1298    -9539.4667    -9539.5480  0.0198 -5.1653
siesta:   22    -9540.1281    -9539.3668    -9539.4496  0.0141 -5.1566
siesta:   23    -9540.1287    -9539.7329    -9539.8156  0.0140 -5.1524
siesta:   24    -9540.1269    -9540.1536    -9540.2358  0.0134 -5.1506
siesta:   25    -9540.1258    -9540.6580    -9540.7401  0.0081 -5.1515
siesta:   26    -9540.1260    -9540.4410    -9540.5236  0.0065 -5.1506
siesta:   27    -9540.1254    -9540.3565    -9540.4386  0.0048 -5.1515
siesta:   28    -9540.1256    -9540.3934    -9540.4759  0.0021 -5.1526
siesta:   29    -9540.1254    -9540.3881    -9540.4704  0.0012 -5.1531
siesta:   30    -9540.1256    -9540.2475    -9540.3300  0.0009 -5.1530
siesta:   31    -9540.1254    -9540.1492    -9540.2315  0.0005 -5.1529
siesta:   32    -9540.1254    -9540.1308    -9540.2132  0.0004 -5.1529
siesta:   33    -9540.1254    -9540.1344    -9540.2168  0.0004 -5.1529
siesta:   34    -9540.1254    -9540.1283    -9540.2107  0.0003 -5.1529
siesta:   35    -9540.1254    -9540.1190    -9540.2014  0.0002 -5.1529
siesta:   36    -9540.1254    -9540.1188    -9540.2013  0.0001 -5.1529
siesta:   37    -9540.1254    -9540.1237    -9540.2061  0.0001 -5.1530
siesta:   38    -9540.1254    -9540.1227    -9540.2051  0.0001 -5.1530
siesta:   39    -9540.1254    -9540.1217    -9540.2041  0.0001 -5.1530

siesta: E_KS(eV) =            -9540.1234

siesta: E_KS - E_eggbox =     -9540.1234

siesta: Atomic forces (eV/Ang):
----------------------------------------
   Tot   -0.176065    0.082962    0.000000
----------------------------------------
   Max  557.056245
   Res  153.083702    sqrt( Sum f_i^2 / 3N )
----------------------------------------
   Max  557.056245    constrained

Stress-tensor-Voigt (kbar):     -799.81    -2757.14       -0.58       -2.05        0.00        0.00
(Free)E + p*V (eV/cell)    -8138.9576
Target enthalpy (eV/cell)    -9540.2058

siesta: Stress tensor (static) (eV/Ang**3):
        -0.499199   -0.001281    0.000000
        -0.001281   -1.720854    0.000000
         0.000000    0.000000   -0.000360

siesta: Pressure (static):       1185.84386047  kBar

siesta: Stress tensor (total) (eV/Ang**3):
        -0.499199   -0.001281    0.000000
        -0.001281   -1.720854    0.000000
         0.000000    0.000000   -0.000360

siesta: Pressure (total):       1185.84386047  kBar

siesta: Temp_ion =       0.000 K

* Maximum dynamic memory allocated =   167 MB
Computing bands...

siesta: Program's energy decomposition (eV):
siesta: Ebs     =     -4268.873581
siesta: Eions   =     16482.160403
siesta: Ena     =      4357.495601
siesta: Ekin    =      8521.561978
siesta: Enl     =      -868.071229
siesta: DEna    =      -806.167633
siesta: DUscf   =       108.026507
siesta: DUext   =         0.000000
siesta: Exc     =     -4370.808247
siesta: eta*DQ  =         0.000000
siesta: Emadel  =         0.000000
siesta: Emeta   =         0.000000
siesta: Emolmec =         0.000000
siesta: Ekinion =         0.000000
siesta: Eharris =     -9540.125415
siesta: Etot    =     -9540.123425
siesta: FreeEng =     -9540.205841

siesta: Final energy (eV):
siesta:  Band Struct. =   -4268.873581
siesta:       Kinetic =    8521.561978
siesta:       Hartree =   27844.018235
siesta:    Ext. field =       0.000000
siesta:   Exch.-corr. =   -4370.808247
siesta:  Ion-electron =  -63899.953429
siesta:       Ion-ion =   22365.058036
siesta:       Ekinion =       0.000000
siesta:         Total =   -9540.123425

siesta: Atomic forces (eV/Ang):
siesta:      1   22.065343   -1.246627    0.000000
siesta:      2    8.563758   -4.720226    0.000000
siesta:      3   22.964877  405.165348    0.000000
siesta:      4   -6.211649   -3.580366    0.000000
siesta:      5    0.515819    5.198785    0.000000
siesta:      6    3.540983   -3.413695    0.000000
siesta:      7  -18.681594   -4.311324    0.000000
siesta:      8    4.071156   -1.277050    0.000000
siesta:      9   -2.894678    1.647972    0.000000
siesta:     10   -3.580781   -2.823703    0.000000
siesta:     11   -4.060689    2.216315    0.000000
siesta:     12    0.738136 -413.120481    0.000000
siesta:     13    4.117286    2.107487    0.000000
siesta:     14  -20.340527    1.339746    0.000000
siesta:     15    0.524320    2.272508    0.000000
siesta:     16    1.550411  405.070328    0.000000
siesta:     17   -1.895568 -128.196249    0.000000
siesta:     18    1.109611  128.224236    0.000000
siesta:     19  -17.623726 -552.298209    0.000000
siesta:     20    1.981200  125.977701    0.000000
siesta:     21   15.353046 -403.251976    0.000000
siesta:     22   27.115651    5.465153    0.000000
siesta:     23   35.283276 -555.477691    0.000000
siesta:     24    2.209726    1.300191    0.000000
siesta:     25   -2.430341    1.399221    0.000000
siesta:     26    6.401570    4.550658    0.000000
siesta:     27   -1.295160   -0.283585    0.000000
siesta:     28  -23.541244    6.762671    0.000000
siesta:     29  -33.306878 -549.743957    0.000000
siesta:     30   17.299309  549.463940    0.000000
siesta:     31    0.115705 -126.281807    0.000000
siesta:     32   27.854441  549.137074    0.000000
siesta:     33   -1.301072   -1.846142    0.000000
siesta:     34    1.548647    3.399119    0.000000
siesta:     35    3.159737   -2.455356    0.000000
siesta:     36    1.301927    5.723356    0.000000
siesta:     37   -0.648746   -6.557961    0.000000
siesta:     38  -18.385325  552.880175    0.000000
siesta:     39    1.267612 -128.236048    0.000000
siesta:     40    0.948303  545.949497    0.000000
siesta:     41    5.347872 -119.325081    0.000000
siesta:     42   19.375683   -4.006984    0.000000
siesta:     43    2.168096   -0.508213    0.000000
siesta:     44  -31.268421  549.461368    0.000000
siesta:     45  -25.950072   -2.639563    0.000000
siesta:     46  -28.632283  552.382816    0.000000
siesta:     47    1.714394  555.637874    0.000000
siesta:     48   -1.060761    2.046445    0.000000
siesta:     49   -2.646231   -1.086294    0.000000
siesta:     50    2.258740   -2.081443    0.000000
siesta:     51   -2.687892   -0.182016    0.000000
siesta:     52   -1.087434    2.413155    0.000000
siesta:     53   -4.009064   -1.930334    0.000000
siesta:     54    3.295638    2.635285    0.000000
siesta:     55    1.394328   -0.555316    0.000000
siesta:     56   -3.120718   -2.020953    0.000000
siesta:     57    0.334828   -2.846402    0.000000
siesta:     58    0.110511    6.299145    0.000000
siesta:     59    0.241563   -6.805371    0.000000
siesta:     60   -6.000614    3.949601    0.000000
siesta:     61    2.053411    0.093663    0.000000
siesta:     62   -1.878348    2.399744    0.000000
siesta:     63   -0.203162   -3.002271    0.000000
siesta:     64   -0.134453    2.874617    0.000000
siesta:     65   22.792422    2.842065    0.000000
siesta:     66   23.620782 -557.056245    0.000000
siesta:     67  -23.253593 -554.902392    0.000000
siesta:     68   -4.830507   -2.311855    0.000000
siesta:     69   -0.738276  127.450482    0.000000
siesta:     70   -3.155328 -548.262106    0.000000
siesta:     71    0.813393  131.623387    0.000000
siesta:     72   -0.444445 -548.632874    0.000000
siesta: ----------------------------------------
siesta:    Tot   -0.176065    0.082962    0.000000

siesta: Stress tensor (static) (eV/Ang**3):
siesta:    -0.499199   -0.001281    0.000000
siesta:    -0.001281   -1.720854    0.000000
siesta:     0.000000    0.000000   -0.000360

siesta: Cell volume =       1893.226884 Ang**3

siesta: Pressure (static):
siesta:                Solid            Molecule  Units
siesta:           0.00806104          0.11785257  Ry/Bohr**3
siesta:           0.74013752         10.82082254  eV/Ang**3
siesta:        1185.84386047      17337.05642965  kBar
(Free)E+ p_basis*V_orbitals  =       -9504.728922
(Free)Eharris+ p_basis*V_orbitals  =       -9504.732684

siesta: Electric dipole (a.u.)  =    0.000000    0.000000    0.000000
siesta: Electric dipole (Debye) =    0.000000    0.000000    0.000000

* Maximum dynamic memory allocated : Node    0 =   167 MB
* Maximum dynamic memory allocated : Node    1 =    66 MB
* Maximum dynamic memory allocated : Node    2 =    68 MB
* Maximum dynamic memory allocated : Node    3 =   154 MB
* Maximum dynamic memory allocated : Node    4 =   166 MB
* Maximum dynamic memory allocated : Node    5 =    61 MB
* Maximum dynamic memory allocated : Node    6 =    62 MB
* Maximum dynamic memory allocated : Node    7 =   156 MB
* Maximum dynamic memory allocated : Node    8 =   151 MB
* Maximum dynamic memory allocated : Node    9 =    61 MB
* Maximum dynamic memory allocated : Node   10 =    62 MB
* Maximum dynamic memory allocated : Node   11 =   144 MB

* Maximum memory occured during matrixMtoO                    

timer: CPU execution times:
timer:  Routine       Calls   Time/call    Tot.time        %
timer:  siesta            1  115646.173  115646.173   100.00
timer:  Setup             1       3.362       3.362     0.00
timer:  bands             3     225.613     676.838     0.59
timer:  writewave         1       0.024       0.024     0.00
timer:  KSV_init          1       0.001       0.001     0.00
timer:  IterMD            1  114959.141  114959.141    99.41
timer:  hsparse           1       0.282       0.282     0.00
timer:  overlap           1       7.206       7.206     0.01
timer:  IterSCF          39    2943.700  114804.316    99.27
timer:  kinefsm           2       3.670       7.339     0.01
timer:  nlefsm            2      20.092      40.185     0.03
timer:  DHSCF            40      78.699    3147.948     2.72
timer:  DHSCF1            1       1.191       1.191     0.00
timer:  DHSCF2            1      32.874      32.874     0.03
timer:  REORD           322       0.002       0.755     0.00
timer:  POISON           41       0.450      18.468     0.02
timer:  DHSCF3           40      77.147    3085.899     2.67
timer:  rhoofd           40      16.850     674.020     0.58
timer:  cellXC           40       2.445      97.802     0.08
timer:  vmat             40      36.503    1460.102     1.26
timer:  MolMec            2       0.000       0.000     0.00
timer:  diagon           39    2863.879  111691.296    96.58
timer:  c-eigval       9130       5.582   50959.135    44.06
timer:  c-buildHS      9130       0.036     326.602     0.28
timer:  cdiag         18139       5.680  103036.554    89.10
timer:  cdiag1        18139       0.261    4737.505     4.10
timer:  cdiag2        18139       1.834   33273.499    28.77
timer:  cdiag3        18139       3.375   61225.786    52.94
timer:  cdiag4        18139       0.087    1574.486     1.36
timer:  c-eigvec       9009       5.847   52677.040    45.55
timer:  c-buildD       9009       0.964    8682.254     7.51
timer:  DHSCF4            1      27.720      27.720     0.02
timer:  dfscf             1      25.625      25.625     0.02
timer:  overfsm           1       0.329       0.329     0.00
timer:  optical           1       6.237       6.237     0.01
  

elaps: ELAPSED times:
elaps:  Routine       Calls   Time/call    Tot.time        %
elaps:  siesta            1    9659.904    9659.904   100.00
elaps:  Setup             1       0.281       0.281     0.00
elaps:  bands             3      18.861      56.582     0.59
elaps:  writewave         1       0.002       0.002     0.00
elaps:  KSV_init          1       0.000       0.000     0.00
elaps:  IterMD            1    9602.516    9602.516    99.41
elaps:  hsparse           1       0.027       0.027     0.00
elaps:  overlap           1       0.715       0.715     0.01
elaps:  IterSCF          39     245.887    9589.581    99.27
elaps:  kinefsm           2       0.367       0.734     0.01
elaps:  nlefsm            2       1.761       3.522     0.04
elaps:  DHSCF            40       6.625     265.000     2.74
elaps:  DHSCF1            1       0.101       0.101     0.00
elaps:  DHSCF2            1       2.744       2.744     0.03
elaps:  REORD           322       0.000       0.095     0.00
elaps:  POISON           41       0.038       1.558     0.02
elaps:  DHSCF3           40       6.445     257.808     2.67
elaps:  rhoofd           40       2.898     115.923     1.20
elaps:  cellXC           40       0.204       8.152     0.08
elaps:  vmat             40       3.050     122.004     1.26
elaps:  MolMec            2       0.000       0.000     0.00
elaps:  diagon           39     239.226    9329.811    96.58
elaps:  c-eigval       9130       0.466    4256.544    44.06
elaps:  c-buildHS      9130       0.004      34.630     0.36
elaps:  cdiag         18139       0.470    8516.311    88.16
elaps:  cdiag1        18139       0.021     387.911     4.02
elaps:  cdiag2        18139       0.153    2781.847    28.80
elaps:  cdiag3        18139       0.282    5122.147    53.02
elaps:  cdiag4        18139       0.007     126.491     1.31
elaps:  c-eigvec       9009       0.480    4323.722    44.76
elaps:  c-buildD       9009       0.089     801.496     8.30
elaps:  DHSCF4            1       4.305       4.305     0.04
elaps:  dfscf             1       4.048       4.048     0.04
elaps:  overfsm           1       0.035       0.035     0.00
elaps:  optical           1       0.000       0.000     0.00
  
>> End of run:   3-MAY-2016  19:15:06
