Siesta Version:                                        siesta-3.2-pl-3
Architecture  : x86_64-unknown-linux-gnu--unknown
Compiler flags: mpiifort -g -O2 -fPIC -xSSE4.1 -fp-model source -shared-intel 
PARALLEL version

* Running on   12 nodes in parallel
>> Start of run:   7-MAY-2016   0:42:40

                           ***********************       
                           *  WELCOME TO SIESTA  *       
                           ***********************       

reinit: Reading from standard input
************************** Dump of input data file ****************************
#(1) General system descriptors
SystemName            GRP_doping    # Descriptive name of the system
SystemLabel           GRP_doping    # Short name for naming files
%include STRUCT.fdf
%include KPT.fdf
%include BASIS.fdf
#%include TS.fdf # for transiesta calculation
#(4) DFT, Grid, SCF
XC.functional         GGA           # LDA or GGA (default = LDA)
XC.authors            PBE           # CA (Ceperley-Aldr) = PZ
                                    #    (Perdew-Zunger) - LDA - Default
                                    # PW92 (Perdew-Wang-92) - LDA
                                    # PBE (Perdew-Burke-Ernzerhof) - GGA
MeshCutoff            200.000000    Ry      # Default: 50.0 Ry ~ 0.444 Bohr
                                    #         100.0 Ry ~ 0.314 Bohr
MaxSCFIterations      500           # Default: 50
DM.MixingWeight       0.05          # Default: 0.25
DM.NumberPulay        10            # Default: 0
DM.PulayOnFile        F             # SystemLabel.P1, SystemLabel.P2
DM.Tolerance          1.d-4         # Default: 1.d-4
DM.UseSaveDM          .true.        # because of the bug
SCFMustConverge       .true.
NeglNonOverlapInt     F             # Default: F
#(5) Eigenvalue problem: order-N or diagonalization
SolutionMethod        Diagon        # or Transiesta
ElectronicTemperature 300.0 K       # Default: 300.0 K
#(6) Molecular dynamics and relaxations
#MD.TypeOfRun          CG            # Type of dynamics:
#MD.VariableCell       F
#MD.NumCGsteps         0           # 0 for single-point / 100 for gopt
#MD.MaxCGDispl         0.2 Bohr      # Default: 0.2 Bohr
#MD.MaxForceTol        0.02 eV/Ang   # Default: 0.04 eV/Ang
#MD.MaxStressTol       1.0 GPa       # Default: 1.0 GPa
# Geometry Constraints
#%block GeometryConstraints
#	position from 1 to 44
#%endblock GeometryConstraints
BandLinesScale   pi/a
%block BandLines
 1   0.00000000  0.00000000  0.00000000
50   0.00000000  0.07809418  0.00000000
50   0.04509075  0.07809242  0.00000000
20   0.00000000  0.00000000  0.00000000
%endblock BandLines
************************** End of input data file *****************************

reinit: -----------------------------------------------------------------------
reinit: System Name: GRP_doping
reinit: -----------------------------------------------------------------------
reinit: System Label: GRP_doping                                                  
reinit: -----------------------------------------------------------------------

initatom: Reading input for the pseudopotentials and atomic orbitals ----------
 Species number:            1  Label: N Atomic number:           7
 Species number:            2  Label: C Atomic number:           6
Ground state valence configuration:   2s02  2p03
Reading pseudopotential information in formatted form from N.psf

Valence configuration for pseudopotential generation:
2s( 2.00) rc: 1.48
2p( 3.00) rc: 1.48
3d( 0.00) rc: 1.48
4f( 0.00) rc: 1.48
Ground state valence configuration:   2s02  2p02
Reading pseudopotential information in formatted form from C.psf

Valence configuration for pseudopotential generation:
2s( 2.00) rc: 1.54
2p( 2.00) rc: 1.54
3d( 0.00) rc: 1.54
4f( 0.00) rc: 1.54
For N, standard SIESTA heuristics set lmxkb to 3
 (one more than the basis l, including polarization orbitals).
Use PS.lmax or PS.KBprojectors blocks to override.
For C, standard SIESTA heuristics set lmxkb to 3
 (one more than the basis l, including polarization orbitals).
Use PS.lmax or PS.KBprojectors blocks to override.

<basis_specs>
===============================================================================
N                    Z=   7    Mass=  14.010        Charge= 0.17977+309
Lmxo=1 Lmxkb= 3    BasisType=split      Semic=F
L=0  Nsemic=0  Cnfigmx=2
          n=1  nzeta=2  polorb=0
            splnorm:   0.15000    
               vcte:    0.0000    
               rinn:    0.0000    
                rcs:    0.0000      0.0000    
            lambdas:    1.0000      1.0000    
L=1  Nsemic=0  Cnfigmx=2
          n=1  nzeta=2  polorb=1
            splnorm:   0.15000    
               vcte:    0.0000    
               rinn:    0.0000    
                rcs:    0.0000      0.0000    
            lambdas:    1.0000      1.0000    
-------------------------------------------------------------------------------
L=0  Nkbl=1  erefs: 0.17977+309
L=1  Nkbl=1  erefs: 0.17977+309
L=2  Nkbl=1  erefs: 0.17977+309
L=3  Nkbl=1  erefs: 0.17977+309
===============================================================================
</basis_specs>

atom: Called for N                     (Z =   7)

read_vps: Pseudopotential generation method:
read_vps: ATM3      Troullier-Martins                       
Total valence charge:    5.00000

read_vps: Pseudopotential includes a core correction:
read_vps: Pseudo-core for xc-correction

xc_check: Exchange-correlation functional:
xc_check: GGA Perdew, Burke & Ernzerhof 1996
V l=0 = -2*Zval/r beyond r=  1.4606
V l=1 = -2*Zval/r beyond r=  1.4606
V l=2 = -2*Zval/r beyond r=  1.4606
V l=3 = -2*Zval/r beyond r=  1.4606
All V_l potentials equal beyond r=  1.4606
This should be close to max(r_c) in ps generation
All pots = -2*Zval/r beyond r=  1.4606

VLOCAL1: 99.0% of the norm of Vloc inside     20.347 Ry
VLOCAL1: 99.9% of the norm of Vloc inside     46.372 Ry
atom: Maximum radius for 4*pi*r*r*local-pseudopot. charge    1.76189
atom: Maximum radius for r*vlocal+2*Zval:    1.53550
GHOST: No ghost state for L =  0
GHOST: No ghost state for L =  1
GHOST: No ghost state for L =  2
GHOST: No ghost state for L =  3

KBgen: Kleinman-Bylander projectors: 
   l= 0   rc=  1.634559   el= -1.363963   Ekb=  5.296955   kbcos=  0.335621
   l= 1   rc=  1.614250   el= -0.521451   Ekb= -5.259161   kbcos= -0.433408
   l= 2   rc=  1.718383   el=  0.001991   Ekb= -1.271464   kbcos= -0.007566
   l= 3   rc=  1.761893   el=  0.003093   Ekb= -0.494769   kbcos= -0.001015

KBgen: Total number of  Kleinman-Bylander projectors:   16
atom: -------------------------------------------------------------------------

atom: SANKEY-TYPE ORBITALS:
atom: Selected multiple-zeta basis: split     

SPLIT: Orbitals with angular momentum L= 0

SPLIT: Basis orbitals for state 2s

SPLIT: PAO cut-off radius determined from an
SPLIT: energy shift=  0.007350 Ry

   izeta = 1
                 lambda =    1.000000
                     rc =    4.071465
                 energy =   -1.356470
                kinetic =    1.176977
    potential(screened) =   -2.533447
       potential(ionic) =   -8.057990

   izeta = 2
                 rmatch =    2.905100
              splitnorm =    0.150000
                 energy =   -1.158343
                kinetic =    1.813009
    potential(screened) =   -2.971352
       potential(ionic) =   -8.901931

SPLIT: Orbitals with angular momentum L= 1

SPLIT: Basis orbitals for state 2p

SPLIT: PAO cut-off radius determined from an
SPLIT: energy shift=  0.007350 Ry

   izeta = 1
                 lambda =    1.000000
                     rc =    4.972977
                 energy =   -0.513884
                kinetic =    3.441732
    potential(screened) =   -3.955616
       potential(ionic) =   -9.287901

   izeta = 2
                 rmatch =    3.054066
              splitnorm =    0.150000
                 energy =   -0.318226
                kinetic =    5.125348
    potential(screened) =   -5.443573
       potential(ionic) =  -11.380999

POLgen: Perturbative polarization orbital with L=  2

POLgen: Polarization orbital for state 2p

   izeta = 1
                     rc =    4.972977
                 energy =    1.607437
                kinetic =    3.268125
    potential(screened) =   -1.660688
       potential(ionic) =   -5.973652
atom: Total number of Sankey-type orbitals: 13

atm_pop: Valence configuration (for local Pseudopot. screening):
 2s( 2.00)                                                            
 2p( 3.00)                                                            
Vna: chval, zval:    5.00000   5.00000

Vna:  Cut-off radius for the neutral-atom potential:   4.972977
comcore: Pseudo-core radius Rcore=  1.554824

atom: _________________________________________________________________________

<basis_specs>
===============================================================================
C                    Z=   6    Mass=  12.010        Charge= 0.17977+309
Lmxo=1 Lmxkb= 3    BasisType=split      Semic=F
L=0  Nsemic=0  Cnfigmx=2
          n=1  nzeta=2  polorb=0
            splnorm:   0.15000    
               vcte:    0.0000    
               rinn:    0.0000    
                rcs:    0.0000      0.0000    
            lambdas:    1.0000      1.0000    
L=1  Nsemic=0  Cnfigmx=2
          n=1  nzeta=2  polorb=1
            splnorm:   0.15000    
               vcte:    0.0000    
               rinn:    0.0000    
                rcs:    0.0000      0.0000    
            lambdas:    1.0000      1.0000    
-------------------------------------------------------------------------------
L=0  Nkbl=1  erefs: 0.17977+309
L=1  Nkbl=1  erefs: 0.17977+309
L=2  Nkbl=1  erefs: 0.17977+309
L=3  Nkbl=1  erefs: 0.17977+309
===============================================================================
</basis_specs>

atom: Called for C                     (Z =   6)

read_vps: Pseudopotential generation method:
read_vps: ATM3      Troullier-Martins                       
Total valence charge:    4.00000

read_vps: Pseudopotential includes a core correction:
read_vps: Pseudo-core for xc-correction

xc_check: Exchange-correlation functional:
xc_check: GGA Perdew, Burke & Ernzerhof 1996
V l=0 = -2*Zval/r beyond r=  1.5227
V l=1 = -2*Zval/r beyond r=  1.5227
V l=2 = -2*Zval/r beyond r=  1.5227
V l=3 = -2*Zval/r beyond r=  1.5038
All V_l potentials equal beyond r=  1.5227
This should be close to max(r_c) in ps generation
All pots = -2*Zval/r beyond r=  1.5227

VLOCAL1: 99.0% of the norm of Vloc inside     18.722 Ry
VLOCAL1: 99.9% of the norm of Vloc inside     42.668 Ry
atom: Maximum radius for 4*pi*r*r*local-pseudopot. charge    1.83678
atom: Maximum radius for r*vlocal+2*Zval:    1.58088
GHOST: No ghost state for L =  0
GHOST: No ghost state for L =  1
GHOST: No ghost state for L =  2
GHOST: No ghost state for L =  3

KBgen: Kleinman-Bylander projectors: 
   l= 0   rc=  1.704034   el= -1.009801   Ekb=  5.335044   kbcos=  0.316824
   l= 1   rc=  1.704034   el= -0.388707   Ekb= -3.785862   kbcos= -0.366464
   l= 2   rc=  1.791422   el=  0.001971   Ekb= -0.970471   kbcos= -0.009212
   l= 3   rc=  1.859892   el=  0.003065   Ekb= -0.399525   kbcos= -0.001223

KBgen: Total number of  Kleinman-Bylander projectors:   16
atom: -------------------------------------------------------------------------

atom: SANKEY-TYPE ORBITALS:
atom: Selected multiple-zeta basis: split     

SPLIT: Orbitals with angular momentum L= 0

SPLIT: Basis orbitals for state 2s

SPLIT: PAO cut-off radius determined from an
SPLIT: energy shift=  0.007350 Ry

   izeta = 1
                 lambda =    1.000000
                     rc =    4.632753
                 energy =   -1.002270
                kinetic =    0.855760
    potential(screened) =   -1.858031
       potential(ionic) =   -5.417575

   izeta = 2
                 rmatch =    3.431921
              splitnorm =    0.150000
                 energy =   -0.867111
                kinetic =    1.300804
    potential(screened) =   -2.167915
       potential(ionic) =   -5.962684

SPLIT: Orbitals with angular momentum L= 1

SPLIT: Basis orbitals for state 2p

SPLIT: PAO cut-off radius determined from an
SPLIT: energy shift=  0.007350 Ry

   izeta = 1
                 lambda =    1.000000
                     rc =    5.658549
                 energy =   -0.381140
                kinetic =    2.399701
    potential(screened) =   -2.780841
       potential(ionic) =   -6.206085

   izeta = 2
                 rmatch =    3.653288
              splitnorm =    0.150000
                 energy =   -0.249149
                kinetic =    3.542762
    potential(screened) =   -3.791911
       potential(ionic) =   -7.581078

POLgen: Perturbative polarization orbital with L=  2

POLgen: Polarization orbital for state 2p

   izeta = 1
                     rc =    5.658549
                 energy =    1.109913
                kinetic =    2.304789
    potential(screened) =   -1.194876
       potential(ionic) =   -4.013592
atom: Total number of Sankey-type orbitals: 13

atm_pop: Valence configuration (for local Pseudopot. screening):
 2s( 2.00)                                                            
 2p( 2.00)                                                            
Vna: chval, zval:    4.00000   4.00000

Vna:  Cut-off radius for the neutral-atom potential:   5.658549
comcore: Pseudo-core radius Rcore=  1.791422

atom: _________________________________________________________________________

prinput: Basis input ----------------------------------------------------------

PAO.BasisType split     

%block ChemicalSpeciesLabel
    1    7 N                       # Species index, atomic number, species label
    2    6 C                       # Species index, atomic number, species label
%endblock ChemicalSpeciesLabel

%block PAO.Basis                 # Define Basis set
N                     2                    # Species label, number of l-shells
 n=2   0   2                         # n, l, Nzeta 
   4.071      2.905   
   1.000      1.000   
 n=2   1   2 P   1                   # n, l, Nzeta, Polarization, NzetaPol
   4.973      3.054   
   1.000      1.000   
C                     2                    # Species label, number of l-shells
 n=2   0   2                         # n, l, Nzeta 
   4.633      3.432   
   1.000      1.000   
 n=2   1   2 P   1                   # n, l, Nzeta, Polarization, NzetaPol
   5.659      3.653   
   1.000      1.000   
%endblock PAO.Basis

prinput: ----------------------------------------------------------------------

coor:   Atomic-coordinates input format  =     Fractional

siesta: Atomic coordinates (Bohr) and species
siesta:     -4.68258  21.41544   0.00000  1        1
siesta:     -2.35420  22.75985   0.00000  1        2
siesta:     -2.35420  25.44831   0.00000  1        3
siesta:     -9.33934  18.72698   0.00000  1        4
siesta:     -9.33934  21.41544   0.00000  1        5
siesta:     -7.01096  22.75985   0.00000  1        6
siesta:     -7.01096  25.44831   0.00000  1        7
siesta:     -0.02582   2.59549   0.00000  2        8
siesta:     -0.02582   5.28395   0.00000  2        9
siesta:     -2.35420  38.89134   0.00000  2       10
siesta:     -2.35420  41.57980   0.00000  2       11
siesta:      2.30256  38.89134   0.00000  2       12
siesta:      2.30256  41.57980   0.00000  2       13
siesta:      4.63094  34.85847   0.00000  2       14
siesta:      4.63094  37.54693   0.00000  2       15
siesta:      6.95932  30.82560   0.00000  2       16
siesta:      6.95932  33.51406   0.00000  2       17
siesta:      9.28770  26.79272   0.00000  2       18
siesta:      9.28770  29.48119   0.00000  2       19
siesta:     -4.68258  34.85847   0.00000  2       20
siesta:     -4.68258  37.54693   0.00000  2       21
siesta:      2.30256   6.62836   0.00000  2       22
siesta:      2.30256   9.31683   0.00000  2       23
siesta:      4.63094  10.66124   0.00000  2       24
siesta:      4.63094  13.34970   0.00000  2       25
siesta:      6.95932  14.69411   0.00000  2       26
siesta:      6.95932  17.38257   0.00000  2       27
siesta:      9.28770  18.72698   0.00000  2       28
siesta:      9.28770  21.41544   0.00000  2       29
siesta:     11.61608  22.75985   0.00000  2       30
siesta:     11.61608  25.44831   0.00000  2       31
siesta:     -2.35420   6.62836   0.00000  2       32
siesta:     -2.35420   9.31683   0.00000  2       33
siesta:     -0.02582  10.66124   0.00000  2       34
siesta:     -0.02582  13.34970   0.00000  2       35
siesta:      2.30256  14.69411   0.00000  2       36
siesta:      2.30256  17.38257   0.00000  2       37
siesta:      4.63094  18.72698   0.00000  2       38
siesta:      4.63094  21.41544   0.00000  2       39
siesta:      6.95932  22.75985   0.00000  2       40
siesta:      6.95932  25.44831   0.00000  2       41
siesta:     -4.68258  10.66124   0.00000  2       42
siesta:     -4.68258  13.34970   0.00000  2       43
siesta:     -2.35420  14.69411   0.00000  2       44
siesta:     -2.35420  17.38257   0.00000  2       45
siesta:     -0.02582  18.72698   0.00000  2       46
siesta:     -0.02582  21.41544   0.00000  2       47
siesta:      2.30256  22.75985   0.00000  2       48
siesta:      2.30256  25.44831   0.00000  2       49
siesta:     -7.01096  14.69411   0.00000  2       50
siesta:     -7.01096  17.38257   0.00000  2       51
siesta:     -4.68258  18.72698   0.00000  2       52
siesta:    -11.66772  22.75985   0.00000  2       53
siesta:    -11.66772  25.44831   0.00000  2       54
siesta:     -9.33934  26.79272   0.00000  2       55
siesta:     -9.33934  29.48119   0.00000  2       56
siesta:      4.63094  26.79272   0.00000  2       57
siesta:      4.63094  29.48119   0.00000  2       58
siesta:     -0.02582  26.79272   0.00000  2       59
siesta:     -0.02582  29.48119   0.00000  2       60
siesta:     -4.68258  26.79272   0.00000  2       61
siesta:     -4.68258  29.48119   0.00000  2       62
siesta:      2.30256  30.82560   0.00000  2       63
siesta:      2.30256  33.51406   0.00000  2       64
siesta:     -2.35420  30.82560   0.00000  2       65
siesta:     -2.35420  33.51406   0.00000  2       66
siesta:     -7.01096  30.82560   0.00000  2       67
siesta:     -7.01096  33.51406   0.00000  2       68
siesta:     -0.02582  34.85847   0.00000  2       69
siesta:     -0.02582  37.54693   0.00000  2       70
siesta:     -0.02582  42.92421   0.00000  2       71
siesta:     -0.02582  45.61267   0.00000  2       72

siesta: System type = slab      

initatomlists: Number of atoms, orbitals, and projectors:     72   936  1152

siesta: ******************** Simulation parameters ****************************
siesta:
siesta: The following are some of the parameters of the simulation.
siesta: A complete list of the parameters used, including default values,
siesta: can be found in file out.fdf
siesta:
redata: Non-Collinear-spin run           =     F
redata: SpinPolarized (Up/Down) run      =     F
redata: Number of spin components        =     1
redata: Long output                      =     F
redata: Number of Atomic Species         =        2
redata: Charge density info will appear in .RHO file
redata: Write Mulliken Pop.              =     NO
redata: Mesh Cutoff                      =   200.0000  Ry
redata: Net charge of the system         =     0.0000 |e|
redata: Max. number of SCF Iter          =      500
redata: SCF convergence failure will abort job
redata: Performing Pulay mixing using    =    10 iterations
redata: Mix DM in first SCF step ?       =     F
redata: Write Pulay info on disk?        =     F
redata: Discard 1st Pulay DM after  kick =     F
redata: New DM Mixing Weight             =     0.0500
redata: New DM Occupancy tolerance       = 0.000000000001
redata: No kicks to SCF
redata: DM Mixing Weight for Kicks       =     0.5000
redata: DM Tolerance for SCF             =     0.000100
redata: Require Energy convergence for SCF =     F
redata: DM Energy tolerance for SCF      =     0.000100 eV
redata: Require Harris convergence for SCF =     F
redata: DM Harris energy tolerance for SCF =     0.000100 eV
redata: Using Saved Data (generic)   =     F
redata: Use continuation files for DM    =     T
redata: Neglect nonoverlap interactions  =     F
redata: Method of Calculation            =     Diagonalization
redata: Divide and Conquer               =     T
redata: Electronic Temperature           =     0.0019  Ry
redata: Fix the spin of the system       =     F
redata: Dynamics option                  =     Verlet MD run
redata: Initial MD time step             =        1
redata:   Final MD time step             =        1
redata: Length of MD time step           =     1.0000  fs
redata: Initial Temperature of MD run    =     0.0000  K
redata: Perform a MD quench              =     F
redata: ***********************************************************************
Total number of electrons:   295.000000
Total ionic charge:   295.000000

* ProcessorY, Blocksize:    3  24

k-point displ. along   1 input, could be:     0.50    0.00
k-point displ. along   2 input, could be:     0.50    0.00
 Kpoints in:          231 . Kpoints trimmed:          231

siesta: k-grid: Number of k-points =   231
siesta: k-grid: Cutoff (effective) =     5.000 Ang
siesta: k-grid: Supercell and displacements
siesta: k-grid:   21   0   0      0.500
siesta: k-grid:    0  21   0      0.500
siesta: k-grid:    0   0   1      0.000
Naive supercell factors:     2    2    2

superc: Internal auxiliary supercell:     2 x     2 x     2  =       8
superc: Number of atoms, orbitals, and projectors:    576   7488   9216

* Maximum dynamic memory allocated =     4 MB

siesta:                 ==============================
                            Begin MD step =      1
                        ==============================

superc: Internal auxiliary supercell:     2 x     2 x     2  =       8
superc: Number of atoms, orbitals, and projectors:    576   7488   9216

outcell: Unit cell vectors (Ang):
       12.804619    7.392750    0.000000
        0.000000   14.785500    0.000000
        0.000000    0.000000   10.000000

outcell: Cell vector modules (Ang)   :   14.785500   14.785500   10.000000
outcell: Cell angles (23,13,12) (deg):     90.0000     90.0000     60.0000
outcell: Cell volume (Ang**3)        :   1893.2269
New_DM. Step:     1
Initializing Density Matrix...

InitMesh: MESH =   120 x   120 x    90 =     1296000
InitMesh: Mesh cutoff (required, used) =   200.000   223.865 Ry

* Maximum dynamic memory allocated =   137 MB

stepf: Fermi-Dirac step function

siesta: Program's energy decomposition (eV):
siesta: Ebs     =     -5979.724860
siesta: Eions   =     19528.238980
siesta: Ena     =      4782.223760
siesta: Ekin    =      6965.634232
siesta: Enl     =       431.360947
siesta: DEna    =        -0.000015
siesta: DUscf   =         0.000000
siesta: DUext   =         0.000000
siesta: Exc     =     -4338.118550
siesta: eta*DQ  =         0.000000
siesta: Emadel  =         0.000000
siesta: Emeta   =         0.000000
siesta: Emolmec =         0.000000
siesta: Ekinion =         0.000000
siesta: Eharris =    -11364.382712
siesta: Etot    =    -11687.138606
siesta: FreeEng =    -11687.138606

siesta: iscf   Eharris(eV)      E_KS(eV)   FreeEng(eV)   dDmax  Ef(eV)
siesta:    1   -11364.3827   -11687.1386   -11687.1386  6.4219 -7.3399
timer: Routine,Calls,Time,% = IterSCF        1    3015.178  99.59
elaps: Routine,Calls,Wall,% = IterSCF        1     251.865  99.60
siesta:    2   -17001.4754   -10595.0721   -10595.1025 16.4843 -5.1693
siesta:    3   -11339.2266   -11491.8669   -11491.9116  2.4381 -4.6318
siesta:    4   -11272.9779   -11385.7470   -11385.7920  1.3522 -4.5736
siesta:    5   -11249.0931   -11301.9343   -11301.9885  0.8695 -4.2670
siesta:    6   -11226.2435   -11266.7630   -11266.7916  0.7649 -4.0681
siesta:    7   -11215.8535   -11236.9252   -11236.9722  0.6756 -4.3284
siesta:    8   -11209.4300   -11229.1690   -11229.2167  0.6193 -4.2279
siesta:    9   -11208.3442   -11226.2672   -11226.3289  0.5883 -4.2320
siesta:   10   -11208.3338   -11221.7038   -11221.7576  0.5405 -4.2441
siesta:   11   -11207.3705   -11205.2361   -11205.2926  0.4300 -4.2779
siesta:   12   -11207.4971   -11197.6816   -11197.7399  0.3603 -4.2208
siesta:   13   -11207.3490   -11192.0992   -11192.1549  0.3182 -4.2416
siesta:   14   -11206.5177   -11195.6298   -11195.6838  0.2043 -4.2526
siesta:   15   -11206.1443   -11197.1697   -11197.2316  0.2827 -4.2424
siesta:   16   -11206.1813   -11199.8204   -11199.8820  0.2305 -4.2718
siesta:   17   -11205.8149   -11200.6418   -11200.7201  0.1114 -4.3085
siesta:   18   -11205.7581   -11201.9051   -11201.9741  0.0601 -4.3143
siesta:   19   -11205.7646   -11204.1861   -11204.2583  0.1508 -4.3098
siesta:   20   -11205.7081   -11205.3209   -11205.3881  0.1375 -4.3136
siesta:   21   -11205.6972   -11205.4994   -11205.5747  0.0742 -4.3118
siesta:   22   -11205.6940   -11206.4812   -11206.5504  0.0468 -4.3100
siesta:   23   -11205.6898   -11207.5474   -11207.6173  0.0428 -4.3095
siesta:   24   -11205.6849   -11207.9258   -11207.9965  0.0374 -4.3085
siesta:   25   -11205.6801   -11207.7623   -11207.8331  0.0267 -4.3040
siesta:   26   -11205.6775   -11207.4930   -11207.5643  0.0188 -4.2991
siesta:   27   -11205.6766   -11206.7780   -11206.8504  0.0189 -4.2956
siesta:   28   -11205.6757   -11206.5307   -11206.6025  0.0043 -4.2946
siesta:   29   -11205.6754   -11206.3975   -11206.4697  0.0037 -4.2947
siesta:   30   -11205.6753   -11206.2670   -11206.3393  0.0031 -4.2956
siesta:   31   -11205.6753   -11206.1928   -11206.2650  0.0028 -4.2959
siesta:   32   -11205.6754   -11206.0020   -11206.0742  0.0018 -4.2961
siesta:   33   -11205.6752   -11205.8002   -11205.8723  0.0047 -4.2965
siesta:   34   -11205.6753   -11205.6771   -11205.7494  0.0016 -4.2966
siesta:   35   -11205.6752   -11205.6600   -11205.7321  0.0025 -4.2965
siesta:   36   -11205.6753   -11205.6121   -11205.6843  0.0009 -4.2963
siesta:   37   -11205.6753   -11205.6765   -11205.7486  0.0006 -4.2963
siesta:   38   -11205.6753   -11205.6804   -11205.7525  0.0006 -4.2965
siesta:   39   -11205.6753   -11205.6899   -11205.7620  0.0004 -4.2965
siesta:   40   -11205.6753   -11205.6715   -11205.7436  0.0003 -4.2965
siesta:   41   -11205.6753   -11205.6775   -11205.7496  0.0002 -4.2964
siesta:   42   -11205.6753   -11205.6728   -11205.7449  0.0002 -4.2964
siesta:   43   -11205.6753   -11205.6718   -11205.7439  0.0001 -4.2964
siesta:   44   -11205.6753   -11205.6634   -11205.7355  0.0001 -4.2965
siesta:   45   -11205.6753   -11205.6634   -11205.7355  0.0000 -4.2965

siesta: E_KS(eV) =           -11205.6686

siesta: E_KS - E_eggbox =    -11205.6686

siesta: Atomic forces (eV/Ang):
----------------------------------------
   Tot   -0.180437   -0.036482    0.000000
----------------------------------------
   Max  564.954364
   Res  161.429786    sqrt( Sum f_i^2 / 3N )
----------------------------------------
   Max  564.954364    constrained

Stress-tensor-Voigt (kbar):     -702.64    -2809.99       -0.11       -5.37        0.00        0.00
(Free)E + p*V (eV/cell)    -9822.1397
Target enthalpy (eV/cell)   -11205.7407

siesta: Stress tensor (static) (eV/Ang**3):
        -0.438547   -0.003353    0.000000
        -0.003353   -1.753836    0.000000
         0.000000    0.000000   -0.000066

siesta: Pressure (static):       1170.90938194  kBar

siesta: Stress tensor (total) (eV/Ang**3):
        -0.438547   -0.003353    0.000000
        -0.003353   -1.753836    0.000000
         0.000000    0.000000   -0.000066

siesta: Pressure (total):       1170.90938194  kBar

siesta: Temp_ion =       0.000 K

* Maximum dynamic memory allocated =   150 MB
Computing bands...

siesta: Program's energy decomposition (eV):
siesta: Ebs     =     -4769.135340
siesta: Eions   =     19528.238980
siesta: Ena     =      4782.223760
siesta: Ekin    =      9904.366944
siesta: Enl     =     -1217.351517
siesta: DEna    =      -745.825519
siesta: DUscf   =        99.602624
siesta: DUext   =         0.000000
siesta: Exc     =     -4500.445917
siesta: eta*DQ  =         0.000000
siesta: Emadel  =         0.000000
siesta: Emeta   =         0.000000
siesta: Emolmec =         0.000000
siesta: Ekinion =         0.000000
siesta: Eharris =    -11205.675278
siesta: Etot    =    -11205.668604
siesta: FreeEng =    -11205.740696

siesta: Final energy (eV):
siesta:  Band Struct. =   -4769.135340
siesta:       Kinetic =    9904.366944
siesta:       Hartree =   32003.541658
siesta:    Ext. field =       0.000000
siesta:   Exch.-corr. =   -4500.445917
siesta:  Ion-electron =  -73574.956802
siesta:       Ion-ion =   24961.825513
siesta:       Ekinion =       0.000000
siesta:         Total =  -11205.668604

siesta: Atomic forces (eV/Ang):
siesta:      1    0.976731    0.441656    0.000000
siesta:      2   -0.487508   -0.838461    0.000000
siesta:      3   -2.746636    0.691947    0.000000
siesta:      4    0.894489    1.676730    0.000000
siesta:      5   -2.351503   -2.846086    0.000000
siesta:      6    0.778742    1.165242    0.000000
siesta:      7    1.315217    0.063747    0.000000
siesta:      8   -0.287239  548.294868    0.000000
siesta:      9   -0.240704 -128.145044    0.000000
siesta:     10    0.810686  127.150161    0.000000
siesta:     11  -15.931547 -549.429921    0.000000
siesta:     12   -1.373259  126.650929    0.000000
siesta:     13   15.469209 -548.401067    0.000000
siesta:     14   27.162833    5.903821    0.000000
siesta:     15   33.578053 -549.985146    0.000000
siesta:     16    2.149790   -0.057210    0.000000
siesta:     17   -2.827112    2.007835    0.000000
siesta:     18    2.238390    2.139307    0.000000
siesta:     19   -1.621664    0.007657    0.000000
siesta:     20  -26.765428    6.064304    0.000000
siesta:     21  -33.654560 -549.688999    0.000000
siesta:     22   14.944689  548.124702    0.000000
siesta:     23   -1.477055 -126.447387    0.000000
siesta:     24   33.640215  549.839256    0.000000
siesta:     25   27.003992   -6.244329    0.000000
siesta:     26   -2.773104   -1.935824    0.000000
siesta:     27    2.175031   -0.112377    0.000000
siesta:     28   -1.364949   -0.323080    0.000000
siesta:     29    2.385948   -1.783113    0.000000
siesta:     30   -0.293779    7.340208    0.000000
siesta:     31   -0.223251   -7.542203    0.000000
siesta:     32  -14.899633  549.051958    0.000000
siesta:     33    1.012901 -126.841354    0.000000
siesta:     34    0.194844  541.727585    0.000000
siesta:     35   -0.285470 -126.619364    0.000000
siesta:     36   21.395708  558.415999    0.000000
siesta:     37   22.890302   -5.946416    0.000000
siesta:     38   -1.195400    2.678948    0.000000
siesta:     39    0.219702   -0.678370    0.000000
siesta:     40   -0.132415    0.583524    0.000000
siesta:     41   -0.295067   -0.633073    0.000000
siesta:     42  -33.919734  549.637916    0.000000
siesta:     43  -26.215159   -7.152637    0.000000
siesta:     44  -19.776505  559.260501    0.000000
siesta:     45  -22.579168   -5.106562    0.000000
siesta:     46   -0.858803  564.954364    0.000000
siesta:     47   -0.356558    1.187635    0.000000
siesta:     48   -0.541369   -0.090801    0.000000
siesta:     49   -1.278331    0.487982    0.000000
siesta:     50    1.800367   -0.177460    0.000000
siesta:     51   -1.594082    0.952455    0.000000
siesta:     52    1.684680    2.924121    0.000000
siesta:     53    1.805824    2.435926    0.000000
siesta:     54    0.670524   -4.443237    0.000000
siesta:     55   -1.649163    1.528230    0.000000
siesta:     56    0.898539   -0.451856    0.000000
siesta:     57    0.567378    0.584573    0.000000
siesta:     58   -1.311855   -2.504532    0.000000
siesta:     59    1.147877   -1.514562    0.000000
siesta:     60   -0.907220 -563.076807    0.000000
siesta:     61    0.197071   -2.259915    0.000000
siesta:     62    1.449884   -2.499281    0.000000
siesta:     63   22.723143    5.366401    0.000000
siesta:     64   22.084219 -557.876943    0.000000
siesta:     65  -22.426259    5.159992    0.000000
siesta:     66  -21.414269 -558.454153    0.000000
siesta:     67   -1.660168   -0.064417    0.000000
siesta:     68    2.564532    1.905222    0.000000
siesta:     69   -0.187978  126.391141    0.000000
siesta:     70   -0.005438 -541.828321    0.000000
siesta:     71   -0.503061  128.427427    0.000000
siesta:     72   -0.599543 -549.260446    0.000000
siesta: ----------------------------------------
siesta:    Tot   -0.180437   -0.036482    0.000000

siesta: Stress tensor (static) (eV/Ang**3):
siesta:    -0.438547   -0.003353    0.000000
siesta:    -0.003353   -1.753836    0.000000
siesta:     0.000000    0.000000   -0.000066

siesta: Cell volume =       1893.226884 Ang**3

siesta: Pressure (static):
siesta:                Solid            Molecule  Units
siesta:           0.00795952          0.12581479  Ry/Bohr**3
siesta:           0.73081625         11.55188649  eV/Ang**3
siesta:        1170.90938194      18508.36267277  kBar
(Free)E+ p_basis*V_orbitals  =      -11176.003822
(Free)Eharris+ p_basis*V_orbitals  =      -11176.015708

siesta: Electric dipole (a.u.)  =    0.000000    0.000000    0.000000
siesta: Electric dipole (Debye) =    0.000000    0.000000    0.000000

* Maximum dynamic memory allocated : Node    0 =   150 MB
* Maximum dynamic memory allocated : Node    1 =    60 MB
* Maximum dynamic memory allocated : Node    2 =    60 MB
* Maximum dynamic memory allocated : Node    3 =   136 MB
* Maximum dynamic memory allocated : Node    4 =   149 MB
* Maximum dynamic memory allocated : Node    5 =    55 MB
* Maximum dynamic memory allocated : Node    6 =    57 MB
* Maximum dynamic memory allocated : Node    7 =   144 MB
* Maximum dynamic memory allocated : Node    8 =   131 MB
* Maximum dynamic memory allocated : Node    9 =    52 MB
* Maximum dynamic memory allocated : Node   10 =    55 MB
* Maximum dynamic memory allocated : Node   11 =   125 MB

* Maximum memory occured during matrixMtoO                    

timer: CPU execution times:
timer:  Routine       Calls   Time/call    Tot.time        %
timer:  siesta            1  132229.987  132229.987   100.00
timer:  Setup             1       3.419       3.419     0.00
timer:  bands             3     226.012     678.037     0.51
timer:  writewave         1       0.023       0.023     0.00
timer:  KSV_init          1       0.005       0.005     0.00
timer:  IterMD            1  131541.596  131541.596    99.48
timer:  hsparse           1       0.165       0.165     0.00
timer:  overlap           1       5.730       5.730     0.00
timer:  IterSCF          45    2920.237  131410.649    99.38
timer:  kinefsm           2       2.912       5.824     0.00
timer:  nlefsm            2      18.830      37.660     0.03
timer:  DHSCF            46      65.286    3003.156     2.27
timer:  DHSCF1            1       0.903       0.903     0.00
timer:  DHSCF2            1      25.292      25.292     0.02
timer:  REORD           370       0.002       0.805     0.00
timer:  POISON           47       0.448      21.065     0.02
timer:  DHSCF3           46      64.231    2954.635     2.23
timer:  rhoofd           46      13.606     625.869     0.47
timer:  cellXC           46       2.440     112.230     0.08
timer:  vmat             46      30.255    1391.741     1.05
timer:  MolMec            2       0.000       0.000     0.00
timer:  diagon           45    2853.859  128423.658    97.12
timer:  c-eigval      10516       5.595   58838.115    44.50
timer:  c-buildHS     10516       0.033     347.263     0.26
timer:  cdiag         20911       5.689  118964.417    89.97
timer:  cdiag1        20911       0.260    5438.096     4.11
timer:  cdiag2        20911       1.837   38413.475    29.05
timer:  cdiag3        20911       3.391   70900.777    53.62
timer:  cdiag4        20911       0.089    1853.910     1.40
timer:  c-eigvec      10395       5.846   60767.897    45.96
timer:  c-buildD      10395       0.908    9438.035     7.14
timer:  DHSCF4            1      22.018      22.018     0.02
timer:  dfscf             1      20.576      20.576     0.02
timer:  overfsm           1       0.285       0.285     0.00
timer:  optical           1       6.326       6.326     0.00
  

elaps: ELAPSED times:
elaps:  Routine       Calls   Time/call    Tot.time        %
elaps:  siesta            1   11045.010   11045.010   100.00
elaps:  Setup             1       0.280       0.280     0.00
elaps:  bands             3      18.894      56.683     0.51
elaps:  writewave         1       0.002       0.002     0.00
elaps:  KSV_init          1       0.000       0.000     0.00
elaps:  IterMD            1   10987.515   10987.515    99.48
elaps:  hsparse           1       0.016       0.016     0.00
elaps:  overlap           1       0.709       0.709     0.01
elaps:  IterSCF          45     243.924   10976.577    99.38
elaps:  kinefsm           2       0.362       0.725     0.01
elaps:  nlefsm            2       1.609       3.217     0.03
elaps:  DHSCF            46       5.494     252.729     2.29
elaps:  DHSCF1            1       0.077       0.077     0.00
elaps:  DHSCF2            1       2.112       2.112     0.02
elaps:  REORD           370       0.000       0.112     0.00
elaps:  POISON           47       0.038       1.776     0.02
elaps:  DHSCF3           46       5.367     246.868     2.24
elaps:  rhoofd           46       2.508     115.374     1.04
elaps:  cellXC           46       0.203       9.351     0.08
elaps:  vmat             46       2.528     116.310     1.05
elaps:  MolMec            2       0.000       0.000     0.00
elaps:  diagon           45     238.385   10727.307    97.12
elaps:  c-eigval      10516       0.467    4914.593    44.50
elaps:  c-buildHS     10516       0.004      37.131     0.34
elaps:  cdiag         20911       0.471    9846.720    89.15
elaps:  cdiag1        20911       0.021     446.854     4.05
elaps:  cdiag2        20911       0.154    3211.612    29.08
elaps:  cdiag3        20911       0.284    5931.440    53.70
elaps:  cdiag4        20911       0.007     148.330     1.34
elaps:  c-eigvec      10395       0.481    5001.013    45.28
elaps:  c-buildD      10395       0.083     862.685     7.81
elaps:  DHSCF4            1       3.627       3.627     0.03
elaps:  dfscf             1       3.436       3.436     0.03
elaps:  overfsm           1       0.031       0.031     0.00
elaps:  optical           1       0.000       0.000     0.00
  
>> End of run:   7-MAY-2016   3:46:45
