Siesta Version:                                        siesta-3.2-pl-3
Architecture  : x86_64-unknown-linux-gnu--unknown
Compiler flags: mpiifort -g -O2 -fPIC -xSSE4.1 -fp-model source -shared-intel 
PARALLEL version

* Running on   12 nodes in parallel
>> Start of run:   5-MAY-2016  22:48:55

                           ***********************       
                           *  WELCOME TO SIESTA  *       
                           ***********************       

reinit: Reading from standard input
************************** Dump of input data file ****************************
#(1) General system descriptors
SystemName            GRP_doping    # Descriptive name of the system
SystemLabel           GRP_doping    # Short name for naming files
%include STRUCT.fdf
%include KPT.fdf
%include BASIS.fdf
#%include TS.fdf # for transiesta calculation
#(4) DFT, Grid, SCF
XC.functional         GGA           # LDA or GGA (default = LDA)
XC.authors            PBE           # CA (Ceperley-Aldr) = PZ
                                    #    (Perdew-Zunger) - LDA - Default
                                    # PW92 (Perdew-Wang-92) - LDA
                                    # PBE (Perdew-Burke-Ernzerhof) - GGA
MeshCutoff            200.000000    Ry      # Default: 50.0 Ry ~ 0.444 Bohr
                                    #         100.0 Ry ~ 0.314 Bohr
MaxSCFIterations      500           # Default: 50
DM.MixingWeight       0.05          # Default: 0.25
DM.NumberPulay        10            # Default: 0
DM.PulayOnFile        F             # SystemLabel.P1, SystemLabel.P2
DM.Tolerance          1.d-4         # Default: 1.d-4
DM.UseSaveDM          .true.        # because of the bug
SCFMustConverge       .true.
NeglNonOverlapInt     F             # Default: F
#(5) Eigenvalue problem: order-N or diagonalization
SolutionMethod        Diagon        # or Transiesta
ElectronicTemperature 300.0 K       # Default: 300.0 K
#(6) Molecular dynamics and relaxations
#MD.TypeOfRun          CG            # Type of dynamics:
#MD.VariableCell       F
#MD.NumCGsteps         0           # 0 for single-point / 100 for gopt
#MD.MaxCGDispl         0.2 Bohr      # Default: 0.2 Bohr
#MD.MaxForceTol        0.02 eV/Ang   # Default: 0.04 eV/Ang
#MD.MaxStressTol       1.0 GPa       # Default: 1.0 GPa
# Geometry Constraints
#%block GeometryConstraints
#	position from 1 to 44
#%endblock GeometryConstraints
BandLinesScale   pi/a
%block BandLines
 1   0.00000000  0.00000000  0.00000000
50   0.00000000  0.07809418  0.00000000
50   0.04509075  0.07809242  0.00000000
20   0.00000000  0.00000000  0.00000000
%endblock BandLines
************************** End of input data file *****************************

reinit: -----------------------------------------------------------------------
reinit: System Name: GRP_doping
reinit: -----------------------------------------------------------------------
reinit: System Label: GRP_doping                                                  
reinit: -----------------------------------------------------------------------

initatom: Reading input for the pseudopotentials and atomic orbitals ----------
 Species number:            1  Label: N Atomic number:           7
 Species number:            2  Label: C Atomic number:           6
Ground state valence configuration:   2s02  2p03
Reading pseudopotential information in formatted form from N.psf

Valence configuration for pseudopotential generation:
2s( 2.00) rc: 1.48
2p( 3.00) rc: 1.48
3d( 0.00) rc: 1.48
4f( 0.00) rc: 1.48
Ground state valence configuration:   2s02  2p02
Reading pseudopotential information in formatted form from C.psf

Valence configuration for pseudopotential generation:
2s( 2.00) rc: 1.54
2p( 2.00) rc: 1.54
3d( 0.00) rc: 1.54
4f( 0.00) rc: 1.54
For N, standard SIESTA heuristics set lmxkb to 3
 (one more than the basis l, including polarization orbitals).
Use PS.lmax or PS.KBprojectors blocks to override.
For C, standard SIESTA heuristics set lmxkb to 3
 (one more than the basis l, including polarization orbitals).
Use PS.lmax or PS.KBprojectors blocks to override.

<basis_specs>
===============================================================================
N                    Z=   7    Mass=  14.010        Charge= 0.17977+309
Lmxo=1 Lmxkb= 3    BasisType=split      Semic=F
L=0  Nsemic=0  Cnfigmx=2
          n=1  nzeta=2  polorb=0
            splnorm:   0.15000    
               vcte:    0.0000    
               rinn:    0.0000    
                rcs:    0.0000      0.0000    
            lambdas:    1.0000      1.0000    
L=1  Nsemic=0  Cnfigmx=2
          n=1  nzeta=2  polorb=1
            splnorm:   0.15000    
               vcte:    0.0000    
               rinn:    0.0000    
                rcs:    0.0000      0.0000    
            lambdas:    1.0000      1.0000    
-------------------------------------------------------------------------------
L=0  Nkbl=1  erefs: 0.17977+309
L=1  Nkbl=1  erefs: 0.17977+309
L=2  Nkbl=1  erefs: 0.17977+309
L=3  Nkbl=1  erefs: 0.17977+309
===============================================================================
</basis_specs>

atom: Called for N                     (Z =   7)

read_vps: Pseudopotential generation method:
read_vps: ATM3      Troullier-Martins                       
Total valence charge:    5.00000

read_vps: Pseudopotential includes a core correction:
read_vps: Pseudo-core for xc-correction

xc_check: Exchange-correlation functional:
xc_check: GGA Perdew, Burke & Ernzerhof 1996
V l=0 = -2*Zval/r beyond r=  1.4606
V l=1 = -2*Zval/r beyond r=  1.4606
V l=2 = -2*Zval/r beyond r=  1.4606
V l=3 = -2*Zval/r beyond r=  1.4606
All V_l potentials equal beyond r=  1.4606
This should be close to max(r_c) in ps generation
All pots = -2*Zval/r beyond r=  1.4606

VLOCAL1: 99.0% of the norm of Vloc inside     20.347 Ry
VLOCAL1: 99.9% of the norm of Vloc inside     46.372 Ry
atom: Maximum radius for 4*pi*r*r*local-pseudopot. charge    1.76189
atom: Maximum radius for r*vlocal+2*Zval:    1.53550
GHOST: No ghost state for L =  0
GHOST: No ghost state for L =  1
GHOST: No ghost state for L =  2
GHOST: No ghost state for L =  3

KBgen: Kleinman-Bylander projectors: 
   l= 0   rc=  1.634559   el= -1.363963   Ekb=  5.296955   kbcos=  0.335621
   l= 1   rc=  1.614250   el= -0.521451   Ekb= -5.259161   kbcos= -0.433408
   l= 2   rc=  1.718383   el=  0.001991   Ekb= -1.271464   kbcos= -0.007566
   l= 3   rc=  1.761893   el=  0.003093   Ekb= -0.494769   kbcos= -0.001015

KBgen: Total number of  Kleinman-Bylander projectors:   16
atom: -------------------------------------------------------------------------

atom: SANKEY-TYPE ORBITALS:
atom: Selected multiple-zeta basis: split     

SPLIT: Orbitals with angular momentum L= 0

SPLIT: Basis orbitals for state 2s

SPLIT: PAO cut-off radius determined from an
SPLIT: energy shift=  0.007350 Ry

   izeta = 1
                 lambda =    1.000000
                     rc =    4.071465
                 energy =   -1.356470
                kinetic =    1.176977
    potential(screened) =   -2.533447
       potential(ionic) =   -8.057990

   izeta = 2
                 rmatch =    2.905100
              splitnorm =    0.150000
                 energy =   -1.158343
                kinetic =    1.813009
    potential(screened) =   -2.971352
       potential(ionic) =   -8.901931

SPLIT: Orbitals with angular momentum L= 1

SPLIT: Basis orbitals for state 2p

SPLIT: PAO cut-off radius determined from an
SPLIT: energy shift=  0.007350 Ry

   izeta = 1
                 lambda =    1.000000
                     rc =    4.972977
                 energy =   -0.513884
                kinetic =    3.441732
    potential(screened) =   -3.955616
       potential(ionic) =   -9.287901

   izeta = 2
                 rmatch =    3.054066
              splitnorm =    0.150000
                 energy =   -0.318226
                kinetic =    5.125348
    potential(screened) =   -5.443573
       potential(ionic) =  -11.380999

POLgen: Perturbative polarization orbital with L=  2

POLgen: Polarization orbital for state 2p

   izeta = 1
                     rc =    4.972977
                 energy =    1.607437
                kinetic =    3.268125
    potential(screened) =   -1.660688
       potential(ionic) =   -5.973652
atom: Total number of Sankey-type orbitals: 13

atm_pop: Valence configuration (for local Pseudopot. screening):
 2s( 2.00)                                                            
 2p( 3.00)                                                            
Vna: chval, zval:    5.00000   5.00000

Vna:  Cut-off radius for the neutral-atom potential:   4.972977
comcore: Pseudo-core radius Rcore=  1.554824

atom: _________________________________________________________________________

<basis_specs>
===============================================================================
C                    Z=   6    Mass=  12.010        Charge= 0.17977+309
Lmxo=1 Lmxkb= 3    BasisType=split      Semic=F
L=0  Nsemic=0  Cnfigmx=2
          n=1  nzeta=2  polorb=0
            splnorm:   0.15000    
               vcte:    0.0000    
               rinn:    0.0000    
                rcs:    0.0000      0.0000    
            lambdas:    1.0000      1.0000    
L=1  Nsemic=0  Cnfigmx=2
          n=1  nzeta=2  polorb=1
            splnorm:   0.15000    
               vcte:    0.0000    
               rinn:    0.0000    
                rcs:    0.0000      0.0000    
            lambdas:    1.0000      1.0000    
-------------------------------------------------------------------------------
L=0  Nkbl=1  erefs: 0.17977+309
L=1  Nkbl=1  erefs: 0.17977+309
L=2  Nkbl=1  erefs: 0.17977+309
L=3  Nkbl=1  erefs: 0.17977+309
===============================================================================
</basis_specs>

atom: Called for C                     (Z =   6)

read_vps: Pseudopotential generation method:
read_vps: ATM3      Troullier-Martins                       
Total valence charge:    4.00000

read_vps: Pseudopotential includes a core correction:
read_vps: Pseudo-core for xc-correction

xc_check: Exchange-correlation functional:
xc_check: GGA Perdew, Burke & Ernzerhof 1996
V l=0 = -2*Zval/r beyond r=  1.5227
V l=1 = -2*Zval/r beyond r=  1.5227
V l=2 = -2*Zval/r beyond r=  1.5227
V l=3 = -2*Zval/r beyond r=  1.5038
All V_l potentials equal beyond r=  1.5227
This should be close to max(r_c) in ps generation
All pots = -2*Zval/r beyond r=  1.5227

VLOCAL1: 99.0% of the norm of Vloc inside     18.722 Ry
VLOCAL1: 99.9% of the norm of Vloc inside     42.668 Ry
atom: Maximum radius for 4*pi*r*r*local-pseudopot. charge    1.83678
atom: Maximum radius for r*vlocal+2*Zval:    1.58088
GHOST: No ghost state for L =  0
GHOST: No ghost state for L =  1
GHOST: No ghost state for L =  2
GHOST: No ghost state for L =  3

KBgen: Kleinman-Bylander projectors: 
   l= 0   rc=  1.704034   el= -1.009801   Ekb=  5.335044   kbcos=  0.316824
   l= 1   rc=  1.704034   el= -0.388707   Ekb= -3.785862   kbcos= -0.366464
   l= 2   rc=  1.791422   el=  0.001971   Ekb= -0.970471   kbcos= -0.009212
   l= 3   rc=  1.859892   el=  0.003065   Ekb= -0.399525   kbcos= -0.001223

KBgen: Total number of  Kleinman-Bylander projectors:   16
atom: -------------------------------------------------------------------------

atom: SANKEY-TYPE ORBITALS:
atom: Selected multiple-zeta basis: split     

SPLIT: Orbitals with angular momentum L= 0

SPLIT: Basis orbitals for state 2s

SPLIT: PAO cut-off radius determined from an
SPLIT: energy shift=  0.007350 Ry

   izeta = 1
                 lambda =    1.000000
                     rc =    4.632753
                 energy =   -1.002270
                kinetic =    0.855760
    potential(screened) =   -1.858031
       potential(ionic) =   -5.417575

   izeta = 2
                 rmatch =    3.431921
              splitnorm =    0.150000
                 energy =   -0.867111
                kinetic =    1.300804
    potential(screened) =   -2.167915
       potential(ionic) =   -5.962684

SPLIT: Orbitals with angular momentum L= 1

SPLIT: Basis orbitals for state 2p

SPLIT: PAO cut-off radius determined from an
SPLIT: energy shift=  0.007350 Ry

   izeta = 1
                 lambda =    1.000000
                     rc =    5.658549
                 energy =   -0.381140
                kinetic =    2.399701
    potential(screened) =   -2.780841
       potential(ionic) =   -6.206085

   izeta = 2
                 rmatch =    3.653288
              splitnorm =    0.150000
                 energy =   -0.249149
                kinetic =    3.542762
    potential(screened) =   -3.791911
       potential(ionic) =   -7.581078

POLgen: Perturbative polarization orbital with L=  2

POLgen: Polarization orbital for state 2p

   izeta = 1
                     rc =    5.658549
                 energy =    1.109913
                kinetic =    2.304789
    potential(screened) =   -1.194876
       potential(ionic) =   -4.013592
atom: Total number of Sankey-type orbitals: 13

atm_pop: Valence configuration (for local Pseudopot. screening):
 2s( 2.00)                                                            
 2p( 2.00)                                                            
Vna: chval, zval:    4.00000   4.00000

Vna:  Cut-off radius for the neutral-atom potential:   5.658549
comcore: Pseudo-core radius Rcore=  1.791422

atom: _________________________________________________________________________

prinput: Basis input ----------------------------------------------------------

PAO.BasisType split     

%block ChemicalSpeciesLabel
    1    7 N                       # Species index, atomic number, species label
    2    6 C                       # Species index, atomic number, species label
%endblock ChemicalSpeciesLabel

%block PAO.Basis                 # Define Basis set
N                     2                    # Species label, number of l-shells
 n=2   0   2                         # n, l, Nzeta 
   4.071      2.905   
   1.000      1.000   
 n=2   1   2 P   1                   # n, l, Nzeta, Polarization, NzetaPol
   4.973      3.054   
   1.000      1.000   
C                     2                    # Species label, number of l-shells
 n=2   0   2                         # n, l, Nzeta 
   4.633      3.432   
   1.000      1.000   
 n=2   1   2 P   1                   # n, l, Nzeta, Polarization, NzetaPol
   5.659      3.653   
   1.000      1.000   
%endblock PAO.Basis

prinput: ----------------------------------------------------------------------

coor:   Atomic-coordinates input format  =     Fractional

siesta: Atomic coordinates (Bohr) and species
siesta:      6.95932  17.38257   0.00000  1        1
siesta:     -0.02582  10.66124   0.00000  1        2
siesta:     -0.02582  13.34970   0.00000  1        3
siesta:      4.63094  18.72698   0.00000  1        4
siesta:      4.63094  21.41544   0.00000  1        5
siesta:      6.95932  22.75985   0.00000  1        6
siesta:      6.95932  25.44831   0.00000  1        7
siesta:      2.30256  22.75985   0.00000  1        8
siesta:      2.30256  25.44831   0.00000  1        9
siesta:     -2.35420  25.44831   0.00000  1       10
siesta:     -4.68258  26.79272   0.00000  1       11
siesta:     -4.68258  29.48119   0.00000  1       12
siesta:     -2.35420  30.82560   0.00000  1       13
siesta:     -2.35420  33.51406   0.00000  1       14
siesta:     -0.02582  34.85847   0.00000  1       15
siesta:     -0.02582  37.54693   0.00000  1       16
siesta:     -0.02582   2.59549   0.00000  2       17
siesta:     -0.02582   5.28395   0.00000  2       18
siesta:     -2.35420  38.89134   0.00000  2       19
siesta:     -2.35420  41.57980   0.00000  2       20
siesta:      2.30256  38.89134   0.00000  2       21
siesta:      2.30256  41.57980   0.00000  2       22
siesta:      4.63094  34.85847   0.00000  2       23
siesta:      4.63094  37.54693   0.00000  2       24
siesta:      6.95932  30.82560   0.00000  2       25
siesta:      6.95932  33.51406   0.00000  2       26
siesta:      9.28770  26.79272   0.00000  2       27
siesta:      9.28770  29.48119   0.00000  2       28
siesta:     -4.68258  34.85847   0.00000  2       29
siesta:     -4.68258  37.54693   0.00000  2       30
siesta:      2.30256   6.62836   0.00000  2       31
siesta:      2.30256   9.31683   0.00000  2       32
siesta:      4.63094  10.66124   0.00000  2       33
siesta:      4.63094  13.34970   0.00000  2       34
siesta:      6.95932  14.69411   0.00000  2       35
siesta:      9.28770  18.72698   0.00000  2       36
siesta:      9.28770  21.41544   0.00000  2       37
siesta:     11.61608  22.75985   0.00000  2       38
siesta:     11.61608  25.44831   0.00000  2       39
siesta:     -2.35420   6.62836   0.00000  2       40
siesta:     -2.35420   9.31683   0.00000  2       41
siesta:      2.30256  14.69411   0.00000  2       42
siesta:      2.30256  17.38257   0.00000  2       43
siesta:     -4.68258  10.66124   0.00000  2       44
siesta:     -4.68258  13.34970   0.00000  2       45
siesta:     -2.35420  14.69411   0.00000  2       46
siesta:     -2.35420  17.38257   0.00000  2       47
siesta:     -0.02582  18.72698   0.00000  2       48
siesta:     -0.02582  21.41544   0.00000  2       49
siesta:     -7.01096  14.69411   0.00000  2       50
siesta:     -7.01096  17.38257   0.00000  2       51
siesta:     -4.68258  18.72698   0.00000  2       52
siesta:     -4.68258  21.41544   0.00000  2       53
siesta:     -2.35420  22.75985   0.00000  2       54
siesta:     -9.33934  18.72698   0.00000  2       55
siesta:     -9.33934  21.41544   0.00000  2       56
siesta:     -7.01096  22.75985   0.00000  2       57
siesta:     -7.01096  25.44831   0.00000  2       58
siesta:    -11.66772  22.75985   0.00000  2       59
siesta:    -11.66772  25.44831   0.00000  2       60
siesta:     -9.33934  26.79272   0.00000  2       61
siesta:     -9.33934  29.48119   0.00000  2       62
siesta:      4.63094  26.79272   0.00000  2       63
siesta:      4.63094  29.48119   0.00000  2       64
siesta:     -0.02582  26.79272   0.00000  2       65
siesta:     -0.02582  29.48119   0.00000  2       66
siesta:      2.30256  30.82560   0.00000  2       67
siesta:      2.30256  33.51406   0.00000  2       68
siesta:     -7.01096  30.82560   0.00000  2       69
siesta:     -7.01096  33.51406   0.00000  2       70
siesta:     -0.02582  42.92421   0.00000  2       71
siesta:     -0.02582  45.61267   0.00000  2       72

siesta: System type = slab      

initatomlists: Number of atoms, orbitals, and projectors:     72   936  1152

siesta: ******************** Simulation parameters ****************************
siesta:
siesta: The following are some of the parameters of the simulation.
siesta: A complete list of the parameters used, including default values,
siesta: can be found in file out.fdf
siesta:
redata: Non-Collinear-spin run           =     F
redata: SpinPolarized (Up/Down) run      =     F
redata: Number of spin components        =     1
redata: Long output                      =     F
redata: Number of Atomic Species         =        2
redata: Charge density info will appear in .RHO file
redata: Write Mulliken Pop.              =     NO
redata: Mesh Cutoff                      =   200.0000  Ry
redata: Net charge of the system         =     0.0000 |e|
redata: Max. number of SCF Iter          =      500
redata: SCF convergence failure will abort job
redata: Performing Pulay mixing using    =    10 iterations
redata: Mix DM in first SCF step ?       =     F
redata: Write Pulay info on disk?        =     F
redata: Discard 1st Pulay DM after  kick =     F
redata: New DM Mixing Weight             =     0.0500
redata: New DM Occupancy tolerance       = 0.000000000001
redata: No kicks to SCF
redata: DM Mixing Weight for Kicks       =     0.5000
redata: DM Tolerance for SCF             =     0.000100
redata: Require Energy convergence for SCF =     F
redata: DM Energy tolerance for SCF      =     0.000100 eV
redata: Require Harris convergence for SCF =     F
redata: DM Harris energy tolerance for SCF =     0.000100 eV
redata: Using Saved Data (generic)   =     F
redata: Use continuation files for DM    =     T
redata: Neglect nonoverlap interactions  =     F
redata: Method of Calculation            =     Diagonalization
redata: Divide and Conquer               =     T
redata: Electronic Temperature           =     0.0019  Ry
redata: Fix the spin of the system       =     F
redata: Dynamics option                  =     Verlet MD run
redata: Initial MD time step             =        1
redata:   Final MD time step             =        1
redata: Length of MD time step           =     1.0000  fs
redata: Initial Temperature of MD run    =     0.0000  K
redata: Perform a MD quench              =     F
redata: ***********************************************************************
Total number of electrons:   304.000000
Total ionic charge:   304.000000

* ProcessorY, Blocksize:    3  24

k-point displ. along   1 input, could be:     0.50    0.00
k-point displ. along   2 input, could be:     0.50    0.00
 Kpoints in:          231 . Kpoints trimmed:          231

siesta: k-grid: Number of k-points =   231
siesta: k-grid: Cutoff (effective) =     5.000 Ang
siesta: k-grid: Supercell and displacements
siesta: k-grid:   21   0   0      0.500
siesta: k-grid:    0  21   0      0.500
siesta: k-grid:    0   0   1      0.000
Naive supercell factors:     2    2    2

superc: Internal auxiliary supercell:     2 x     2 x     2  =       8
superc: Number of atoms, orbitals, and projectors:    576   7488   9216

* Maximum dynamic memory allocated =     4 MB

siesta:                 ==============================
                            Begin MD step =      1
                        ==============================

superc: Internal auxiliary supercell:     2 x     2 x     2  =       8
superc: Number of atoms, orbitals, and projectors:    576   7488   9216

outcell: Unit cell vectors (Ang):
       12.804619    7.392750    0.000000
        0.000000   14.785500    0.000000
        0.000000    0.000000   10.000000

outcell: Cell vector modules (Ang)   :   14.785500   14.785500   10.000000
outcell: Cell angles (23,13,12) (deg):     90.0000     90.0000     60.0000
outcell: Cell volume (Ang**3)        :   1893.2269
New_DM. Step:     1
Initializing Density Matrix...

InitMesh: MESH =   120 x   120 x    90 =     1296000
InitMesh: Mesh cutoff (required, used) =   200.000   223.865 Ry

* Maximum dynamic memory allocated =   133 MB

stepf: Fermi-Dirac step function

siesta: Program's energy decomposition (eV):
siesta: Ebs     =     -6178.844730
siesta: Eions   =     20974.960578
siesta: Ena     =      4887.045097
siesta: Ekin    =      7720.939539
siesta: Enl     =       154.376538
siesta: DEna    =        -0.000015
siesta: DUscf   =         0.000000
siesta: DUext   =         0.000000
siesta: Exc     =     -4571.580396
siesta: eta*DQ  =         0.000000
siesta: Emadel  =         0.000000
siesta: Emeta   =         0.000000
siesta: Emolmec =         0.000000
siesta: Ekinion =         0.000000
siesta: Eharris =    -12407.025971
siesta: Etot    =    -12784.179814
siesta: FreeEng =    -12784.179814

siesta: iscf   Eharris(eV)      E_KS(eV)   FreeEng(eV)   dDmax  Ef(eV)
siesta:    1   -12407.0260   -12784.1798   -12784.1798  8.5890 -6.8827
timer: Routine,Calls,Time,% = IterSCF        1    3007.581  99.59
elaps: Routine,Calls,Wall,% = IterSCF        1     251.225  99.59
siesta:    2   -16430.5830   -11822.3613   -11822.4244 16.1438 -3.7166
siesta:    3   -12304.4146   -12590.5601   -12590.6161  3.3388 -5.2146
siesta:    4   -12287.5120   -12418.2797   -12418.3154  1.1527 -4.3436
siesta:    5   -12263.7289   -12345.3122   -12345.3772  0.9517 -3.9292
siesta:    6   -12257.9236   -12323.8715   -12323.9221  0.7584 -3.9431
siesta:    7   -12255.3944   -12314.8962   -12314.9410  0.7210 -3.9799
siesta:    8   -12252.8388   -12290.8244   -12290.8973  0.6117 -4.0009
siesta:    9   -12251.5802   -12267.7156   -12267.7685  0.4545 -3.9612
siesta:   10   -12251.1497   -12252.1233   -12252.1689  0.3769 -3.8867
siesta:   11   -12251.0491   -12244.2896   -12244.3685  0.2778 -3.8170
siesta:   12   -12251.0354   -12237.9497   -12237.9951  0.2049 -3.8140
siesta:   13   -12250.7479   -12234.7822   -12234.8405  0.1617 -3.8443
siesta:   14   -12250.5271   -12237.9715   -12238.0446  0.0808 -3.9174
siesta:   15   -12250.4169   -12238.7412   -12238.8124  0.1341 -3.9060
siesta:   16   -12250.3419   -12241.8509   -12241.9243  0.0602 -3.9107
siesta:   17   -12250.2927   -12243.2680   -12243.3497  0.0595 -3.9178
siesta:   18   -12250.2644   -12244.5521   -12244.6258  0.0290 -3.9039
siesta:   19   -12250.2653   -12244.9437   -12245.0275  0.0277 -3.9000
siesta:   20   -12250.2583   -12246.3850   -12246.4644  0.0224 -3.9005
siesta:   21   -12250.2550   -12247.8223   -12247.9062  0.0143 -3.9019
siesta:   22   -12250.2550   -12248.8769   -12248.9604  0.0185 -3.8979
siesta:   23   -12250.2533   -12249.7987   -12249.8815  0.0048 -3.8980
siesta:   24   -12250.2525   -12250.0425   -12250.1257  0.0039 -3.8968
siesta:   25   -12250.2528   -12250.2383   -12250.3218  0.0038 -3.8970
siesta:   26   -12250.2523   -12250.2752   -12250.3582  0.0025 -3.8961
siesta:   27   -12250.2526   -12250.2631   -12250.3465  0.0031 -3.8959
siesta:   28   -12250.2526   -12250.1831   -12250.2662  0.0013 -3.8960
siesta:   29   -12250.2525   -12250.1793   -12250.2623  0.0009 -3.8959
siesta:   30   -12250.2525   -12250.1937   -12250.2768  0.0006 -3.8959
siesta:   31   -12250.2526   -12250.2251   -12250.3082  0.0002 -3.8962
siesta:   32   -12250.2526   -12250.2285   -12250.3115  0.0001 -3.8963
siesta:   33   -12250.2526   -12250.2285   -12250.3115  0.0002 -3.8963
siesta:   34   -12250.2526   -12250.2270   -12250.3100  0.0001 -3.8964
siesta:   35   -12250.2526   -12250.2337   -12250.3167  0.0002 -3.8964
siesta:   36   -12250.2526   -12250.2434   -12250.3264  0.0001 -3.8964

siesta: E_KS(eV) =           -12250.2487

siesta: E_KS - E_eggbox =    -12250.2487

siesta: Atomic forces (eV/Ang):
----------------------------------------
   Tot   -0.391313    0.038124    0.000000
----------------------------------------
   Max  755.972307
   Res  173.298400    sqrt( Sum f_i^2 / 3N )
----------------------------------------
   Max  755.972307    constrained

Stress-tensor-Voigt (kbar):     -631.98    -3089.50       -0.08       19.11        0.00        0.00
(Free)E + p*V (eV/cell)   -10784.4725
Target enthalpy (eV/cell)   -12250.3318

siesta: Stress tensor (static) (eV/Ang**3):
        -0.394449    0.011928    0.000000
         0.011928   -1.928295    0.000000
         0.000000    0.000000   -0.000051

siesta: Pressure (static):       1240.52266377  kBar

siesta: Stress tensor (total) (eV/Ang**3):
        -0.394449    0.011928    0.000000
         0.011928   -1.928295    0.000000
         0.000000    0.000000   -0.000051

siesta: Pressure (total):       1240.52266377  kBar

siesta: Temp_ion =       0.000 K

* Maximum dynamic memory allocated =   146 MB
Computing bands...

siesta: Program's energy decomposition (eV):
siesta: Ebs     =     -4971.431680
siesta: Eions   =     20974.960578
siesta: Ena     =      4887.045097
siesta: Ekin    =     10798.055929
siesta: Enl     =     -1548.134857
siesta: DEna    =      -775.859248
siesta: DUscf   =       105.169879
siesta: DUext   =         0.000000
siesta: Exc     =     -4741.564948
siesta: eta*DQ  =         0.000000
siesta: Emadel  =         0.000000
siesta: Emeta   =         0.000000
siesta: Emolmec =         0.000000
siesta: Ekinion =         0.000000
siesta: Eharris =    -12250.252591
siesta: Etot    =    -12250.248725
siesta: FreeEng =    -12250.331752

siesta: Final energy (eV):
siesta:  Band Struct. =   -4971.431680
siesta:       Kinetic =   10798.055929
siesta:       Hartree =   35290.553263
siesta:    Ext. field =       0.000000
siesta:   Exch.-corr. =   -4741.564948
siesta:  Ion-electron =  -80960.526335
siesta:       Ion-ion =   27363.233366
siesta:       Ekinion =       0.000000
siesta:         Total =  -12250.248725

siesta: Atomic forces (eV/Ang):
siesta:      1    3.686604   -2.149962    0.000000
siesta:      2   -0.468962  755.972307    0.000000
siesta:      3   -0.067665 -109.911701    0.000000
siesta:      4   -3.857207    2.517024    0.000000
siesta:      5    0.575120    1.820666    0.000000
siesta:      6   -0.372098    0.737703    0.000000
siesta:      7   -2.110255    0.210563    0.000000
siesta:      8    0.565312   -1.035439    0.000000
siesta:      9    1.307143   -0.318111    0.000000
siesta:     10    0.323433    0.255841    0.000000
siesta:     11   -0.256193   -1.417432    0.000000
siesta:     12   -0.310766   -3.889980    0.000000
siesta:     13  -27.429935    4.191766    0.000000
siesta:     14   -7.069373 -672.825963    0.000000
siesta:     15    2.112929  107.281279    0.000000
siesta:     16    0.317773 -755.087218    0.000000
siesta:     17  -17.450558  549.734943    0.000000
siesta:     18    1.025260 -122.027910    0.000000
siesta:     19    1.406977  126.082622    0.000000
siesta:     20    3.344155 -547.847941    0.000000
siesta:     21   -1.311923  125.547955    0.000000
siesta:     22    0.045465 -547.990748    0.000000
siesta:     23   26.413889    6.086291    0.000000
siesta:     24   31.506734 -552.236599    0.000000
siesta:     25    1.926063    0.121543    0.000000
siesta:     26   -2.600251    1.695162    0.000000
siesta:     27    1.877808    1.599299    0.000000
siesta:     28   -0.913867   -0.232196    0.000000
siesta:     29  -26.589067   10.122680    0.000000
siesta:     30  -31.021770 -552.007696    0.000000
siesta:     31   -6.560059  547.937135    0.000000
siesta:     32   -1.376625 -124.734032    0.000000
siesta:     33   33.477558  553.121214    0.000000
siesta:     34   25.641993   -7.284228    0.000000
siesta:     35   -2.114556    1.813847    0.000000
siesta:     36   -1.265799   -0.637953    0.000000
siesta:     37    0.996743   -2.229347    0.000000
siesta:     38   -0.990648    5.200887    0.000000
siesta:     39   -0.805304   -5.539497    0.000000
siesta:     40  -12.339915  658.782546    0.000000
siesta:     41   -0.928661 -120.859122    0.000000
siesta:     42   23.295711  564.108955    0.000000
siesta:     43   23.473501   -6.341385    0.000000
siesta:     44  -32.402559  552.512766    0.000000
siesta:     45  -26.913467   -6.125567    0.000000
siesta:     46  -26.533904  564.241921    0.000000
siesta:     47  -23.928201   -6.191921    0.000000
siesta:     48   -0.339314  563.867900    0.000000
siesta:     49    0.264957    1.729431    0.000000
siesta:     50    2.924868   -1.885954    0.000000
siesta:     51   -2.016379   -0.145944    0.000000
siesta:     52    1.503464    3.216297    0.000000
siesta:     53   -0.373617   -0.410343    0.000000
siesta:     54    0.117921    0.653502    0.000000
siesta:     55    1.145309   -0.255164    0.000000
siesta:     56   -2.255423   -2.037963    0.000000
siesta:     57    0.816360    0.981886    0.000000
siesta:     58    0.711188   -0.688286    0.000000
siesta:     59    0.350223    7.166487    0.000000
siesta:     60    0.388430   -7.062873    0.000000
siesta:     61   -1.496007    2.022741    0.000000
siesta:     62    1.724853    0.696506    0.000000
siesta:     63    0.608388   -1.157993    0.000000
siesta:     64   -1.716724   -3.146871    0.000000
siesta:     65   -0.776299    0.070089    0.000000
siesta:     66   19.550216 -575.349103    0.000000
siesta:     67   24.126762    4.504405    0.000000
siesta:     68   26.720271 -565.144050    0.000000
siesta:     69   -2.061826    0.308347    0.000000
siesta:     70    2.291061    0.505275    0.000000
siesta:     71    0.812012  127.012526    0.000000
siesta:     72    1.257408 -548.187690    0.000000
siesta: ----------------------------------------
siesta:    Tot   -0.391313    0.038124    0.000000

siesta: Stress tensor (static) (eV/Ang**3):
siesta:    -0.394449    0.011928    0.000000
siesta:     0.011928   -1.928295    0.000000
siesta:     0.000000    0.000000   -0.000051

siesta: Cell volume =       1893.226884 Ang**3

siesta: Pressure (static):
siesta:                Solid            Molecule  Units
siesta:           0.00843273          0.13632348  Ry/Bohr**3
siesta:           0.77426498         12.51675875  eV/Ang**3
siesta:        1240.52266377      20054.27517387  kBar
(Free)E+ p_basis*V_orbitals  =      -12221.881551
(Free)Eharris+ p_basis*V_orbitals  =      -12221.890791

siesta: Electric dipole (a.u.)  =    0.000000    0.000000    0.000000
siesta: Electric dipole (Debye) =    0.000000    0.000000    0.000000

* Maximum dynamic memory allocated : Node    0 =   146 MB
* Maximum dynamic memory allocated : Node    1 =    58 MB
* Maximum dynamic memory allocated : Node    2 =    59 MB
* Maximum dynamic memory allocated : Node    3 =   133 MB
* Maximum dynamic memory allocated : Node    4 =   144 MB
* Maximum dynamic memory allocated : Node    5 =    52 MB
* Maximum dynamic memory allocated : Node    6 =    54 MB
* Maximum dynamic memory allocated : Node    7 =   135 MB
* Maximum dynamic memory allocated : Node    8 =   128 MB
* Maximum dynamic memory allocated : Node    9 =    52 MB
* Maximum dynamic memory allocated : Node   10 =    54 MB
* Maximum dynamic memory allocated : Node   11 =   124 MB

* Maximum memory occured during matrixMtoO                    

timer: CPU execution times:
timer:  Routine       Calls   Time/call    Tot.time        %
timer:  siesta            1  105862.655  105862.655   100.00
timer:  Setup             1       3.456       3.456     0.00
timer:  bands             3     226.164     678.491     0.64
timer:  writewave         1       0.024       0.024     0.00
timer:  KSV_init          1       0.003       0.003     0.00
timer:  IterMD            1  105173.731  105173.731    99.35
timer:  hsparse           1       0.160       0.160     0.00
timer:  overlap           1       7.369       7.369     0.01
timer:  IterSCF          36    2918.150  105053.400    99.24
timer:  kinefsm           2       3.731       7.461     0.01
timer:  nlefsm            2      18.540      37.080     0.04
timer:  DHSCF            37      59.611    2205.589     2.08
timer:  DHSCF1            1       0.904       0.904     0.00
timer:  DHSCF2            1      24.222      24.222     0.02
timer:  REORD           298       0.002       0.644     0.00
timer:  POISON           38       0.450      17.084     0.02
timer:  DHSCF3           37      58.364    2159.462     2.04
timer:  rhoofd           37      12.101     447.749     0.42
timer:  cellXC           37       2.452      90.739     0.09
timer:  vmat             37      27.415    1014.339     0.96
timer:  MolMec            2       0.000       0.000     0.00
timer:  diagon           36    2857.302  102862.883    97.17
timer:  c-eigval       8437       5.591   47170.338    44.56
timer:  c-buildHS      8437       0.032     274.111     0.26
timer:  cdiag         16753       5.692   95354.475    90.07
timer:  cdiag1        16753       0.261    4367.648     4.13
timer:  cdiag2        16753       1.836   30759.026    29.06
timer:  cdiag3        16753       3.386   56718.548    53.58
timer:  cdiag4        16753       0.088    1468.784     1.39
timer:  c-eigvec       8316       5.854   48683.901    45.99
timer:  c-buildD       8316       0.919    7640.802     7.22
timer:  DHSCF4            1      20.756      20.756     0.02
timer:  dfscf             1      19.336      19.336     0.02
timer:  overfsm           1       0.285       0.285     0.00
timer:  optical           1       6.367       6.367     0.01
  

elaps: ELAPSED times:
elaps:  Routine       Calls   Time/call    Tot.time        %
elaps:  siesta            1    8842.574    8842.574   100.00
elaps:  Setup             1       0.288       0.288     0.00
elaps:  bands             3      18.907      56.722     0.64
elaps:  writewave         1       0.002       0.002     0.00
elaps:  KSV_init          1       0.000       0.000     0.00
elaps:  IterMD            1    8785.030    8785.030    99.35
elaps:  hsparse           1       0.017       0.017     0.00
elaps:  overlap           1       0.712       0.712     0.01
elaps:  IterSCF          36     243.749    8774.978    99.24
elaps:  kinefsm           2       0.364       0.728     0.01
elaps:  nlefsm            2       1.630       3.259     0.04
elaps:  DHSCF            37       5.027     185.981     2.10
elaps:  DHSCF1            1       0.077       0.077     0.00
elaps:  DHSCF2            1       2.022       2.022     0.02
elaps:  REORD           298       0.000       0.088     0.00
elaps:  POISON           38       0.038       1.437     0.02
elaps:  DHSCF3           37       4.876     180.406     2.04
elaps:  rhoofd           37       2.161      79.950     0.90
elaps:  cellXC           37       0.204       7.561     0.09
elaps:  vmat             37       2.291      84.749     0.96
elaps:  MolMec            2       0.000       0.000     0.00
elaps:  diagon           36     238.674    8592.266    97.17
elaps:  c-eigval       8437       0.467    3940.042    44.56
elaps:  c-buildHS      8437       0.004      29.746     0.34
elaps:  cdiag         16753       0.470    7881.486    89.13
elaps:  cdiag1        16753       0.021     358.640     4.06
elaps:  cdiag2        16753       0.154    2571.592    29.08
elaps:  cdiag3        16753       0.283    4744.342    53.65
elaps:  cdiag4        16753       0.007     117.988     1.33
elaps:  c-eigvec       8316       0.481    3996.352    45.19
elaps:  c-buildD       8316       0.085     708.058     8.01
elaps:  DHSCF4            1       3.440       3.440     0.04
elaps:  dfscf             1       3.252       3.252     0.04
elaps:  overfsm           1       0.031       0.031     0.00
elaps:  optical           1       0.000       0.000     0.00
  
>> End of run:   6-MAY-2016   1:16:18
