Siesta Version:                                        siesta-3.2-pl-3
Architecture  : x86_64-unknown-linux-gnu--unknown
Compiler flags: mpiifort -g -O2 -fPIC -xSSE4.1 -fp-model source -shared-intel 
PARALLEL version

* Running on    8 nodes in parallel
>> Start of run:  14-APR-2016  14:51:21

                           ***********************       
                           *  WELCOME TO SIESTA  *       
                           ***********************       

reinit: Reading from standard input
************************** Dump of input data file ****************************
#(1) General system descriptors
SystemName            GRP_doping    # Descriptive name of the system
SystemLabel           GRP_doping    # Short name for naming files
%include STRUCT.fdf
%include KPT.fdf
%include BASIS.fdf
#%include TS.fdf # for transiesta calculation
#(4) DFT, Grid, SCF
XC.functional         GGA           # LDA or GGA (default = LDA)
XC.authors            PBE           # CA (Ceperley-Aldr) = PZ
                                    #    (Perdew-Zunger) - LDA - Default
                                    # PW92 (Perdew-Wang-92) - LDA
                                    # PBE (Perdew-Burke-Ernzerhof) - GGA
MeshCutoff            200.000000    Ry      # Default: 50.0 Ry ~ 0.444 Bohr
                                    #         100.0 Ry ~ 0.314 Bohr
MaxSCFIterations      500           # Default: 50
DM.MixingWeight       0.05          # Default: 0.25
DM.NumberPulay        10            # Default: 0
DM.PulayOnFile        F             # SystemLabel.P1, SystemLabel.P2
DM.Tolerance          1.d-4         # Default: 1.d-4
DM.UseSaveDM          .true.        # because of the bug
SCFMustConverge       .true.
NeglNonOverlapInt     F             # Default: F
#(5) Eigenvalue problem: order-N or diagonalization
SolutionMethod        Diagon        # or Transiesta
ElectronicTemperature 300.0 K       # Default: 300.0 K
#(6) Molecular dynamics and relaxations
#MD.TypeOfRun          CG            # Type of dynamics:
#MD.VariableCell       F
#MD.NumCGsteps         0           # 0 for single-point / 100 for gopt
#MD.MaxCGDispl         0.2 Bohr      # Default: 0.2 Bohr
#MD.MaxForceTol        0.02 eV/Ang   # Default: 0.04 eV/Ang
#MD.MaxStressTol       1.0 GPa       # Default: 1.0 GPa
# Geometry Constraints
#%block GeometryConstraints
#	position from 1 to 44
#%endblock GeometryConstraints
BandLinesScale   pi/a
%block BandLines
 1   0.00000000  0.00000000  0.00000000
50   0.00000000  0.07809418  0.00000000
50   0.04509075  0.07809242  0.00000000
20   0.00000000  0.00000000  0.00000000
%endblock BandLines
************************** End of input data file *****************************

reinit: -----------------------------------------------------------------------
reinit: System Name: GRP_doping
reinit: -----------------------------------------------------------------------
reinit: System Label: GRP_doping                                                  
reinit: -----------------------------------------------------------------------

initatom: Reading input for the pseudopotentials and atomic orbitals ----------
 Species number:            1  Label: B Atomic number:           5
 Species number:            2  Label: C Atomic number:           6
Ground state valence configuration:   2s02  2p01
Reading pseudopotential information in formatted form from B.psf

Valence configuration for pseudopotential generation:
2s( 2.00) rc: 1.74
2p( 1.00) rc: 1.74
3d( 0.00) rc: 1.74
4f( 0.00) rc: 1.74
Ground state valence configuration:   2s02  2p02
Reading pseudopotential information in formatted form from C.psf

Valence configuration for pseudopotential generation:
2s( 2.00) rc: 1.54
2p( 2.00) rc: 1.54
3d( 0.00) rc: 1.54
4f( 0.00) rc: 1.54
For B, standard SIESTA heuristics set lmxkb to 3
 (one more than the basis l, including polarization orbitals).
Use PS.lmax or PS.KBprojectors blocks to override.
For C, standard SIESTA heuristics set lmxkb to 3
 (one more than the basis l, including polarization orbitals).
Use PS.lmax or PS.KBprojectors blocks to override.

<basis_specs>
===============================================================================
B                    Z=   5    Mass=  10.810        Charge= 0.17977+309
Lmxo=1 Lmxkb= 3    BasisType=split      Semic=F
L=0  Nsemic=0  Cnfigmx=2
          n=1  nzeta=2  polorb=0
            splnorm:   0.15000    
               vcte:    0.0000    
               rinn:    0.0000    
                rcs:    0.0000      0.0000    
            lambdas:    1.0000      1.0000    
L=1  Nsemic=0  Cnfigmx=2
          n=1  nzeta=2  polorb=1
            splnorm:   0.15000    
               vcte:    0.0000    
               rinn:    0.0000    
                rcs:    0.0000      0.0000    
            lambdas:    1.0000      1.0000    
-------------------------------------------------------------------------------
L=0  Nkbl=1  erefs: 0.17977+309
L=1  Nkbl=1  erefs: 0.17977+309
L=2  Nkbl=1  erefs: 0.17977+309
L=3  Nkbl=1  erefs: 0.17977+309
===============================================================================
</basis_specs>

atom: Called for B                     (Z =   5)

read_vps: Pseudopotential generation method:
read_vps: ATM3      Troullier-Martins                       
Total valence charge:    3.00000

read_vps: Pseudopotential includes a core correction:
read_vps: Pseudo-core for xc-correction

xc_check: Exchange-correlation functional:
xc_check: GGA Perdew, Burke & Ernzerhof 1996
V l=0 = -2*Zval/r beyond r=  1.7165
V l=1 = -2*Zval/r beyond r=  1.7165
V l=2 = -2*Zval/r beyond r=  1.7165
V l=3 = -2*Zval/r beyond r=  1.6951
All V_l potentials equal beyond r=  1.7165
This should be close to max(r_c) in ps generation
All pots = -2*Zval/r beyond r=  1.7165

VLOCAL1: 99.0% of the norm of Vloc inside     14.733 Ry
VLOCAL1: 99.9% of the norm of Vloc inside     33.577 Ry
atom: Maximum radius for 4*pi*r*r*local-pseudopot. charge    2.04484
atom: Maximum radius for r*vlocal+2*Zval:    1.75994
GHOST: No ghost state for L =  0
GHOST: No ghost state for L =  1
GHOST: No ghost state for L =  2
GHOST: No ghost state for L =  3

KBgen: Kleinman-Bylander projectors: 
   l= 0   rc=  1.897051   el= -0.693730   Ekb=  4.595746   kbcos=  0.286105
   l= 1   rc=  1.920920   el= -0.265236   Ekb= -2.350715   kbcos= -0.315747
   l= 2   rc=  2.044840   el=  0.002055   Ekb= -0.690767   kbcos= -0.013822
   l= 3   rc=  2.149707   el=  0.003188   Ekb= -0.315358   kbcos= -0.002055

KBgen: Total number of  Kleinman-Bylander projectors:   16
atom: -------------------------------------------------------------------------

atom: SANKEY-TYPE ORBITALS:
atom: Selected multiple-zeta basis: split     

SPLIT: Orbitals with angular momentum L= 0

SPLIT: Basis orbitals for state 2s

SPLIT: PAO cut-off radius determined from an
SPLIT: energy shift=  0.007350 Ry

   izeta = 1
                 lambda =    1.000000
                     rc =    5.422032
                 energy =   -0.686029
                kinetic =    0.576707
    potential(screened) =   -1.262736
       potential(ionic) =   -3.271094

   izeta = 2
                 rmatch =    4.222573
              splitnorm =    0.150000
                 energy =   -0.602132
                kinetic =    0.858975
    potential(screened) =   -1.461107
       potential(ionic) =   -3.582536

SPLIT: Orbitals with angular momentum L= 1

SPLIT: Basis orbitals for state 2p

SPLIT: PAO cut-off radius determined from an
SPLIT: energy shift=  0.007350 Ry

   izeta = 1
                 lambda =    1.000000
                     rc =    6.790259
                 energy =   -0.258578
                kinetic =    1.481412
    potential(screened) =   -1.739989
       potential(ionic) =   -3.657461

   izeta = 2
                 rmatch =    4.608740
              splitnorm =    0.150000
                 energy =   -0.173757
                kinetic =    2.186690
    potential(screened) =   -2.360447
       potential(ionic) =   -4.464260

POLgen: Perturbative polarization orbital with L=  2

POLgen: Polarization orbital for state 2p

   izeta = 1
                     rc =    6.790259
                 energy =    0.684082
                kinetic =    1.471481
    potential(screened) =   -0.787399
       potential(ionic) =   -2.406985
atom: Total number of Sankey-type orbitals: 13

atm_pop: Valence configuration (for local Pseudopot. screening):
 2s( 2.00)                                                            
 2p( 1.00)                                                            
Vna: chval, zval:    3.00000   3.00000

Vna:  Cut-off radius for the neutral-atom potential:   6.790259
comcore: Pseudo-core radius Rcore=  2.122997

atom: _________________________________________________________________________

<basis_specs>
===============================================================================
C                    Z=   6    Mass=  12.010        Charge= 0.17977+309
Lmxo=1 Lmxkb= 3    BasisType=split      Semic=F
L=0  Nsemic=0  Cnfigmx=2
          n=1  nzeta=2  polorb=0
            splnorm:   0.15000    
               vcte:    0.0000    
               rinn:    0.0000    
                rcs:    0.0000      0.0000    
            lambdas:    1.0000      1.0000    
L=1  Nsemic=0  Cnfigmx=2
          n=1  nzeta=2  polorb=1
            splnorm:   0.15000    
               vcte:    0.0000    
               rinn:    0.0000    
                rcs:    0.0000      0.0000    
            lambdas:    1.0000      1.0000    
-------------------------------------------------------------------------------
L=0  Nkbl=1  erefs: 0.17977+309
L=1  Nkbl=1  erefs: 0.17977+309
L=2  Nkbl=1  erefs: 0.17977+309
L=3  Nkbl=1  erefs: 0.17977+309
===============================================================================
</basis_specs>

atom: Called for C                     (Z =   6)

read_vps: Pseudopotential generation method:
read_vps: ATM3      Troullier-Martins                       
Total valence charge:    4.00000

read_vps: Pseudopotential includes a core correction:
read_vps: Pseudo-core for xc-correction

xc_check: Exchange-correlation functional:
xc_check: GGA Perdew, Burke & Ernzerhof 1996
V l=0 = -2*Zval/r beyond r=  1.5227
V l=1 = -2*Zval/r beyond r=  1.5227
V l=2 = -2*Zval/r beyond r=  1.5227
V l=3 = -2*Zval/r beyond r=  1.5038
All V_l potentials equal beyond r=  1.5227
This should be close to max(r_c) in ps generation
All pots = -2*Zval/r beyond r=  1.5227

VLOCAL1: 99.0% of the norm of Vloc inside     18.722 Ry
VLOCAL1: 99.9% of the norm of Vloc inside     42.668 Ry
atom: Maximum radius for 4*pi*r*r*local-pseudopot. charge    1.83678
atom: Maximum radius for r*vlocal+2*Zval:    1.58088
GHOST: No ghost state for L =  0
GHOST: No ghost state for L =  1
GHOST: No ghost state for L =  2
GHOST: No ghost state for L =  3

KBgen: Kleinman-Bylander projectors: 
   l= 0   rc=  1.704034   el= -1.009801   Ekb=  5.335044   kbcos=  0.316824
   l= 1   rc=  1.704034   el= -0.388707   Ekb= -3.785862   kbcos= -0.366464
   l= 2   rc=  1.791422   el=  0.001971   Ekb= -0.970471   kbcos= -0.009212
   l= 3   rc=  1.859892   el=  0.003065   Ekb= -0.399525   kbcos= -0.001223

KBgen: Total number of  Kleinman-Bylander projectors:   16
atom: -------------------------------------------------------------------------

atom: SANKEY-TYPE ORBITALS:
atom: Selected multiple-zeta basis: split     

SPLIT: Orbitals with angular momentum L= 0

SPLIT: Basis orbitals for state 2s

SPLIT: PAO cut-off radius determined from an
SPLIT: energy shift=  0.007350 Ry

   izeta = 1
                 lambda =    1.000000
                     rc =    4.632753
                 energy =   -1.002270
                kinetic =    0.855760
    potential(screened) =   -1.858031
       potential(ionic) =   -5.417575

   izeta = 2
                 rmatch =    3.431921
              splitnorm =    0.150000
                 energy =   -0.867111
                kinetic =    1.300804
    potential(screened) =   -2.167915
       potential(ionic) =   -5.962684

SPLIT: Orbitals with angular momentum L= 1

SPLIT: Basis orbitals for state 2p

SPLIT: PAO cut-off radius determined from an
SPLIT: energy shift=  0.007350 Ry

   izeta = 1
                 lambda =    1.000000
                     rc =    5.658549
                 energy =   -0.381140
                kinetic =    2.399701
    potential(screened) =   -2.780841
       potential(ionic) =   -6.206085

   izeta = 2
                 rmatch =    3.653288
              splitnorm =    0.150000
                 energy =   -0.249149
                kinetic =    3.542762
    potential(screened) =   -3.791911
       potential(ionic) =   -7.581078

POLgen: Perturbative polarization orbital with L=  2

POLgen: Polarization orbital for state 2p

   izeta = 1
                     rc =    5.658549
                 energy =    1.109913
                kinetic =    2.304789
    potential(screened) =   -1.194876
       potential(ionic) =   -4.013592
atom: Total number of Sankey-type orbitals: 13

atm_pop: Valence configuration (for local Pseudopot. screening):
 2s( 2.00)                                                            
 2p( 2.00)                                                            
Vna: chval, zval:    4.00000   4.00000

Vna:  Cut-off radius for the neutral-atom potential:   5.658549
comcore: Pseudo-core radius Rcore=  1.791422

atom: _________________________________________________________________________

prinput: Basis input ----------------------------------------------------------

PAO.BasisType split     

%block ChemicalSpeciesLabel
    1    5 B                       # Species index, atomic number, species label
    2    6 C                       # Species index, atomic number, species label
%endblock ChemicalSpeciesLabel

%block PAO.Basis                 # Define Basis set
B                     2                    # Species label, number of l-shells
 n=2   0   2                         # n, l, Nzeta 
   5.422      4.223   
   1.000      1.000   
 n=2   1   2 P   1                   # n, l, Nzeta, Polarization, NzetaPol
   6.790      4.609   
   1.000      1.000   
C                     2                    # Species label, number of l-shells
 n=2   0   2                         # n, l, Nzeta 
   4.633      3.432   
   1.000      1.000   
 n=2   1   2 P   1                   # n, l, Nzeta, Polarization, NzetaPol
   5.659      3.653   
   1.000      1.000   
%endblock PAO.Basis

prinput: ----------------------------------------------------------------------

coor:   Atomic-coordinates input format  =     Fractional

siesta: Atomic coordinates (Bohr) and species
siesta:     -0.02582   2.59549   0.00000  1        1
siesta:      9.28770  18.72698   0.00000  1        2
siesta:     -4.68258  10.66124   0.00000  1        3
siesta:     -9.33934  18.72698   0.00000  1        4
siesta:     -0.02582  29.48119   0.00000  1        5
siesta:      2.30256  30.82560   0.00000  1        6
siesta:     -0.02582  34.85847   0.00000  1        7
siesta:     -0.02582   5.28395   0.00000  2        8
siesta:     -2.35420  38.89134   0.00000  2        9
siesta:     -2.35420  41.57980   0.00000  2       10
siesta:      2.30256  38.89134   0.00000  2       11
siesta:      2.30256  41.57980   0.00000  2       12
siesta:      4.63094  34.85847   0.00000  2       13
siesta:      4.63094  37.54693   0.00000  2       14
siesta:      6.95932  30.82560   0.00000  2       15
siesta:      6.95932  33.51406   0.00000  2       16
siesta:      9.28770  26.79272   0.00000  2       17
siesta:      9.28770  29.48119   0.00000  2       18
siesta:     -4.68258  34.85847   0.00000  2       19
siesta:     -4.68258  37.54693   0.00000  2       20
siesta:      2.30256   6.62836   0.00000  2       21
siesta:      2.30256   9.31683   0.00000  2       22
siesta:      4.63094  10.66124   0.00000  2       23
siesta:      4.63094  13.34970   0.00000  2       24
siesta:      6.95932  14.69411   0.00000  2       25
siesta:      6.95932  17.38257   0.00000  2       26
siesta:      9.28770  21.41544   0.00000  2       27
siesta:     11.61608  22.75985   0.00000  2       28
siesta:     11.61608  25.44831   0.00000  2       29
siesta:     -2.35420   6.62836   0.00000  2       30
siesta:     -2.35420   9.31683   0.00000  2       31
siesta:     -0.02582  10.66124   0.00000  2       32
siesta:     -0.02582  13.34970   0.00000  2       33
siesta:      2.30256  14.69411   0.00000  2       34
siesta:      2.30256  17.38257   0.00000  2       35
siesta:      4.63094  18.72698   0.00000  2       36
siesta:      4.63094  21.41544   0.00000  2       37
siesta:      6.95932  22.75985   0.00000  2       38
siesta:      6.95932  25.44831   0.00000  2       39
siesta:     -4.68258  13.34970   0.00000  2       40
siesta:     -2.35420  14.69411   0.00000  2       41
siesta:     -2.35420  17.38257   0.00000  2       42
siesta:     -0.02582  18.72698   0.00000  2       43
siesta:     -0.02582  21.41544   0.00000  2       44
siesta:      2.30256  22.75985   0.00000  2       45
siesta:      2.30256  25.44831   0.00000  2       46
siesta:     -7.01096  14.69411   0.00000  2       47
siesta:     -7.01096  17.38257   0.00000  2       48
siesta:     -4.68258  18.72698   0.00000  2       49
siesta:     -4.68258  21.41544   0.00000  2       50
siesta:     -2.35420  22.75985   0.00000  2       51
siesta:     -2.35420  25.44831   0.00000  2       52
siesta:     -9.33934  21.41544   0.00000  2       53
siesta:     -7.01096  22.75985   0.00000  2       54
siesta:     -7.01096  25.44831   0.00000  2       55
siesta:    -11.66772  22.75985   0.00000  2       56
siesta:    -11.66772  25.44831   0.00000  2       57
siesta:     -9.33934  26.79272   0.00000  2       58
siesta:     -9.33934  29.48119   0.00000  2       59
siesta:      4.63094  26.79272   0.00000  2       60
siesta:      4.63094  29.48119   0.00000  2       61
siesta:     -0.02582  26.79272   0.00000  2       62
siesta:     -4.68258  26.79272   0.00000  2       63
siesta:     -4.68258  29.48119   0.00000  2       64
siesta:      2.30256  33.51406   0.00000  2       65
siesta:     -2.35420  30.82560   0.00000  2       66
siesta:     -2.35420  33.51406   0.00000  2       67
siesta:     -7.01096  30.82560   0.00000  2       68
siesta:     -7.01096  33.51406   0.00000  2       69
siesta:     -0.02582  37.54693   0.00000  2       70
siesta:     -0.02582  42.92421   0.00000  2       71
siesta:     -0.02582  45.61267   0.00000  2       72

siesta: System type = slab      

initatomlists: Number of atoms, orbitals, and projectors:     72   936  1152

siesta: ******************** Simulation parameters ****************************
siesta:
siesta: The following are some of the parameters of the simulation.
siesta: A complete list of the parameters used, including default values,
siesta: can be found in file out.fdf
siesta:
redata: Non-Collinear-spin run           =     F
redata: SpinPolarized (Up/Down) run      =     F
redata: Number of spin components        =     1
redata: Long output                      =     F
redata: Number of Atomic Species         =        2
redata: Charge density info will appear in .RHO file
redata: Write Mulliken Pop.              =     NO
redata: Mesh Cutoff                      =   200.0000  Ry
redata: Net charge of the system         =     0.0000 |e|
redata: Max. number of SCF Iter          =      500
redata: SCF convergence failure will abort job
redata: Performing Pulay mixing using    =    10 iterations
redata: Mix DM in first SCF step ?       =     F
redata: Write Pulay info on disk?        =     F
redata: Discard 1st Pulay DM after  kick =     F
redata: New DM Mixing Weight             =     0.0500
redata: New DM Occupancy tolerance       = 0.000000000001
redata: No kicks to SCF
redata: DM Mixing Weight for Kicks       =     0.5000
redata: DM Tolerance for SCF             =     0.000100
redata: Require Energy convergence for SCF =     F
redata: DM Energy tolerance for SCF      =     0.000100 eV
redata: Require Harris convergence for SCF =     F
redata: DM Harris energy tolerance for SCF =     0.000100 eV
redata: Using Saved Data (generic)   =     F
redata: Use continuation files for DM    =     T
redata: Neglect nonoverlap interactions  =     F
redata: Method of Calculation            =     Diagonalization
redata: Divide and Conquer               =     T
redata: Electronic Temperature           =     0.0019  Ry
redata: Fix the spin of the system       =     F
redata: Dynamics option                  =     Verlet MD run
redata: Initial MD time step             =        1
redata:   Final MD time step             =        1
redata: Length of MD time step           =     1.0000  fs
redata: Initial Temperature of MD run    =     0.0000  K
redata: Perform a MD quench              =     F
redata: ***********************************************************************
Total number of electrons:   281.000000
Total ionic charge:   281.000000

* ProcessorY, Blocksize:    2  24

k-point displ. along   1 input, could be:     0.50    0.00
k-point displ. along   2 input, could be:     0.50    0.00
 Kpoints in:          231 . Kpoints trimmed:          231

siesta: k-grid: Number of k-points =   231
siesta: k-grid: Cutoff (effective) =     5.000 Ang
siesta: k-grid: Supercell and displacements
siesta: k-grid:   21   0   0      0.500
siesta: k-grid:    0  21   0      0.500
siesta: k-grid:    0   0   1      0.000
Naive supercell factors:     2    2    2

superc: Internal auxiliary supercell:     2 x     2 x     2  =       8
superc: Number of atoms, orbitals, and projectors:    576   7488   9216

* Maximum dynamic memory allocated =     4 MB

siesta:                 ==============================
                            Begin MD step =      1
                        ==============================

superc: Internal auxiliary supercell:     2 x     2 x     2  =       8
superc: Number of atoms, orbitals, and projectors:    576   7488   9216

outcell: Unit cell vectors (Ang):
       12.804619    7.392750    0.000000
        0.000000   14.785500    0.000000
        0.000000    0.000000   10.000000

outcell: Cell vector modules (Ang)   :   14.785500   14.785500   10.000000
outcell: Cell angles (23,13,12) (deg):     90.0000     90.0000     60.0000
outcell: Cell volume (Ang**3)        :   1893.2269
New_DM. Step:     1
Initializing Density Matrix...

iodm: Reading Density Matrix from files

InitMesh: MESH =   120 x   120 x    90 =     1296000
InitMesh: Mesh cutoff (required, used) =   200.000   223.865 Ry

* Maximum dynamic memory allocated =   212 MB

stepf: Fermi-Dirac step function

siesta: Program's energy decomposition (eV):
siesta: Ebs     =     -4414.868906
siesta: Eions   =     17506.614093
siesta: Ena     =      4535.646542
siesta: Ekin    =      7854.241988
siesta: Enl     =      -185.072600
siesta: DEna    =      -642.545619
siesta: DUscf   =        73.481367
siesta: DUext   =         0.000000
siesta: Exc     =     -4298.419912
siesta: eta*DQ  =         0.000000
siesta: Emadel  =         0.000000
siesta: Emeta   =         0.000000
siesta: Emolmec =         0.000000
siesta: Ekinion =         0.000000
siesta: Eharris =    -10119.067329
siesta: Etot    =    -10169.282326
siesta: FreeEng =    -10169.282326

siesta: iscf   Eharris(eV)      E_KS(eV)   FreeEng(eV)   dDmax  Ef(eV)
siesta:    1   -10119.0673   -10169.2823   -10169.2823  1.2899 -5.0372
timer: Routine,Calls,Time,% = IterSCF        1    3489.805  99.69
elaps: Routine,Calls,Wall,% = IterSCF        1     437.073  99.69
siesta:    2   -17654.2537    -9282.4523    -9282.5141191.1851-20.5155
siesta:    3   -10057.0248   -10164.6159   -10164.6840  1.3113 -5.4081
siesta:    4   -10049.7558   -10161.3933   -10161.4756  1.3024 -5.1736
siesta:    5   -10042.4671   -10153.3078   -10153.3433  1.2452 -5.3196
siesta:    6   -10048.5605   -10119.4427   -10119.4804  1.1597 -5.1045
siesta:    7   -10042.0171   -10103.8583   -10103.8936  0.8573 -4.9485
siesta:    8   -10037.0043   -10085.0267   -10085.0726  0.5965 -4.7860
siesta:    9   -10034.4071   -10067.7489   -10067.8003  0.4255 -4.6014
siesta:   10   -10033.9302   -10061.9252   -10061.9525  0.3979 -4.5824
siesta:   11   -10032.7846   -10055.3189   -10055.3564  0.3859 -4.5900
siesta:   12   -10032.6042   -10051.9053   -10051.9553  0.4160 -4.6566
siesta:   13   -10032.5059   -10050.6717   -10050.7581  0.3862 -4.6624
siesta:   14   -10032.3976   -10047.6399   -10047.7099  0.3362 -4.6795
siesta:   15   -10032.4945   -10040.1049   -10040.1703  0.2936 -4.7416
siesta:   16   -10032.3296   -10037.2856   -10037.3781  0.1768 -4.7366
siesta:   17   -10032.2426   -10034.7617   -10034.8212  0.1328 -4.7499
siesta:   18   -10032.1894   -10032.1983   -10032.2546  0.0821 -4.7611
siesta:   19   -10032.1673   -10031.6045   -10031.6566  0.0612 -4.7593
siesta:   20   -10032.1592   -10031.0005   -10031.0542  0.0354 -4.7589
siesta:   21   -10032.1568   -10031.4867   -10031.5464  0.0262 -4.7620
siesta:   22   -10032.1544   -10032.0801   -10032.1395  0.0242 -4.7650
siesta:   23   -10032.1517   -10032.3341   -10032.3936  0.0228 -4.7685
siesta:   24   -10032.1503   -10032.2193   -10032.2795  0.0200 -4.7667
siesta:   25   -10032.1509   -10032.2532   -10032.3138  0.0112 -4.7615
siesta:   26   -10032.1512   -10032.2473   -10032.3073  0.0046 -4.7597
siesta:   27   -10032.1503   -10032.0087   -10032.0675  0.0040 -4.7595
siesta:   28   -10032.1505   -10031.9936   -10032.0528  0.0038 -4.7594
siesta:   29   -10032.1506   -10031.9803   -10032.0392  0.0035 -4.7597
siesta:   30   -10032.1508   -10032.0371   -10032.0959  0.0021 -4.7599
siesta:   31   -10032.1508   -10032.1026   -10032.1613  0.0012 -4.7600
siesta:   32   -10032.1509   -10032.1120   -10032.1706  0.0008 -4.7600
siesta:   33   -10032.1509   -10032.1393   -10032.1980  0.0004 -4.7600
siesta:   34   -10032.1509   -10032.1435   -10032.2021  0.0002 -4.7600
siesta:   35   -10032.1509   -10032.1478   -10032.2064  0.0002 -4.7601
siesta:   36   -10032.1509   -10032.1500   -10032.2086  0.0002 -4.7600
siesta:   37   -10032.1509   -10032.1519   -10032.2105  0.0002 -4.7600
siesta:   38   -10032.1509   -10032.1503   -10032.2090  0.0001 -4.7600

siesta: E_KS(eV) =           -10032.1495

siesta: E_KS - E_eggbox =    -10032.1495

siesta: Atomic forces (eV/Ang):
----------------------------------------
   Tot   -0.240186    0.020991    0.000000
----------------------------------------
   Max  562.429342
   Res  150.679881    sqrt( Sum f_i^2 / 3N )
----------------------------------------
   Max  562.429342    constrained

Stress-tensor-Voigt (kbar):     -721.08    -2642.40       -0.33       -2.16        0.00        0.00
(Free)E + p*V (eV/cell)    -8707.2653
Target enthalpy (eV/cell)   -10032.2082

siesta: Stress tensor (static) (eV/Ang**3):
        -0.450058   -0.001348    0.000000
        -0.001348   -1.649237    0.000000
         0.000000    0.000000   -0.000204

siesta: Pressure (static):       1121.26835054  kBar

siesta: Stress tensor (total) (eV/Ang**3):
        -0.450058   -0.001348    0.000000
        -0.001348   -1.649237    0.000000
         0.000000    0.000000   -0.000204

siesta: Pressure (total):       1121.26835054  kBar

siesta: Temp_ion =       0.000 K

* Maximum dynamic memory allocated =   228 MB
Computing bands...

siesta: Program's energy decomposition (eV):
siesta: Ebs     =     -4424.628953
siesta: Eions   =     17506.614093
siesta: Ena     =      4535.646542
siesta: Ekin    =      8895.249880
siesta: Enl     =      -958.599036
siesta: DEna    =      -760.366045
siesta: DUscf   =       102.261204
siesta: DUext   =         0.000000
siesta: Exc     =     -4339.727979
siesta: eta*DQ  =         0.000000
siesta: Emadel  =         0.000000
siesta: Emeta   =         0.000000
siesta: Emolmec =         0.000000
siesta: Ekinion =         0.000000
siesta: Eharris =    -10032.150859
siesta: Etot    =    -10032.149528
siesta: FreeEng =    -10032.208161

siesta: Final energy (eV):
siesta:  Band Struct. =   -4424.628953
siesta:       Kinetic =    8895.249880
siesta:       Hartree =   29108.722238
siesta:    Ext. field =       0.000000
siesta:   Exch.-corr. =   -4339.727979
siesta:  Ion-electron =  -66795.622593
siesta:       Ion-ion =   23099.228927
siesta:       Ekinion =       0.000000
siesta:         Total =  -10032.149528

siesta: Atomic forces (eV/Ang):
siesta:      1   -2.578173  305.690887    0.000000
siesta:      2    1.139518   -1.258026    0.000000
siesta:      3  -27.708908  397.800639    0.000000
siesta:      4   -1.151068   -1.309872    0.000000
siesta:      5    0.144643 -310.501032    0.000000
siesta:      6   21.516571    0.411473    0.000000
siesta:      7    0.121857  113.673013    0.000000
siesta:      8    0.871482 -123.893193    0.000000
siesta:      9    2.341555  125.006950    0.000000
siesta:     10  -15.184110 -545.357064    0.000000
siesta:     11   -1.452369  127.899875    0.000000
siesta:     12   17.884670 -550.147090    0.000000
siesta:     13   26.650819    3.978306    0.000000
siesta:     14   32.165507 -548.037231    0.000000
siesta:     15    2.312357   -0.641310    0.000000
siesta:     16   -2.490697    2.257247    0.000000
siesta:     17    2.117673    1.699827    0.000000
siesta:     18   -0.054620    1.350119    0.000000
siesta:     19  -26.272522   -0.829292    0.000000
siesta:     20  -33.395041 -399.747411    0.000000
siesta:     21   21.827383  552.759917    0.000000
siesta:     22   -3.345898 -131.133897    0.000000
siesta:     23   34.985994  548.706498    0.000000
siesta:     24   26.923650   -6.732683    0.000000
siesta:     25   -2.431457   -1.607747    0.000000
siesta:     26   -1.309418   -2.748875    0.000000
siesta:     27    3.146078    1.420104    0.000000
siesta:     28   -0.370243    7.116579    0.000000
siesta:     29   -0.251695   -6.803364    0.000000
siesta:     30  -23.334805  551.299757    0.000000
siesta:     31   -3.662820 -121.416081    0.000000
siesta:     32   -4.108613  551.137126    0.000000
siesta:     33    0.019102 -130.729394    0.000000
siesta:     34   20.596986  557.070627    0.000000
siesta:     35   21.986338   -5.725716    0.000000
siesta:     36   -0.208714    2.612679    0.000000
siesta:     37    0.447449   -0.618718    0.000000
siesta:     38   -0.268868    0.398366    0.000000
siesta:     39   -0.502790   -0.803098    0.000000
siesta:     40  -27.162027   -2.511003    0.000000
siesta:     41  -25.512279  556.127060    0.000000
siesta:     42  -21.250284   -6.343718    0.000000
siesta:     43    0.620690  562.429342    0.000000
siesta:     44    0.070593    2.072889    0.000000
siesta:     45   -0.669899   -0.718247    0.000000
siesta:     46   -1.206167    0.020712    0.000000
siesta:     47    3.043144   -2.034454    0.000000
siesta:     48    0.984797   -2.556869    0.000000
siesta:     49    0.137595    2.204149    0.000000
siesta:     50   -0.463621   -0.676787    0.000000
siesta:     51    0.606051   -0.492186    0.000000
siesta:     52    1.101652   -0.356609    0.000000
siesta:     53   -3.198489    1.538033    0.000000
siesta:     54    0.321495    0.421807    0.000000
siesta:     55    0.441287   -0.627026    0.000000
siesta:     56    0.446602    6.910303    0.000000
siesta:     57    0.373919   -6.663271    0.000000
siesta:     58   -2.178149    1.527463    0.000000
siesta:     59    0.179500    1.369325    0.000000
siesta:     60    0.731774    0.410611    0.000000
siesta:     61    0.926688   -1.869548    0.000000
siesta:     62   -0.452522   -4.357698    0.000000
siesta:     63   -0.581593    0.341082    0.000000
siesta:     64    0.735815   -0.937695    0.000000
siesta:     65   17.708514 -550.240363    0.000000
siesta:     66  -22.528894    1.346139    0.000000
siesta:     67  -17.013336 -555.906446    0.000000
siesta:     68   -2.089759   -0.644791    0.000000
siesta:     69    2.916431    2.591453    0.000000
siesta:     70    6.528239 -543.677082    0.000000
siesta:     71   -0.412089  126.862091    0.000000
siesta:     72   -0.512666 -547.786570    0.000000
siesta: ----------------------------------------
siesta:    Tot   -0.240186    0.020991    0.000000

siesta: Stress tensor (static) (eV/Ang**3):
siesta:    -0.450058   -0.001348    0.000000
siesta:    -0.001348   -1.649237    0.000000
siesta:     0.000000    0.000000   -0.000204

siesta: Cell volume =       1893.226884 Ang**3

siesta: Pressure (static):
siesta:                Solid            Molecule  Units
siesta:           0.00762208          0.11495292  Ry/Bohr**3
siesta:           0.69983309         10.55458585  eV/Ang**3
siesta:        1121.26835054      16910.49360611  kBar
(Free)E+ p_basis*V_orbitals  =       -9999.258869
(Free)Eharris+ p_basis*V_orbitals  =       -9999.259389

siesta: Electric dipole (a.u.)  =    0.000000    0.000000    0.000000
siesta: Electric dipole (Debye) =    0.000000    0.000000    0.000000

* Maximum dynamic memory allocated : Node    0 =   228 MB
* Maximum dynamic memory allocated : Node    1 =    80 MB
* Maximum dynamic memory allocated : Node    2 =    83 MB
* Maximum dynamic memory allocated : Node    3 =   217 MB
* Maximum dynamic memory allocated : Node    4 =   208 MB
* Maximum dynamic memory allocated : Node    5 =    77 MB
* Maximum dynamic memory allocated : Node    6 =    78 MB
* Maximum dynamic memory allocated : Node    7 =   192 MB

* Maximum memory occured during matrixMtoO                    

timer: CPU execution times:
timer:  Routine       Calls   Time/call    Tot.time        %
timer:  siesta            1  131162.230  131162.230   100.00
timer:  Setup             1       2.697       2.697     0.00
timer:  bands             3     243.455     730.364     0.56
timer:  writewave         1       0.019       0.019     0.00
timer:  KSV_init          1       0.002       0.002     0.00
timer:  IterMD            1  130423.940  130423.940    99.44
timer:  hsparse           1       0.519       0.519     0.00
timer:  overlap           1       5.533       5.533     0.00
timer:  IterSCF          38    3427.229  130234.688    99.29
timer:  kinefsm           2       2.889       5.777     0.00
timer:  nlefsm            2      19.312      38.625     0.03
timer:  DHSCF            39      94.438    3683.100     2.81
timer:  DHSCF1            1       0.990       0.990     0.00
timer:  DHSCF2            1      40.459      40.459     0.03
timer:  REORD           314       0.005       1.633     0.00
timer:  POISON           40       0.870      34.788     0.03
timer:  DHSCF3           39      92.452    3605.622     2.75
timer:  rhoofd           39      19.853     774.248     0.59
timer:  cellXC           39       3.290     128.307     0.10
timer:  vmat             39      43.652    1702.412     1.30
timer:  MolMec            2       0.000       0.000     0.00
timer:  diagon           38    3332.146  126621.555    96.54
timer:  c-eigval       8899       6.015   53531.550    40.81
timer:  c-buildHS      8899       0.051     450.708     0.34
timer:  cdiag         17677       6.171  109082.398    83.17
timer:  cdiag1        17677       0.386    6818.312     5.20
timer:  cdiag2        17677       1.767   31236.198    23.81
timer:  cdiag3        17677       3.719   65744.565    50.12
timer:  cdiag4        17677       0.151    2673.940     2.04
timer:  c-eigvec       8778       6.422   56373.574    42.98
timer:  c-buildD       8778       1.982   17402.046    13.27
timer:  DHSCF4            1      35.286      35.286     0.03
timer:  dfscf             1      32.640      32.640     0.02
timer:  overfsm           1       0.419       0.419     0.00
timer:  optical           1       4.566       4.566     0.00
  

elaps: ELAPSED times:
elaps:  Routine       Calls   Time/call    Tot.time        %
elaps:  siesta            1   16426.199   16426.199   100.00
elaps:  Setup             1       0.338       0.338     0.00
elaps:  bands             3      30.506      91.519     0.56
elaps:  writewave         1       0.002       0.002     0.00
elaps:  KSV_init          1       0.000       0.000     0.00
elaps:  IterMD            1   16333.739   16333.739    99.44
elaps:  hsparse           1       0.066       0.066     0.00
elaps:  overlap           1       0.902       0.902     0.01
elaps:  IterSCF          38     429.212   16310.039    99.29
elaps:  kinefsm           2       0.467       0.935     0.01
elaps:  nlefsm            2       2.467       4.933     0.03
elaps:  DHSCF            39      11.946     465.893     2.84
elaps:  DHSCF1            1       0.126       0.126     0.00
elaps:  DHSCF2            1       5.065       5.065     0.03
elaps:  REORD           314       0.001       0.207     0.00
elaps:  POISON           40       0.110       4.398     0.03
elaps:  DHSCF3           39      11.579     451.585     2.75
elaps:  rhoofd           39       5.556     216.697     1.32
elaps:  cellXC           39       0.412      16.052     0.10
elaps:  vmat             39       5.467     213.221     1.30
elaps:  MolMec            2       0.000       0.000     0.00
elaps:  diagon           38     417.314   15857.936    96.54
elaps:  c-eigval       8899       0.753    6703.975    40.81
elaps:  c-buildHS      8899       0.007      62.964     0.38
elaps:  cdiag         17677       0.767   13556.272    82.53
elaps:  cdiag1        17677       0.048     855.540     5.21
elaps:  cdiag2        17677       0.221    3912.715    23.82
elaps:  cdiag3        17677       0.466    8244.327    50.19
elaps:  cdiag4        17677       0.019     333.506     2.03
elaps:  c-eigvec       8778       0.794    6966.425    42.41
elaps:  c-buildD       8778       0.259    2272.659    13.84
elaps:  DHSCF4            1       9.028       9.028     0.05
elaps:  dfscf             1       8.499       8.499     0.05
elaps:  overfsm           1       0.054       0.054     0.00
elaps:  optical           1       0.000       0.000     0.00
  
>> End of run:  14-APR-2016  19:25:07
