Siesta Version:                                        siesta-3.2-pl-3
Architecture  : x86_64-unknown-linux-gnu--unknown
Compiler flags: mpiifort -g -O2 -fPIC -xSSE4.1 -fp-model source -shared-intel 
PARALLEL version

* Running on    8 nodes in parallel
>> Start of run:  21-APR-2016   0:57:40

                           ***********************       
                           *  WELCOME TO SIESTA  *       
                           ***********************       

reinit: Reading from standard input
************************** Dump of input data file ****************************
#(1) General system descriptors
SystemName            GRP_doping    # Descriptive name of the system
SystemLabel           GRP_doping    # Short name for naming files
%include STRUCT.fdf
%include KPT.fdf
%include BASIS.fdf
#%include TS.fdf # for transiesta calculation
#(4) DFT, Grid, SCF
XC.functional         GGA           # LDA or GGA (default = LDA)
XC.authors            PBE           # CA (Ceperley-Aldr) = PZ
                                    #    (Perdew-Zunger) - LDA - Default
                                    # PW92 (Perdew-Wang-92) - LDA
                                    # PBE (Perdew-Burke-Ernzerhof) - GGA
MeshCutoff            200.000000    Ry      # Default: 50.0 Ry ~ 0.444 Bohr
                                    #         100.0 Ry ~ 0.314 Bohr
MaxSCFIterations      500           # Default: 50
DM.MixingWeight       0.05          # Default: 0.25
DM.NumberPulay        10            # Default: 0
DM.PulayOnFile        F             # SystemLabel.P1, SystemLabel.P2
DM.Tolerance          1.d-4         # Default: 1.d-4
DM.UseSaveDM          .true.        # because of the bug
SCFMustConverge       .true.
NeglNonOverlapInt     F             # Default: F
#(5) Eigenvalue problem: order-N or diagonalization
SolutionMethod        Diagon        # or Transiesta
ElectronicTemperature 300.0 K       # Default: 300.0 K
#(6) Molecular dynamics and relaxations
#MD.TypeOfRun          CG            # Type of dynamics:
#MD.VariableCell       F
#MD.NumCGsteps         0           # 0 for single-point / 100 for gopt
#MD.MaxCGDispl         0.2 Bohr      # Default: 0.2 Bohr
#MD.MaxForceTol        0.02 eV/Ang   # Default: 0.04 eV/Ang
#MD.MaxStressTol       1.0 GPa       # Default: 1.0 GPa
# Geometry Constraints
#%block GeometryConstraints
#	position from 1 to 44
#%endblock GeometryConstraints
BandLinesScale   pi/a
%block BandLines
 1   0.00000000  0.00000000  0.00000000
50   0.00000000  0.07809418  0.00000000
50   0.04509075  0.07809242  0.00000000
20   0.00000000  0.00000000  0.00000000
%endblock BandLines
************************** End of input data file *****************************

reinit: -----------------------------------------------------------------------
reinit: System Name: GRP_doping
reinit: -----------------------------------------------------------------------
reinit: System Label: GRP_doping                                                  
reinit: -----------------------------------------------------------------------

initatom: Reading input for the pseudopotentials and atomic orbitals ----------
 Species number:            1  Label: B Atomic number:           5
 Species number:            2  Label: C Atomic number:           6
Ground state valence configuration:   2s02  2p01
Reading pseudopotential information in formatted form from B.psf

Valence configuration for pseudopotential generation:
2s( 2.00) rc: 1.74
2p( 1.00) rc: 1.74
3d( 0.00) rc: 1.74
4f( 0.00) rc: 1.74
Ground state valence configuration:   2s02  2p02
Reading pseudopotential information in formatted form from C.psf

Valence configuration for pseudopotential generation:
2s( 2.00) rc: 1.54
2p( 2.00) rc: 1.54
3d( 0.00) rc: 1.54
4f( 0.00) rc: 1.54
For B, standard SIESTA heuristics set lmxkb to 3
 (one more than the basis l, including polarization orbitals).
Use PS.lmax or PS.KBprojectors blocks to override.
For C, standard SIESTA heuristics set lmxkb to 3
 (one more than the basis l, including polarization orbitals).
Use PS.lmax or PS.KBprojectors blocks to override.

<basis_specs>
===============================================================================
B                    Z=   5    Mass=  10.810        Charge= 0.17977+309
Lmxo=1 Lmxkb= 3    BasisType=split      Semic=F
L=0  Nsemic=0  Cnfigmx=2
          n=1  nzeta=2  polorb=0
            splnorm:   0.15000    
               vcte:    0.0000    
               rinn:    0.0000    
                rcs:    0.0000      0.0000    
            lambdas:    1.0000      1.0000    
L=1  Nsemic=0  Cnfigmx=2
          n=1  nzeta=2  polorb=1
            splnorm:   0.15000    
               vcte:    0.0000    
               rinn:    0.0000    
                rcs:    0.0000      0.0000    
            lambdas:    1.0000      1.0000    
-------------------------------------------------------------------------------
L=0  Nkbl=1  erefs: 0.17977+309
L=1  Nkbl=1  erefs: 0.17977+309
L=2  Nkbl=1  erefs: 0.17977+309
L=3  Nkbl=1  erefs: 0.17977+309
===============================================================================
</basis_specs>

atom: Called for B                     (Z =   5)

read_vps: Pseudopotential generation method:
read_vps: ATM3      Troullier-Martins                       
Total valence charge:    3.00000

read_vps: Pseudopotential includes a core correction:
read_vps: Pseudo-core for xc-correction

xc_check: Exchange-correlation functional:
xc_check: GGA Perdew, Burke & Ernzerhof 1996
V l=0 = -2*Zval/r beyond r=  1.7165
V l=1 = -2*Zval/r beyond r=  1.7165
V l=2 = -2*Zval/r beyond r=  1.7165
V l=3 = -2*Zval/r beyond r=  1.6951
All V_l potentials equal beyond r=  1.7165
This should be close to max(r_c) in ps generation
All pots = -2*Zval/r beyond r=  1.7165

VLOCAL1: 99.0% of the norm of Vloc inside     14.733 Ry
VLOCAL1: 99.9% of the norm of Vloc inside     33.577 Ry
atom: Maximum radius for 4*pi*r*r*local-pseudopot. charge    2.04484
atom: Maximum radius for r*vlocal+2*Zval:    1.75994
GHOST: No ghost state for L =  0
GHOST: No ghost state for L =  1
GHOST: No ghost state for L =  2
GHOST: No ghost state for L =  3

KBgen: Kleinman-Bylander projectors: 
   l= 0   rc=  1.897051   el= -0.693730   Ekb=  4.595746   kbcos=  0.286105
   l= 1   rc=  1.920920   el= -0.265236   Ekb= -2.350715   kbcos= -0.315747
   l= 2   rc=  2.044840   el=  0.002055   Ekb= -0.690767   kbcos= -0.013822
   l= 3   rc=  2.149707   el=  0.003188   Ekb= -0.315358   kbcos= -0.002055

KBgen: Total number of  Kleinman-Bylander projectors:   16
atom: -------------------------------------------------------------------------

atom: SANKEY-TYPE ORBITALS:
atom: Selected multiple-zeta basis: split     

SPLIT: Orbitals with angular momentum L= 0

SPLIT: Basis orbitals for state 2s

SPLIT: PAO cut-off radius determined from an
SPLIT: energy shift=  0.007350 Ry

   izeta = 1
                 lambda =    1.000000
                     rc =    5.422032
                 energy =   -0.686029
                kinetic =    0.576707
    potential(screened) =   -1.262736
       potential(ionic) =   -3.271094

   izeta = 2
                 rmatch =    4.222573
              splitnorm =    0.150000
                 energy =   -0.602132
                kinetic =    0.858975
    potential(screened) =   -1.461107
       potential(ionic) =   -3.582536

SPLIT: Orbitals with angular momentum L= 1

SPLIT: Basis orbitals for state 2p

SPLIT: PAO cut-off radius determined from an
SPLIT: energy shift=  0.007350 Ry

   izeta = 1
                 lambda =    1.000000
                     rc =    6.790259
                 energy =   -0.258578
                kinetic =    1.481412
    potential(screened) =   -1.739989
       potential(ionic) =   -3.657461

   izeta = 2
                 rmatch =    4.608740
              splitnorm =    0.150000
                 energy =   -0.173757
                kinetic =    2.186690
    potential(screened) =   -2.360447
       potential(ionic) =   -4.464260

POLgen: Perturbative polarization orbital with L=  2

POLgen: Polarization orbital for state 2p

   izeta = 1
                     rc =    6.790259
                 energy =    0.684082
                kinetic =    1.471481
    potential(screened) =   -0.787399
       potential(ionic) =   -2.406985
atom: Total number of Sankey-type orbitals: 13

atm_pop: Valence configuration (for local Pseudopot. screening):
 2s( 2.00)                                                            
 2p( 1.00)                                                            
Vna: chval, zval:    3.00000   3.00000

Vna:  Cut-off radius for the neutral-atom potential:   6.790259
comcore: Pseudo-core radius Rcore=  2.122997

atom: _________________________________________________________________________

<basis_specs>
===============================================================================
C                    Z=   6    Mass=  12.010        Charge= 0.17977+309
Lmxo=1 Lmxkb= 3    BasisType=split      Semic=F
L=0  Nsemic=0  Cnfigmx=2
          n=1  nzeta=2  polorb=0
            splnorm:   0.15000    
               vcte:    0.0000    
               rinn:    0.0000    
                rcs:    0.0000      0.0000    
            lambdas:    1.0000      1.0000    
L=1  Nsemic=0  Cnfigmx=2
          n=1  nzeta=2  polorb=1
            splnorm:   0.15000    
               vcte:    0.0000    
               rinn:    0.0000    
                rcs:    0.0000      0.0000    
            lambdas:    1.0000      1.0000    
-------------------------------------------------------------------------------
L=0  Nkbl=1  erefs: 0.17977+309
L=1  Nkbl=1  erefs: 0.17977+309
L=2  Nkbl=1  erefs: 0.17977+309
L=3  Nkbl=1  erefs: 0.17977+309
===============================================================================
</basis_specs>

atom: Called for C                     (Z =   6)

read_vps: Pseudopotential generation method:
read_vps: ATM3      Troullier-Martins                       
Total valence charge:    4.00000

read_vps: Pseudopotential includes a core correction:
read_vps: Pseudo-core for xc-correction

xc_check: Exchange-correlation functional:
xc_check: GGA Perdew, Burke & Ernzerhof 1996
V l=0 = -2*Zval/r beyond r=  1.5227
V l=1 = -2*Zval/r beyond r=  1.5227
V l=2 = -2*Zval/r beyond r=  1.5227
V l=3 = -2*Zval/r beyond r=  1.5038
All V_l potentials equal beyond r=  1.5227
This should be close to max(r_c) in ps generation
All pots = -2*Zval/r beyond r=  1.5227

VLOCAL1: 99.0% of the norm of Vloc inside     18.722 Ry
VLOCAL1: 99.9% of the norm of Vloc inside     42.668 Ry
atom: Maximum radius for 4*pi*r*r*local-pseudopot. charge    1.83678
atom: Maximum radius for r*vlocal+2*Zval:    1.58088
GHOST: No ghost state for L =  0
GHOST: No ghost state for L =  1
GHOST: No ghost state for L =  2
GHOST: No ghost state for L =  3

KBgen: Kleinman-Bylander projectors: 
   l= 0   rc=  1.704034   el= -1.009801   Ekb=  5.335044   kbcos=  0.316824
   l= 1   rc=  1.704034   el= -0.388707   Ekb= -3.785862   kbcos= -0.366464
   l= 2   rc=  1.791422   el=  0.001971   Ekb= -0.970471   kbcos= -0.009212
   l= 3   rc=  1.859892   el=  0.003065   Ekb= -0.399525   kbcos= -0.001223

KBgen: Total number of  Kleinman-Bylander projectors:   16
atom: -------------------------------------------------------------------------

atom: SANKEY-TYPE ORBITALS:
atom: Selected multiple-zeta basis: split     

SPLIT: Orbitals with angular momentum L= 0

SPLIT: Basis orbitals for state 2s

SPLIT: PAO cut-off radius determined from an
SPLIT: energy shift=  0.007350 Ry

   izeta = 1
                 lambda =    1.000000
                     rc =    4.632753
                 energy =   -1.002270
                kinetic =    0.855760
    potential(screened) =   -1.858031
       potential(ionic) =   -5.417575

   izeta = 2
                 rmatch =    3.431921
              splitnorm =    0.150000
                 energy =   -0.867111
                kinetic =    1.300804
    potential(screened) =   -2.167915
       potential(ionic) =   -5.962684

SPLIT: Orbitals with angular momentum L= 1

SPLIT: Basis orbitals for state 2p

SPLIT: PAO cut-off radius determined from an
SPLIT: energy shift=  0.007350 Ry

   izeta = 1
                 lambda =    1.000000
                     rc =    5.658549
                 energy =   -0.381140
                kinetic =    2.399701
    potential(screened) =   -2.780841
       potential(ionic) =   -6.206085

   izeta = 2
                 rmatch =    3.653288
              splitnorm =    0.150000
                 energy =   -0.249149
                kinetic =    3.542762
    potential(screened) =   -3.791911
       potential(ionic) =   -7.581078

POLgen: Perturbative polarization orbital with L=  2

POLgen: Polarization orbital for state 2p

   izeta = 1
                     rc =    5.658549
                 energy =    1.109913
                kinetic =    2.304789
    potential(screened) =   -1.194876
       potential(ionic) =   -4.013592
atom: Total number of Sankey-type orbitals: 13

atm_pop: Valence configuration (for local Pseudopot. screening):
 2s( 2.00)                                                            
 2p( 2.00)                                                            
Vna: chval, zval:    4.00000   4.00000

Vna:  Cut-off radius for the neutral-atom potential:   5.658549
comcore: Pseudo-core radius Rcore=  1.791422

atom: _________________________________________________________________________

prinput: Basis input ----------------------------------------------------------

PAO.BasisType split     

%block ChemicalSpeciesLabel
    1    5 B                       # Species index, atomic number, species label
    2    6 C                       # Species index, atomic number, species label
%endblock ChemicalSpeciesLabel

%block PAO.Basis                 # Define Basis set
B                     2                    # Species label, number of l-shells
 n=2   0   2                         # n, l, Nzeta 
   5.422      4.223   
   1.000      1.000   
 n=2   1   2 P   1                   # n, l, Nzeta, Polarization, NzetaPol
   6.790      4.609   
   1.000      1.000   
C                     2                    # Species label, number of l-shells
 n=2   0   2                         # n, l, Nzeta 
   4.633      3.432   
   1.000      1.000   
 n=2   1   2 P   1                   # n, l, Nzeta, Polarization, NzetaPol
   5.659      3.653   
   1.000      1.000   
%endblock PAO.Basis

prinput: ----------------------------------------------------------------------

coor:   Atomic-coordinates input format  =     Fractional

siesta: Atomic coordinates (Bohr) and species
siesta:     -2.35420  38.89134   0.00000  1        1
siesta:     -2.35420  41.57980   0.00000  1        2
siesta:      4.63094  34.85847   0.00000  1        3
siesta:      4.63094  37.54693   0.00000  1        4
siesta:     -4.68258  34.85847   0.00000  1        5
siesta:     -4.68258  37.54693   0.00000  1        6
siesta:      2.30256  17.38257   0.00000  1        7
siesta:     -7.01096  14.69411   0.00000  1        8
siesta:     -7.01096  17.38257   0.00000  1        9
siesta:     -4.68258  18.72698   0.00000  1       10
siesta:     -4.68258  21.41544   0.00000  1       11
siesta:     -2.35420  22.75985   0.00000  1       12
siesta:     -2.35420  25.44831   0.00000  1       13
siesta:    -11.66772  22.75985   0.00000  1       14
siesta:    -11.66772  25.44831   0.00000  1       15
siesta:     -9.33934  26.79272   0.00000  1       16
siesta:     -9.33934  29.48119   0.00000  1       17
siesta:     -0.02582  26.79272   0.00000  1       18
siesta:     -0.02582  29.48119   0.00000  1       19
siesta:      2.30256  30.82560   0.00000  1       20
siesta:      2.30256  33.51406   0.00000  1       21
siesta:     -7.01096  30.82560   0.00000  1       22
siesta:     -7.01096  33.51406   0.00000  1       23
siesta:     -0.02582  42.92421   0.00000  1       24
siesta:     -0.02582  45.61267   0.00000  1       25
siesta:     -0.02582   2.59549   0.00000  2       26
siesta:     -0.02582   5.28395   0.00000  2       27
siesta:      2.30256  38.89134   0.00000  2       28
siesta:      2.30256  41.57980   0.00000  2       29
siesta:      6.95932  30.82560   0.00000  2       30
siesta:      6.95932  33.51406   0.00000  2       31
siesta:      9.28770  26.79272   0.00000  2       32
siesta:      9.28770  29.48119   0.00000  2       33
siesta:      2.30256   6.62836   0.00000  2       34
siesta:      2.30256   9.31683   0.00000  2       35
siesta:      4.63094  10.66124   0.00000  2       36
siesta:      4.63094  13.34970   0.00000  2       37
siesta:      6.95932  14.69411   0.00000  2       38
siesta:      6.95932  17.38257   0.00000  2       39
siesta:      9.28770  18.72698   0.00000  2       40
siesta:      9.28770  21.41544   0.00000  2       41
siesta:     11.61608  22.75985   0.00000  2       42
siesta:     11.61608  25.44831   0.00000  2       43
siesta:     -2.35420   6.62836   0.00000  2       44
siesta:     -2.35420   9.31683   0.00000  2       45
siesta:     -0.02582  10.66124   0.00000  2       46
siesta:     -0.02582  13.34970   0.00000  2       47
siesta:      2.30256  14.69411   0.00000  2       48
siesta:      4.63094  18.72698   0.00000  2       49
siesta:      4.63094  21.41544   0.00000  2       50
siesta:      6.95932  22.75985   0.00000  2       51
siesta:      6.95932  25.44831   0.00000  2       52
siesta:     -4.68258  10.66124   0.00000  2       53
siesta:     -4.68258  13.34970   0.00000  2       54
siesta:     -2.35420  14.69411   0.00000  2       55
siesta:     -2.35420  17.38257   0.00000  2       56
siesta:     -0.02582  18.72698   0.00000  2       57
siesta:     -0.02582  21.41544   0.00000  2       58
siesta:      2.30256  22.75985   0.00000  2       59
siesta:      2.30256  25.44831   0.00000  2       60
siesta:     -9.33934  18.72698   0.00000  2       61
siesta:     -9.33934  21.41544   0.00000  2       62
siesta:     -7.01096  22.75985   0.00000  2       63
siesta:     -7.01096  25.44831   0.00000  2       64
siesta:      4.63094  26.79272   0.00000  2       65
siesta:      4.63094  29.48119   0.00000  2       66
siesta:     -4.68258  26.79272   0.00000  2       67
siesta:     -4.68258  29.48119   0.00000  2       68
siesta:     -2.35420  30.82560   0.00000  2       69
siesta:     -2.35420  33.51406   0.00000  2       70
siesta:     -0.02582  34.85847   0.00000  2       71
siesta:     -0.02582  37.54693   0.00000  2       72

siesta: System type = slab      

initatomlists: Number of atoms, orbitals, and projectors:     72   936  1152

siesta: ******************** Simulation parameters ****************************
siesta:
siesta: The following are some of the parameters of the simulation.
siesta: A complete list of the parameters used, including default values,
siesta: can be found in file out.fdf
siesta:
redata: Non-Collinear-spin run           =     F
redata: SpinPolarized (Up/Down) run      =     F
redata: Number of spin components        =     1
redata: Long output                      =     F
redata: Number of Atomic Species         =        2
redata: Charge density info will appear in .RHO file
redata: Write Mulliken Pop.              =     NO
redata: Mesh Cutoff                      =   200.0000  Ry
redata: Net charge of the system         =     0.0000 |e|
redata: Max. number of SCF Iter          =      500
redata: SCF convergence failure will abort job
redata: Performing Pulay mixing using    =    10 iterations
redata: Mix DM in first SCF step ?       =     F
redata: Write Pulay info on disk?        =     F
redata: Discard 1st Pulay DM after  kick =     F
redata: New DM Mixing Weight             =     0.0500
redata: New DM Occupancy tolerance       = 0.000000000001
redata: No kicks to SCF
redata: DM Mixing Weight for Kicks       =     0.5000
redata: DM Tolerance for SCF             =     0.000100
redata: Require Energy convergence for SCF =     F
redata: DM Energy tolerance for SCF      =     0.000100 eV
redata: Require Harris convergence for SCF =     F
redata: DM Harris energy tolerance for SCF =     0.000100 eV
redata: Using Saved Data (generic)   =     F
redata: Use continuation files for DM    =     T
redata: Neglect nonoverlap interactions  =     F
redata: Method of Calculation            =     Diagonalization
redata: Divide and Conquer               =     T
redata: Electronic Temperature           =     0.0019  Ry
redata: Fix the spin of the system       =     F
redata: Dynamics option                  =     Verlet MD run
redata: Initial MD time step             =        1
redata:   Final MD time step             =        1
redata: Length of MD time step           =     1.0000  fs
redata: Initial Temperature of MD run    =     0.0000  K
redata: Perform a MD quench              =     F
redata: ***********************************************************************
Total number of electrons:   263.000000
Total ionic charge:   263.000000

* ProcessorY, Blocksize:    2  24

k-point displ. along   1 input, could be:     0.50    0.00
k-point displ. along   2 input, could be:     0.50    0.00
 Kpoints in:          231 . Kpoints trimmed:          231

siesta: k-grid: Number of k-points =   231
siesta: k-grid: Cutoff (effective) =     5.000 Ang
siesta: k-grid: Supercell and displacements
siesta: k-grid:   21   0   0      0.500
siesta: k-grid:    0  21   0      0.500
siesta: k-grid:    0   0   1      0.000
Naive supercell factors:     2    2    2

superc: Internal auxiliary supercell:     2 x     2 x     2  =       8
superc: Number of atoms, orbitals, and projectors:    576   7488   9216

* Maximum dynamic memory allocated =     4 MB

siesta:                 ==============================
                            Begin MD step =      1
                        ==============================

superc: Internal auxiliary supercell:     2 x     2 x     2  =       8
superc: Number of atoms, orbitals, and projectors:    576   7488   9216

outcell: Unit cell vectors (Ang):
       12.804619    7.392750    0.000000
        0.000000   14.785500    0.000000
        0.000000    0.000000   10.000000

outcell: Cell vector modules (Ang)   :   14.785500   14.785500   10.000000
outcell: Cell angles (23,13,12) (deg):     90.0000     90.0000     60.0000
outcell: Cell volume (Ang**3)        :   1893.2269
New_DM. Step:     1
Initializing Density Matrix...

InitMesh: MESH =   120 x   120 x    90 =     1296000
InitMesh: Mesh cutoff (required, used) =   200.000   223.865 Ry

* Maximum dynamic memory allocated =   234 MB

stepf: Fermi-Dirac step function

siesta: Program's energy decomposition (eV):
siesta: Ebs     =     -5427.933069
siesta: Eions   =     15201.593291
siesta: Ena     =      4113.170090
siesta: Ekin    =      5059.728642
siesta: Enl     =       851.157883
siesta: DEna    =        -0.000006
siesta: DUscf   =         0.000000
siesta: DUext   =         0.000000
siesta: Exc     =     -4203.055809
siesta: eta*DQ  =         0.000000
siesta: Emadel  =         0.000000
siesta: Emeta   =         0.000000
siesta: Emolmec =         0.000000
siesta: Ekinion =         0.000000
siesta: Eharris =     -9180.237821
siesta: Etot    =     -9380.592492
siesta: FreeEng =     -9380.592492

siesta: iscf   Eharris(eV)      E_KS(eV)   FreeEng(eV)   dDmax  Ef(eV)
siesta:    1    -9180.2378    -9380.5925    -9380.5925  7.5911 -8.5580
timer: Routine,Calls,Time,% = IterSCF        1    4496.315  99.71
elaps: Routine,Calls,Wall,% = IterSCF        1     562.815  99.71
siesta:    2   -15171.3430    -8299.9002    -8299.9355 19.4151 -5.4592
siesta:    3    -9188.1993    -9214.6873    -9214.7329  2.2871 -6.2172
siesta:    4    -9127.6633    -9126.8804    -9126.9257  1.4400 -5.4219
siesta:    5    -9048.2906    -9033.0693    -9033.1263  1.1920 -5.2717
siesta:    6    -9036.2152    -9016.1302    -9016.1710  1.1034 -5.2099
siesta:    7    -9022.9750    -9004.3102    -9004.3579  0.7256 -5.4213
siesta:    8    -9021.3620    -8999.2315    -8999.2663  0.7351 -5.2385
siesta:    9    -9018.9831    -8998.0155    -8998.0679  0.6237 -5.3234
siesta:   10    -9018.5568    -8995.9543    -8996.0254  0.6038 -5.2366
siesta:   11    -9018.6077    -8992.9724    -8993.0289  0.6250 -5.1601
siesta:   12    -9018.4569    -8991.1352    -8991.1920  0.3103 -5.1567
siesta:   13    -9019.0147    -8991.5044    -8991.5821  0.3668 -5.1780
siesta:   14    -9018.0534    -8992.9905    -8993.0586  0.3113 -5.2215
siesta:   15    -9017.4885    -8993.6905    -8993.7756  0.2333 -5.1917
siesta:   16    -9016.9959    -8998.5948    -8998.6961  0.2388 -5.2098
siesta:   17    -9017.1325    -9004.1017    -9004.2028  0.5906 -5.2326
siesta:   18    -9016.8533    -9007.8846    -9007.9478  0.2728 -5.2633
siesta:   19    -9016.7350    -9008.6794    -9008.7653  0.1297 -5.2735
siesta:   20    -9016.7671    -9012.7043    -9012.7918  0.1720 -5.2829
siesta:   21    -9016.6550    -9014.6511    -9014.7314  0.1039 -5.2878
siesta:   22    -9016.6088    -9015.3918    -9015.4798  0.0577 -5.2745
siesta:   23    -9016.6111    -9016.1620    -9016.2526  0.2612 -5.2541
siesta:   24    -9016.5772    -9016.7301    -9016.8285  0.0640 -5.2621
siesta:   25    -9016.5897    -9016.8464    -9016.9459  0.2353 -5.2467
siesta:   26    -9016.5595    -9017.0251    -9017.1255  0.0450 -5.2629
siesta:   27    -9016.5562    -9017.0389    -9017.1338  0.0243 -5.2610
siesta:   28    -9016.5564    -9017.2208    -9017.3151  0.0408 -5.2599
siesta:   29    -9016.5549    -9017.2524    -9017.3457  0.0365 -5.2497
siesta:   30    -9016.5505    -9017.1885    -9017.2825  0.0157 -5.2481
siesta:   31    -9016.5494    -9017.0585    -9017.1546  0.0105 -5.2462
siesta:   32    -9016.5494    -9016.9196    -9017.0166  0.0039 -5.2482
siesta:   33    -9016.5500    -9016.8162    -9016.9129  0.0048 -5.2492
siesta:   34    -9016.5497    -9016.7669    -9016.8628  0.0039 -5.2477
siesta:   35    -9016.5498    -9016.7099    -9016.8061  0.0027 -5.2484
siesta:   36    -9016.5496    -9016.6456    -9016.7417  0.0012 -5.2486
siesta:   37    -9016.5496    -9016.6197    -9016.7160  0.0011 -5.2487
siesta:   38    -9016.5494    -9016.5639    -9016.6602  0.0012 -5.2491
siesta:   39    -9016.5495    -9016.5610    -9016.6575  0.0008 -5.2491
siesta:   40    -9016.5495    -9016.5579    -9016.6543  0.0006 -5.2491
siesta:   41    -9016.5495    -9016.5510    -9016.6474  0.0005 -5.2491
siesta:   42    -9016.5495    -9016.5508    -9016.6472  0.0003 -5.2491
siesta:   43    -9016.5495    -9016.5521    -9016.6485  0.0001 -5.2491
siesta:   44    -9016.5495    -9016.5548    -9016.6512  0.0002 -5.2490
siesta:   45    -9016.5495    -9016.5542    -9016.6505  0.0001 -5.2490
siesta:   46    -9016.5495    -9016.5540    -9016.6504  0.0001 -5.2490
siesta:   47    -9016.5495    -9016.5508    -9016.6472  0.0001 -5.2490

siesta: E_KS(eV) =            -9016.5502

siesta: E_KS - E_eggbox =     -9016.5502

siesta: Atomic forces (eV/Ang):
----------------------------------------
   Tot   -0.198885   -0.105391    0.000000
----------------------------------------
   Max  560.951765
   Res  134.857532    sqrt( Sum f_i^2 / 3N )
----------------------------------------
   Max  560.951765    constrained

Stress-tensor-Voigt (kbar):     -773.58    -2505.75       -0.72       -4.79        0.00        0.00
(Free)E + p*V (eV/cell)    -7724.6922
Target enthalpy (eV/cell)    -9016.6465

siesta: Stress tensor (static) (eV/Ang**3):
        -0.482828   -0.002989    0.000000
        -0.002989   -1.563948    0.000000
         0.000000    0.000000   -0.000450

siesta: Pressure (static):       1093.35090874  kBar

siesta: Stress tensor (total) (eV/Ang**3):
        -0.482828   -0.002989    0.000000
        -0.002989   -1.563948    0.000000
         0.000000    0.000000   -0.000450

siesta: Pressure (total):       1093.35090874  kBar

siesta: Temp_ion =       0.000 K

* Maximum dynamic memory allocated =   251 MB
Computing bands...

siesta: Program's energy decomposition (eV):
siesta: Ebs     =     -4013.559937
siesta: Eions   =     15201.593291
siesta: Ena     =      4113.170090
siesta: Ekin    =      7865.172939
siesta: Enl     =      -753.675278
siesta: DEna    =      -773.220853
siesta: DUscf   =       106.157448
siesta: DUext   =         0.000000
siesta: Exc     =     -4372.561207
siesta: eta*DQ  =         0.000000
siesta: Emadel  =         0.000000
siesta: Emeta   =         0.000000
siesta: Emolmec =         0.000000
siesta: Ekinion =         0.000000
siesta: Eharris =     -9016.549528
siesta: Etot    =     -9016.550151
siesta: FreeEng =     -9016.646522

siesta: Final energy (eV):
siesta:  Band Struct. =   -4013.559937
siesta:       Kinetic =    7865.172939
siesta:       Hartree =   25613.521218
siesta:    Ext. field =       0.000000
siesta:   Exch.-corr. =   -4372.561207
siesta:  Ion-electron =  -58779.478736
siesta:       Ion-ion =   20656.795634
siesta:       Ekinion =       0.000000
siesta:         Total =   -9016.550151

siesta: Atomic forces (eV/Ang):
siesta:      1   -3.568584  106.672547    0.000000
siesta:      2   -2.743473 -395.843906    0.000000
siesta:      3   19.891459   -2.801445    0.000000
siesta:      4   22.445260 -397.611109    0.000000
siesta:      5  -17.215624    2.072002    0.000000
siesta:      6  -20.350565 -394.714155    0.000000
siesta:      7   19.772039   -2.269038    0.000000
siesta:      8    0.765385   -5.975960    0.000000
siesta:      9   -9.004215    0.450218    0.000000
siesta:     10    7.177398   -2.778021    0.000000
siesta:     11   -5.926775    4.240196    0.000000
siesta:     12    7.141575   -5.107513    0.000000
siesta:     13   -5.921385    3.433118    0.000000
siesta:     14   -3.097077   -3.857575    0.000000
siesta:     15   -6.474485    2.969145    0.000000
siesta:     16   -0.401529   -1.265928    0.000000
siesta:     17   -5.359970    2.195299    0.000000
siesta:     18    4.025466   -2.297538    0.000000
siesta:     19    1.166978 -410.793014    0.000000
siesta:     20   19.242911   -1.291351    0.000000
siesta:     21   23.140358 -402.402975    0.000000
siesta:     22    0.436504    1.417075    0.000000
siesta:     23   -3.048811    3.138782    0.000000
siesta:     24   -4.083888  109.304649    0.000000
siesta:     25   -2.055100 -408.151591    0.000000
siesta:     26   -2.762353  407.530647    0.000000
siesta:     27    4.243065 -125.748269    0.000000
siesta:     28    6.591719  117.863644    0.000000
siesta:     29   14.313944 -552.410643    0.000000
siesta:     30    2.954390    1.318563    0.000000
siesta:     31    0.444006   -0.025065    0.000000
siesta:     32    1.927265    2.683889    0.000000
siesta:     33   -0.433068   -0.493086    0.000000
siesta:     34   15.054564  406.866254    0.000000
siesta:     35    4.894794 -124.167095    0.000000
siesta:     36   35.727234  406.416456    0.000000
siesta:     37   25.456535    2.003596    0.000000
siesta:     38   -2.325689   -2.508986    0.000000
siesta:     39    2.313777    0.465866    0.000000
siesta:     40   -0.749928   -0.691205    0.000000
siesta:     41    1.605646   -2.319961    0.000000
siesta:     42    0.698721    6.045616    0.000000
siesta:     43    0.362002   -5.964833    0.000000
siesta:     44  -14.332050  548.476504    0.000000
siesta:     45   -9.559923 -128.283995    0.000000
siesta:     46    3.553299  554.422741    0.000000
siesta:     47   -6.027919 -127.157294    0.000000
siesta:     48   28.987652  560.951765    0.000000
siesta:     49    0.690001    1.567860    0.000000
siesta:     50   -0.049924    0.199594    0.000000
siesta:     51   -0.193231    1.252348    0.000000
siesta:     52   -0.326627   -1.054603    0.000000
siesta:     53  -31.904796  402.895928    0.000000
siesta:     54  -19.527974   -0.097796    0.000000
siesta:     55  -29.667060  411.356217    0.000000
siesta:     56  -20.175523   -2.660779    0.000000
siesta:     57    1.456533  419.211754    0.000000
siesta:     58    1.157086    0.968718    0.000000
siesta:     59    0.958299   -0.543051    0.000000
siesta:     60    2.491322   -0.955186    0.000000
siesta:     61   -0.910500    3.663875    0.000000
siesta:     62   -1.261251   -3.687211    0.000000
siesta:     63   -0.579496    2.671508    0.000000
siesta:     64    2.196853   -2.150262    0.000000
siesta:     65    0.408730   -0.777332    0.000000
siesta:     66    0.241267   -1.898289    0.000000
siesta:     67   -1.553042    1.095175    0.000000
siesta:     68    3.814374   -2.993924    0.000000
siesta:     69  -22.104037    2.760699    0.000000
siesta:     70  -32.836837 -553.539160    0.000000
siesta:     71    6.722799  121.230208    0.000000
siesta:     72   -8.137386 -542.628702    0.000000
siesta: ----------------------------------------
siesta:    Tot   -0.198885   -0.105391    0.000000

siesta: Stress tensor (static) (eV/Ang**3):
siesta:    -0.482828   -0.002989    0.000000
siesta:    -0.002989   -1.563948    0.000000
siesta:     0.000000    0.000000   -0.000450

siesta: Cell volume =       1893.226884 Ang**3

siesta: Pressure (static):
siesta:                Solid            Molecule  Units
siesta:           0.00743230          0.10244010  Ry/Bohr**3
siesta:           0.68240859          9.40570179  eV/Ang**3
siesta:        1093.35090874      15069.75852680  kBar
(Free)E+ p_basis*V_orbitals  =       -8978.010071
(Free)Eharris+ p_basis*V_orbitals  =       -8978.008785

siesta: Electric dipole (a.u.)  =    0.000000    0.000000    0.000000
siesta: Electric dipole (Debye) =    0.000000    0.000000    0.000000

* Maximum dynamic memory allocated : Node    0 =   251 MB
* Maximum dynamic memory allocated : Node    1 =    88 MB
* Maximum dynamic memory allocated : Node    2 =    91 MB
* Maximum dynamic memory allocated : Node    3 =   238 MB
* Maximum dynamic memory allocated : Node    4 =   232 MB
* Maximum dynamic memory allocated : Node    5 =    85 MB
* Maximum dynamic memory allocated : Node    6 =    87 MB
* Maximum dynamic memory allocated : Node    7 =   213 MB

* Maximum memory occured during matrixMtoO                    

timer: CPU execution times:
timer:  Routine       Calls   Time/call    Tot.time        %
timer:  siesta            1  207977.098  207977.098   100.00
timer:  Setup             1       4.242       4.242     0.00
timer:  bands             3     269.371     808.113     0.39
timer:  writewave         1       0.042       0.042     0.00
timer:  KSV_init          1       0.007       0.007     0.00
timer:  IterMD            1  207159.057  207159.057    99.61
timer:  hsparse           1       0.402       0.402     0.00
timer:  overlap           1       7.805       7.805     0.00
timer:  IterSCF          47    4402.287  206907.506    99.49
timer:  kinefsm           2       4.047       8.095     0.00
timer:  nlefsm            2      22.383      44.767     0.02
timer:  DHSCF            48     134.009    6432.435     3.09
timer:  DHSCF1            1       0.988       0.988     0.00
timer:  DHSCF2            1      46.237      46.237     0.02
timer:  REORD           386       0.010       3.867     0.00
timer:  POISON           49       2.242     109.852     0.05
timer:  DHSCF3           48     132.023    6337.117     3.05
timer:  rhoofd           48      27.521    1320.998     0.64
timer:  cellXC           48       3.500     168.023     0.08
timer:  vmat             48      64.106    3077.110     1.48
timer:  MolMec            2       0.000       0.000     0.00
timer:  diagon           47    4266.682  200534.060    96.42
timer:  c-eigval      10978       6.685   73390.722    35.29
timer:  c-buildHS     10978       0.125    1371.003     0.66
timer:  cdiag         21835       6.876  150135.499    72.19
timer:  cdiag1        21835       0.430    9383.641     4.51
timer:  cdiag2        21835       1.916   41826.309    20.11
timer:  cdiag3        21835       3.941   86046.193    41.37
timer:  cdiag4        21835       0.222    4851.700     2.33
timer:  c-eigvec      10857       7.266   78889.604    37.93
timer:  c-buildD      10857       4.513   49001.107    23.56
timer:  DHSCF4            1      45.521      45.521     0.02
timer:  dfscf             1      42.811      42.811     0.02
timer:  overfsm           1       0.492       0.492     0.00
timer:  optical           1       4.984       4.984     0.00
  

elaps: ELAPSED times:
elaps:  Routine       Calls   Time/call    Tot.time        %
elaps:  siesta            1   26027.861   26027.861   100.00
elaps:  Setup             1       0.552       0.552     0.00
elaps:  bands             3      33.724     101.172     0.39
elaps:  writewave         1       0.005       0.005     0.00
elaps:  KSV_init          1       0.001       0.001     0.00
elaps:  IterMD            1   25925.479   25925.479    99.61
elaps:  hsparse           1       0.050       0.050     0.00
elaps:  overlap           1       0.976       0.976     0.00
elaps:  IterSCF          47     550.939   25894.149    99.49
elaps:  kinefsm           2       0.506       1.011     0.00
elaps:  nlefsm            2       2.899       5.798     0.02
elaps:  DHSCF            48      16.886     810.547     3.11
elaps:  DHSCF1            1       0.128       0.128     0.00
elaps:  DHSCF2            1       5.785       5.785     0.02
elaps:  REORD           386       0.001       0.517     0.00
elaps:  POISON           49       0.280      13.706     0.05
elaps:  DHSCF3           48      16.516     792.779     3.05
elaps:  rhoofd           48       7.390     354.743     1.36
elaps:  cellXC           48       0.437      20.974     0.08
elaps:  vmat             48       8.019     384.935     1.48
elaps:  MolMec            2       0.000       0.000     0.00
elaps:  diagon           47     533.978   25096.952    96.42
elaps:  c-eigval      10978       0.836    9182.558    35.28
elaps:  c-buildHS     10978       0.017     185.159     0.71
elaps:  cdiag         21835       0.851   18576.233    71.37
elaps:  cdiag1        21835       0.053    1164.979     4.48
elaps:  cdiag2        21835       0.240    5233.557    20.11
elaps:  cdiag3        21835       0.494   10780.340    41.42
elaps:  cdiag4        21835       0.028     606.263     2.33
elaps:  c-eigvec      10857       0.895    9713.832    37.32
elaps:  c-buildD      10857       0.580    6292.971    24.18
elaps:  DHSCF4            1      11.509      11.509     0.04
elaps:  dfscf             1      10.964      10.964     0.04
elaps:  overfsm           1       0.062       0.062     0.00
elaps:  optical           1       0.001       0.001     0.00
  
>> End of run:  21-APR-2016   8:11:28
