Siesta Version:                                        siesta-3.2-pl-3
Architecture  : x86_64-unknown-linux-gnu--unknown
Compiler flags: mpiifort -g -O2 -fPIC -xSSE4.1 -fp-model source -shared-intel 
PARALLEL version

* Running on    8 nodes in parallel
>> Start of run:  28-APR-2016  11:39:13

                           ***********************       
                           *  WELCOME TO SIESTA  *       
                           ***********************       

reinit: Reading from standard input
************************** Dump of input data file ****************************
#(1) General system descriptors
SystemName            GRP_doping    # Descriptive name of the system
SystemLabel           GRP_doping    # Short name for naming files
%include STRUCT.fdf
%include KPT.fdf
%include BASIS.fdf
#%include TS.fdf # for transiesta calculation
#(4) DFT, Grid, SCF
XC.functional         GGA           # LDA or GGA (default = LDA)
XC.authors            PBE           # CA (Ceperley-Aldr) = PZ
                                    #    (Perdew-Zunger) - LDA - Default
                                    # PW92 (Perdew-Wang-92) - LDA
                                    # PBE (Perdew-Burke-Ernzerhof) - GGA
MeshCutoff            200.000000    Ry      # Default: 50.0 Ry ~ 0.444 Bohr
                                    #         100.0 Ry ~ 0.314 Bohr
MaxSCFIterations      500           # Default: 50
DM.MixingWeight       0.05          # Default: 0.25
DM.NumberPulay        10            # Default: 0
DM.PulayOnFile        F             # SystemLabel.P1, SystemLabel.P2
DM.Tolerance          1.d-4         # Default: 1.d-4
DM.UseSaveDM          .true.        # because of the bug
SCFMustConverge       .true.
NeglNonOverlapInt     F             # Default: F
#(5) Eigenvalue problem: order-N or diagonalization
SolutionMethod        Diagon        # or Transiesta
ElectronicTemperature 300.0 K       # Default: 300.0 K
#(6) Molecular dynamics and relaxations
#MD.TypeOfRun          CG            # Type of dynamics:
#MD.VariableCell       F
#MD.NumCGsteps         0           # 0 for single-point / 100 for gopt
#MD.MaxCGDispl         0.2 Bohr      # Default: 0.2 Bohr
#MD.MaxForceTol        0.02 eV/Ang   # Default: 0.04 eV/Ang
#MD.MaxStressTol       1.0 GPa       # Default: 1.0 GPa
# Geometry Constraints
#%block GeometryConstraints
#	position from 1 to 44
#%endblock GeometryConstraints
BandLinesScale   pi/a
%block BandLines
 1   0.00000000  0.00000000  0.00000000
50   0.00000000  0.07809418  0.00000000
50   0.04509075  0.07809242  0.00000000
20   0.00000000  0.00000000  0.00000000
%endblock BandLines
************************** End of input data file *****************************

reinit: -----------------------------------------------------------------------
reinit: System Name: GRP_doping
reinit: -----------------------------------------------------------------------
reinit: System Label: GRP_doping                                                  
reinit: -----------------------------------------------------------------------

initatom: Reading input for the pseudopotentials and atomic orbitals ----------
 Species number:            1  Label: N Atomic number:           7
 Species number:            2  Label: C Atomic number:           6
Ground state valence configuration:   2s02  2p03
Reading pseudopotential information in formatted form from N.psf

Valence configuration for pseudopotential generation:
2s( 2.00) rc: 1.48
2p( 3.00) rc: 1.48
3d( 0.00) rc: 1.48
4f( 0.00) rc: 1.48
Ground state valence configuration:   2s02  2p02
Reading pseudopotential information in formatted form from C.psf

Valence configuration for pseudopotential generation:
2s( 2.00) rc: 1.54
2p( 2.00) rc: 1.54
3d( 0.00) rc: 1.54
4f( 0.00) rc: 1.54
For N, standard SIESTA heuristics set lmxkb to 3
 (one more than the basis l, including polarization orbitals).
Use PS.lmax or PS.KBprojectors blocks to override.
For C, standard SIESTA heuristics set lmxkb to 3
 (one more than the basis l, including polarization orbitals).
Use PS.lmax or PS.KBprojectors blocks to override.

<basis_specs>
===============================================================================
N                    Z=   7    Mass=  14.010        Charge= 0.17977+309
Lmxo=1 Lmxkb= 3    BasisType=split      Semic=F
L=0  Nsemic=0  Cnfigmx=2
          n=1  nzeta=2  polorb=0
            splnorm:   0.15000    
               vcte:    0.0000    
               rinn:    0.0000    
                rcs:    0.0000      0.0000    
            lambdas:    1.0000      1.0000    
L=1  Nsemic=0  Cnfigmx=2
          n=1  nzeta=2  polorb=1
            splnorm:   0.15000    
               vcte:    0.0000    
               rinn:    0.0000    
                rcs:    0.0000      0.0000    
            lambdas:    1.0000      1.0000    
-------------------------------------------------------------------------------
L=0  Nkbl=1  erefs: 0.17977+309
L=1  Nkbl=1  erefs: 0.17977+309
L=2  Nkbl=1  erefs: 0.17977+309
L=3  Nkbl=1  erefs: 0.17977+309
===============================================================================
</basis_specs>

atom: Called for N                     (Z =   7)

read_vps: Pseudopotential generation method:
read_vps: ATM3      Troullier-Martins                       
Total valence charge:    5.00000

read_vps: Pseudopotential includes a core correction:
read_vps: Pseudo-core for xc-correction

xc_check: Exchange-correlation functional:
xc_check: GGA Perdew, Burke & Ernzerhof 1996
V l=0 = -2*Zval/r beyond r=  1.4606
V l=1 = -2*Zval/r beyond r=  1.4606
V l=2 = -2*Zval/r beyond r=  1.4606
V l=3 = -2*Zval/r beyond r=  1.4606
All V_l potentials equal beyond r=  1.4606
This should be close to max(r_c) in ps generation
All pots = -2*Zval/r beyond r=  1.4606

VLOCAL1: 99.0% of the norm of Vloc inside     20.347 Ry
VLOCAL1: 99.9% of the norm of Vloc inside     46.372 Ry
atom: Maximum radius for 4*pi*r*r*local-pseudopot. charge    1.76189
atom: Maximum radius for r*vlocal+2*Zval:    1.53550
GHOST: No ghost state for L =  0
GHOST: No ghost state for L =  1
GHOST: No ghost state for L =  2
GHOST: No ghost state for L =  3

KBgen: Kleinman-Bylander projectors: 
   l= 0   rc=  1.634559   el= -1.363963   Ekb=  5.296955   kbcos=  0.335621
   l= 1   rc=  1.614250   el= -0.521451   Ekb= -5.259161   kbcos= -0.433408
   l= 2   rc=  1.718383   el=  0.001991   Ekb= -1.271464   kbcos= -0.007566
   l= 3   rc=  1.761893   el=  0.003093   Ekb= -0.494769   kbcos= -0.001015

KBgen: Total number of  Kleinman-Bylander projectors:   16
atom: -------------------------------------------------------------------------

atom: SANKEY-TYPE ORBITALS:
atom: Selected multiple-zeta basis: split     

SPLIT: Orbitals with angular momentum L= 0

SPLIT: Basis orbitals for state 2s

SPLIT: PAO cut-off radius determined from an
SPLIT: energy shift=  0.007350 Ry

   izeta = 1
                 lambda =    1.000000
                     rc =    4.071465
                 energy =   -1.356470
                kinetic =    1.176977
    potential(screened) =   -2.533447
       potential(ionic) =   -8.057990

   izeta = 2
                 rmatch =    2.905100
              splitnorm =    0.150000
                 energy =   -1.158343
                kinetic =    1.813009
    potential(screened) =   -2.971352
       potential(ionic) =   -8.901931

SPLIT: Orbitals with angular momentum L= 1

SPLIT: Basis orbitals for state 2p

SPLIT: PAO cut-off radius determined from an
SPLIT: energy shift=  0.007350 Ry

   izeta = 1
                 lambda =    1.000000
                     rc =    4.972977
                 energy =   -0.513884
                kinetic =    3.441732
    potential(screened) =   -3.955616
       potential(ionic) =   -9.287901

   izeta = 2
                 rmatch =    3.054066
              splitnorm =    0.150000
                 energy =   -0.318226
                kinetic =    5.125348
    potential(screened) =   -5.443573
       potential(ionic) =  -11.380999

POLgen: Perturbative polarization orbital with L=  2

POLgen: Polarization orbital for state 2p

   izeta = 1
                     rc =    4.972977
                 energy =    1.607437
                kinetic =    3.268125
    potential(screened) =   -1.660688
       potential(ionic) =   -5.973652
atom: Total number of Sankey-type orbitals: 13

atm_pop: Valence configuration (for local Pseudopot. screening):
 2s( 2.00)                                                            
 2p( 3.00)                                                            
Vna: chval, zval:    5.00000   5.00000

Vna:  Cut-off radius for the neutral-atom potential:   4.972977
comcore: Pseudo-core radius Rcore=  1.554824

atom: _________________________________________________________________________

<basis_specs>
===============================================================================
C                    Z=   6    Mass=  12.010        Charge= 0.17977+309
Lmxo=1 Lmxkb= 3    BasisType=split      Semic=F
L=0  Nsemic=0  Cnfigmx=2
          n=1  nzeta=2  polorb=0
            splnorm:   0.15000    
               vcte:    0.0000    
               rinn:    0.0000    
                rcs:    0.0000      0.0000    
            lambdas:    1.0000      1.0000    
L=1  Nsemic=0  Cnfigmx=2
          n=1  nzeta=2  polorb=1
            splnorm:   0.15000    
               vcte:    0.0000    
               rinn:    0.0000    
                rcs:    0.0000      0.0000    
            lambdas:    1.0000      1.0000    
-------------------------------------------------------------------------------
L=0  Nkbl=1  erefs: 0.17977+309
L=1  Nkbl=1  erefs: 0.17977+309
L=2  Nkbl=1  erefs: 0.17977+309
L=3  Nkbl=1  erefs: 0.17977+309
===============================================================================
</basis_specs>

atom: Called for C                     (Z =   6)

read_vps: Pseudopotential generation method:
read_vps: ATM3      Troullier-Martins                       
Total valence charge:    4.00000

read_vps: Pseudopotential includes a core correction:
read_vps: Pseudo-core for xc-correction

xc_check: Exchange-correlation functional:
xc_check: GGA Perdew, Burke & Ernzerhof 1996
V l=0 = -2*Zval/r beyond r=  1.5227
V l=1 = -2*Zval/r beyond r=  1.5227
V l=2 = -2*Zval/r beyond r=  1.5227
V l=3 = -2*Zval/r beyond r=  1.5038
All V_l potentials equal beyond r=  1.5227
This should be close to max(r_c) in ps generation
All pots = -2*Zval/r beyond r=  1.5227

VLOCAL1: 99.0% of the norm of Vloc inside     18.722 Ry
VLOCAL1: 99.9% of the norm of Vloc inside     42.668 Ry
atom: Maximum radius for 4*pi*r*r*local-pseudopot. charge    1.83678
atom: Maximum radius for r*vlocal+2*Zval:    1.58088
GHOST: No ghost state for L =  0
GHOST: No ghost state for L =  1
GHOST: No ghost state for L =  2
GHOST: No ghost state for L =  3

KBgen: Kleinman-Bylander projectors: 
   l= 0   rc=  1.704034   el= -1.009801   Ekb=  5.335044   kbcos=  0.316824
   l= 1   rc=  1.704034   el= -0.388707   Ekb= -3.785862   kbcos= -0.366464
   l= 2   rc=  1.791422   el=  0.001971   Ekb= -0.970471   kbcos= -0.009212
   l= 3   rc=  1.859892   el=  0.003065   Ekb= -0.399525   kbcos= -0.001223

KBgen: Total number of  Kleinman-Bylander projectors:   16
atom: -------------------------------------------------------------------------

atom: SANKEY-TYPE ORBITALS:
atom: Selected multiple-zeta basis: split     

SPLIT: Orbitals with angular momentum L= 0

SPLIT: Basis orbitals for state 2s

SPLIT: PAO cut-off radius determined from an
SPLIT: energy shift=  0.007350 Ry

   izeta = 1
                 lambda =    1.000000
                     rc =    4.632753
                 energy =   -1.002270
                kinetic =    0.855760
    potential(screened) =   -1.858031
       potential(ionic) =   -5.417575

   izeta = 2
                 rmatch =    3.431921
              splitnorm =    0.150000
                 energy =   -0.867111
                kinetic =    1.300804
    potential(screened) =   -2.167915
       potential(ionic) =   -5.962684

SPLIT: Orbitals with angular momentum L= 1

SPLIT: Basis orbitals for state 2p

SPLIT: PAO cut-off radius determined from an
SPLIT: energy shift=  0.007350 Ry

   izeta = 1
                 lambda =    1.000000
                     rc =    5.658549
                 energy =   -0.381140
                kinetic =    2.399701
    potential(screened) =   -2.780841
       potential(ionic) =   -6.206085

   izeta = 2
                 rmatch =    3.653288
              splitnorm =    0.150000
                 energy =   -0.249149
                kinetic =    3.542762
    potential(screened) =   -3.791911
       potential(ionic) =   -7.581078

POLgen: Perturbative polarization orbital with L=  2

POLgen: Polarization orbital for state 2p

   izeta = 1
                     rc =    5.658549
                 energy =    1.109913
                kinetic =    2.304789
    potential(screened) =   -1.194876
       potential(ionic) =   -4.013592
atom: Total number of Sankey-type orbitals: 13

atm_pop: Valence configuration (for local Pseudopot. screening):
 2s( 2.00)                                                            
 2p( 2.00)                                                            
Vna: chval, zval:    4.00000   4.00000

Vna:  Cut-off radius for the neutral-atom potential:   5.658549
comcore: Pseudo-core radius Rcore=  1.791422

atom: _________________________________________________________________________

prinput: Basis input ----------------------------------------------------------

PAO.BasisType split     

%block ChemicalSpeciesLabel
    1    7 N                       # Species index, atomic number, species label
    2    6 C                       # Species index, atomic number, species label
%endblock ChemicalSpeciesLabel

%block PAO.Basis                 # Define Basis set
N                     2                    # Species label, number of l-shells
 n=2   0   2                         # n, l, Nzeta 
   4.071      2.905   
   1.000      1.000   
 n=2   1   2 P   1                   # n, l, Nzeta, Polarization, NzetaPol
   4.973      3.054   
   1.000      1.000   
C                     2                    # Species label, number of l-shells
 n=2   0   2                         # n, l, Nzeta 
   4.633      3.432   
   1.000      1.000   
 n=2   1   2 P   1                   # n, l, Nzeta, Polarization, NzetaPol
   5.659      3.653   
   1.000      1.000   
%endblock PAO.Basis

prinput: ----------------------------------------------------------------------

coor:   Atomic-coordinates input format  =     Fractional

siesta: Atomic coordinates (Bohr) and species
siesta:     -2.35420  38.89134   0.00000  1        1
siesta:     -4.68258  34.85847   0.00000  1        2
siesta:     -4.68258  37.54693   0.00000  1        3
siesta:     -0.02582  13.34970   0.00000  1        4
siesta:     -4.68258  10.66124   0.00000  1        5
siesta:     -4.68258  13.34970   0.00000  1        6
siesta:     -2.35420  14.69411   0.00000  1        7
siesta:     -2.35420  17.38257   0.00000  1        8
siesta:     -0.02582  18.72698   0.00000  1        9
siesta:     -4.68258  18.72698   0.00000  1       10
siesta:     -4.68258  21.41544   0.00000  1       11
siesta:     -7.01096  22.75985   0.00000  1       12
siesta:     -7.01096  25.44831   0.00000  1       13
siesta:    -11.66772  22.75985   0.00000  1       14
siesta:    -11.66772  25.44831   0.00000  1       15
siesta:     -9.33934  26.79272   0.00000  1       16
siesta:     -9.33934  29.48119   0.00000  1       17
siesta:     -4.68258  26.79272   0.00000  1       18
siesta:     -7.01096  30.82560   0.00000  1       19
siesta:     -7.01096  33.51406   0.00000  1       20
siesta:     -0.02582   2.59549   0.00000  2       21
siesta:     -0.02582   5.28395   0.00000  2       22
siesta:     -2.35420  41.57980   0.00000  2       23
siesta:      2.30256  38.89134   0.00000  2       24
siesta:      2.30256  41.57980   0.00000  2       25
siesta:      4.63094  34.85847   0.00000  2       26
siesta:      4.63094  37.54693   0.00000  2       27
siesta:      6.95932  30.82560   0.00000  2       28
siesta:      6.95932  33.51406   0.00000  2       29
siesta:      9.28770  26.79272   0.00000  2       30
siesta:      9.28770  29.48119   0.00000  2       31
siesta:      2.30256   6.62836   0.00000  2       32
siesta:      2.30256   9.31683   0.00000  2       33
siesta:      4.63094  10.66124   0.00000  2       34
siesta:      4.63094  13.34970   0.00000  2       35
siesta:      6.95932  14.69411   0.00000  2       36
siesta:      6.95932  17.38257   0.00000  2       37
siesta:      9.28770  18.72698   0.00000  2       38
siesta:      9.28770  21.41544   0.00000  2       39
siesta:     11.61608  22.75985   0.00000  2       40
siesta:     11.61608  25.44831   0.00000  2       41
siesta:     -2.35420   6.62836   0.00000  2       42
siesta:     -2.35420   9.31683   0.00000  2       43
siesta:     -0.02582  10.66124   0.00000  2       44
siesta:      2.30256  14.69411   0.00000  2       45
siesta:      2.30256  17.38257   0.00000  2       46
siesta:      4.63094  18.72698   0.00000  2       47
siesta:      4.63094  21.41544   0.00000  2       48
siesta:      6.95932  22.75985   0.00000  2       49
siesta:      6.95932  25.44831   0.00000  2       50
siesta:     -0.02582  21.41544   0.00000  2       51
siesta:      2.30256  22.75985   0.00000  2       52
siesta:      2.30256  25.44831   0.00000  2       53
siesta:     -7.01096  14.69411   0.00000  2       54
siesta:     -7.01096  17.38257   0.00000  2       55
siesta:     -2.35420  22.75985   0.00000  2       56
siesta:     -2.35420  25.44831   0.00000  2       57
siesta:     -9.33934  18.72698   0.00000  2       58
siesta:     -9.33934  21.41544   0.00000  2       59
siesta:      4.63094  26.79272   0.00000  2       60
siesta:      4.63094  29.48119   0.00000  2       61
siesta:     -0.02582  26.79272   0.00000  2       62
siesta:     -0.02582  29.48119   0.00000  2       63
siesta:     -4.68258  29.48119   0.00000  2       64
siesta:      2.30256  30.82560   0.00000  2       65
siesta:      2.30256  33.51406   0.00000  2       66
siesta:     -2.35420  30.82560   0.00000  2       67
siesta:     -2.35420  33.51406   0.00000  2       68
siesta:     -0.02582  34.85847   0.00000  2       69
siesta:     -0.02582  37.54693   0.00000  2       70
siesta:     -0.02582  42.92421   0.00000  2       71
siesta:     -0.02582  45.61267   0.00000  2       72

siesta: System type = slab      

initatomlists: Number of atoms, orbitals, and projectors:     72   936  1152

siesta: ******************** Simulation parameters ****************************
siesta:
siesta: The following are some of the parameters of the simulation.
siesta: A complete list of the parameters used, including default values,
siesta: can be found in file out.fdf
siesta:
redata: Non-Collinear-spin run           =     F
redata: SpinPolarized (Up/Down) run      =     F
redata: Number of spin components        =     1
redata: Long output                      =     F
redata: Number of Atomic Species         =        2
redata: Charge density info will appear in .RHO file
redata: Write Mulliken Pop.              =     NO
redata: Mesh Cutoff                      =   200.0000  Ry
redata: Net charge of the system         =     0.0000 |e|
redata: Max. number of SCF Iter          =      500
redata: SCF convergence failure will abort job
redata: Performing Pulay mixing using    =    10 iterations
redata: Mix DM in first SCF step ?       =     F
redata: Write Pulay info on disk?        =     F
redata: Discard 1st Pulay DM after  kick =     F
redata: New DM Mixing Weight             =     0.0500
redata: New DM Occupancy tolerance       = 0.000000000001
redata: No kicks to SCF
redata: DM Mixing Weight for Kicks       =     0.5000
redata: DM Tolerance for SCF             =     0.000100
redata: Require Energy convergence for SCF =     F
redata: DM Energy tolerance for SCF      =     0.000100 eV
redata: Require Harris convergence for SCF =     F
redata: DM Harris energy tolerance for SCF =     0.000100 eV
redata: Using Saved Data (generic)   =     F
redata: Use continuation files for DM    =     T
redata: Neglect nonoverlap interactions  =     F
redata: Method of Calculation            =     Diagonalization
redata: Divide and Conquer               =     T
redata: Electronic Temperature           =     0.0019  Ry
redata: Fix the spin of the system       =     F
redata: Dynamics option                  =     Verlet MD run
redata: Initial MD time step             =        1
redata:   Final MD time step             =        1
redata: Length of MD time step           =     1.0000  fs
redata: Initial Temperature of MD run    =     0.0000  K
redata: Perform a MD quench              =     F
redata: ***********************************************************************
Total number of electrons:   308.000000
Total ionic charge:   308.000000

* ProcessorY, Blocksize:    2  24

k-point displ. along   1 input, could be:     0.50    0.00
k-point displ. along   2 input, could be:     0.50    0.00
 Kpoints in:          231 . Kpoints trimmed:          231

siesta: k-grid: Number of k-points =   231
siesta: k-grid: Cutoff (effective) =     5.000 Ang
siesta: k-grid: Supercell and displacements
siesta: k-grid:   21   0   0      0.500
siesta: k-grid:    0  21   0      0.500
siesta: k-grid:    0   0   1      0.000
Naive supercell factors:     2    2    2

superc: Internal auxiliary supercell:     2 x     2 x     2  =       8
superc: Number of atoms, orbitals, and projectors:    576   7488   9216

* Maximum dynamic memory allocated =     4 MB

siesta:                 ==============================
                            Begin MD step =      1
                        ==============================

superc: Internal auxiliary supercell:     2 x     2 x     2  =       8
superc: Number of atoms, orbitals, and projectors:    576   7488   9216

outcell: Unit cell vectors (Ang):
       12.804619    7.392750    0.000000
        0.000000   14.785500    0.000000
        0.000000    0.000000   10.000000

outcell: Cell vector modules (Ang)   :   14.785500   14.785500   10.000000
outcell: Cell angles (23,13,12) (deg):     90.0000     90.0000     60.0000
outcell: Cell volume (Ang**3)        :   1893.2269
New_DM. Step:     1
Initializing Density Matrix...

InitMesh: MESH =   120 x   120 x    90 =     1296000
InitMesh: Mesh cutoff (required, used) =   200.000   223.865 Ry

* Maximum dynamic memory allocated =   182 MB

stepf: Fermi-Dirac step function

siesta: Program's energy decomposition (eV):
siesta: Ebs     =     -6271.322062
siesta: Eions   =     21617.947954
siesta: Ena     =      4930.999325
siesta: Ekin    =      8056.630787
siesta: Enl     =        48.309754
siesta: DEna    =        -0.000015
siesta: DUscf   =         0.000000
siesta: DUext   =         0.000000
siesta: Exc     =     -4674.218734
siesta: eta*DQ  =         0.000000
siesta: Emadel  =         0.000000
siesta: Emeta   =         0.000000
siesta: Emolmec =         0.000000
siesta: Ekinion =         0.000000
siesta: Eharris =    -12882.851546
siesta: Etot    =    -13256.226837
siesta: FreeEng =    -13256.226837

siesta: iscf   Eharris(eV)      E_KS(eV)   FreeEng(eV)   dDmax  Ef(eV)
siesta:    1   -12882.8515   -13256.2268   -13256.2268  6.2955 -6.9927
timer: Routine,Calls,Time,% = IterSCF        1    4056.672  99.72
elaps: Routine,Calls,Wall,% = IterSCF        1     507.653  99.72
siesta:    2   -17716.5099   -12183.6982   -12183.7559 18.6932 -4.6099
siesta:    3   -12831.8066   -13043.8412   -13043.8478  2.3250 -4.7548
siesta:    4   -12790.1017   -12916.6871   -12916.6961  1.3982 -3.8912
siesta:    5   -12739.8719   -12849.4102   -12849.4485  0.9126 -3.9203
siesta:    6   -12736.1231   -12815.8590   -12815.9245  0.8461 -3.7520
siesta:    7   -12731.4549   -12797.8360   -12797.8851  0.8117 -3.6777
siesta:    8   -12726.5416   -12783.1012   -12783.1531  0.7311 -3.6916
siesta:    9   -12723.7345   -12757.9879   -12757.9894  0.5668 -4.0251
siesta:   10   -12722.8370   -12751.1613   -12751.2081  0.5471 -4.0196
siesta:   11   -12722.1774   -12743.6437   -12743.6907  0.4844 -3.9989
siesta:   12   -12722.2681   -12725.7430   -12725.8085  0.3025 -3.9488
siesta:   13   -12722.3685   -12709.2197   -12709.2662  0.1980 -3.8052
siesta:   14   -12721.6988   -12708.9732   -12709.0132  0.3411 -3.8448
siesta:   15   -12721.5058   -12707.6776   -12707.7332  0.2201 -3.8390
siesta:   16   -12721.1232   -12710.9201   -12710.9577  0.1121 -3.9288
siesta:   17   -12720.9776   -12712.5533   -12712.6194  0.1335 -3.9447
siesta:   18   -12720.9595   -12713.8830   -12713.9509  0.1483 -3.9596
siesta:   19   -12720.9126   -12716.2022   -12716.2532  0.0622 -3.9808
siesta:   20   -12720.8946   -12716.3822   -12716.4450  0.0936 -3.9677
siesta:   21   -12720.8827   -12717.8816   -12717.9426  0.0391 -3.9652
siesta:   22   -12720.8801   -12718.9441   -12719.0087  0.0292 -3.9624
siesta:   23   -12720.8803   -12720.1324   -12720.1961  0.0477 -3.9612
siesta:   24   -12720.8679   -12720.8206   -12720.8835  0.0357 -3.9627
siesta:   25   -12720.8685   -12720.6855   -12720.7519  0.0218 -3.9629
siesta:   26   -12720.8666   -12720.6785   -12720.7418  0.0144 -3.9611
siesta:   27   -12720.8658   -12720.5488   -12720.6137  0.0144 -3.9609
siesta:   28   -12720.8658   -12720.5883   -12720.6534  0.0043 -3.9614
siesta:   29   -12720.8657   -12720.6249   -12720.6896  0.0038 -3.9607
siesta:   30   -12720.8658   -12720.7399   -12720.8045  0.0027 -3.9617
siesta:   31   -12720.8658   -12720.7940   -12720.8585  0.0021 -3.9625
siesta:   32   -12720.8657   -12720.8243   -12720.8888  0.0010 -3.9631
siesta:   33   -12720.8657   -12720.8300   -12720.8945  0.0008 -3.9631
siesta:   34   -12720.8657   -12720.8475   -12720.9121  0.0008 -3.9631
siesta:   35   -12720.8657   -12720.8576   -12720.9222  0.0004 -3.9632
siesta:   36   -12720.8657   -12720.8614   -12720.9260  0.0004 -3.9632
siesta:   37   -12720.8657   -12720.8680   -12720.9325  0.0002 -3.9631
siesta:   38   -12720.8657   -12720.8677   -12720.9322  0.0001 -3.9631

siesta: E_KS(eV) =           -12720.8671

siesta: E_KS - E_eggbox =    -12720.8671

siesta: Atomic forces (eV/Ang):
----------------------------------------
   Tot    0.050306   -0.095162    0.000000
----------------------------------------
   Max  755.180468
   Res  176.163581    sqrt( Sum f_i^2 / 3N )
----------------------------------------
   Max  755.180468    constrained

Stress-tensor-Voigt (kbar):     -677.97    -3124.38       -0.07       -5.71        0.00        0.00
(Free)E + p*V (eV/cell)   -11223.2286
Target enthalpy (eV/cell)   -12720.9317

siesta: Stress tensor (static) (eV/Ang**3):
        -0.423148   -0.003563    0.000000
        -0.003563   -1.950063    0.000000
         0.000000    0.000000   -0.000043

siesta: Pressure (static):       1267.47129012  kBar

siesta: Stress tensor (total) (eV/Ang**3):
        -0.423148   -0.003563    0.000000
        -0.003563   -1.950063    0.000000
         0.000000    0.000000   -0.000043

siesta: Pressure (total):       1267.47129012  kBar

siesta: Temp_ion =       0.000 K

* Maximum dynamic memory allocated =   199 MB
Computing bands...

siesta: Program's energy decomposition (eV):
siesta: Ebs     =     -5056.462072
siesta: Eions   =     21617.947954
siesta: Ena     =      4930.999325
siesta: Ekin    =     11131.829269
siesta: Enl     =     -1641.454141
siesta: DEna    =      -784.885611
siesta: DUscf   =       107.333880
siesta: DUext   =         0.000000
siesta: Exc     =     -4846.741853
siesta: eta*DQ  =         0.000000
siesta: Emadel  =         0.000000
siesta: Emeta   =         0.000000
siesta: Emolmec =         0.000000
siesta: Ekinion =         0.000000
siesta: Eharris =    -12720.865680
siesta: Etot    =    -12720.867086
siesta: FreeEng =    -12720.931651

siesta: Final energy (eV):
siesta:  Band Struct. =   -5056.462072
siesta:       Kinetic =   11131.829269
siesta:       Hartree =   35755.546241
siesta:    Ext. field =       0.000000
siesta:   Exch.-corr. =   -4846.741853
siesta:  Ion-electron =  -82186.283928
siesta:       Ion-ion =   27424.783187
siesta:       Ekinion =       0.000000
siesta:         Total =  -12720.867086

siesta: Atomic forces (eV/Ang):
siesta:      1    8.560556  115.526353    0.000000
siesta:      2  -23.520811   -3.556433    0.000000
siesta:      3  -26.387244 -751.603349    0.000000
siesta:      4   -2.642298 -119.781302    0.000000
siesta:      5  -27.300246  755.180468    0.000000
siesta:      6  -31.955359   -0.450678    0.000000
siesta:      7   -0.638537  681.541724    0.000000
siesta:      8  -34.083735  -10.307132    0.000000
siesta:      9   22.511322  681.414946    0.000000
siesta:     10   -2.443915    3.059378    0.000000
siesta:     11    1.845489    1.988564    0.000000
siesta:     12   -0.389403   -0.789050    0.000000
siesta:     13    0.743572    0.496935    0.000000
siesta:     14    2.264382    2.729278    0.000000
siesta:     15    0.785073   -1.726988    0.000000
siesta:     16    0.869840    0.244467    0.000000
siesta:     17   -0.260183    0.199008    0.000000
siesta:     18    0.647916    0.241532    0.000000
siesta:     19    1.511358   -2.208185    0.000000
siesta:     20   -0.416312   -2.681085    0.000000
siesta:     21    0.944519  548.479200    0.000000
siesta:     22   -3.620182 -128.821177    0.000000
siesta:     23  -22.868824 -651.824408    0.000000
siesta:     24    0.265481  122.909532    0.000000
siesta:     25   -3.609362 -543.140753    0.000000
siesta:     26   26.687170    4.164137    0.000000
siesta:     27   33.062482 -547.699320    0.000000
siesta:     28    1.976042    0.120134    0.000000
siesta:     29   -3.110225    2.559380    0.000000
siesta:     30    2.173419    2.617129    0.000000
siesta:     31   -1.527387   -0.231184    0.000000
siesta:     32   14.845272  545.780473    0.000000
siesta:     33   -2.259380 -127.797884    0.000000
siesta:     34   33.781847  548.028552    0.000000
siesta:     35   27.277009   -4.707453    0.000000
siesta:     36   -3.205843   -2.289790    0.000000
siesta:     37    1.532763   -0.037567    0.000000
siesta:     38   -1.553458    0.313835    0.000000
siesta:     39    1.878004   -2.694225    0.000000
siesta:     40    0.021184    7.752059    0.000000
siesta:     41   -0.286548   -7.640812    0.000000
siesta:     42  -35.111325  550.978535    0.000000
siesta:     43    5.081483 -120.882435    0.000000
siesta:     44  -21.158050  539.022329    0.000000
siesta:     45   28.942314  561.248321    0.000000
siesta:     46   26.185391   -7.147367    0.000000
siesta:     47   -1.013115    3.122832    0.000000
siesta:     48    0.500063   -0.524202    0.000000
siesta:     49   -0.241319    0.809523    0.000000
siesta:     50   -0.214025   -0.581572    0.000000
siesta:     51    0.190621   -0.084857    0.000000
siesta:     52   -0.081836   -0.150061    0.000000
siesta:     53   -0.286281   -0.205768    0.000000
siesta:     54    2.370947    0.376869    0.000000
siesta:     55   -1.094723   -1.642343    0.000000
siesta:     56   -2.625052   -2.319629    0.000000
siesta:     57   -1.409542    1.626593    0.000000
siesta:     58   -0.056328    1.697359    0.000000
siesta:     59   -1.753092   -0.845550    0.000000
siesta:     60    0.449861    0.510299    0.000000
siesta:     61   -1.105775   -2.482200    0.000000
siesta:     62   -0.755888   -1.009214    0.000000
siesta:     63   -1.302559 -562.837013    0.000000
siesta:     64   -0.909536   -2.032991    0.000000
siesta:     65   22.489697    6.422985    0.000000
siesta:     66   25.385939 -556.570678    0.000000
siesta:     67  -22.226194    6.370042    0.000000
siesta:     68   -6.064357 -570.904835    0.000000
siesta:     69    0.204635  126.354725    0.000000
siesta:     70    5.081944 -553.621840    0.000000
siesta:     71    3.151688  115.978849    0.000000
siesta:     72  -14.680729 -646.130175    0.000000
siesta: ----------------------------------------
siesta:    Tot    0.050306   -0.095162    0.000000

siesta: Stress tensor (static) (eV/Ang**3):
siesta:    -0.423148   -0.003563    0.000000
siesta:    -0.003563   -1.950063    0.000000
siesta:     0.000000    0.000000   -0.000043

siesta: Cell volume =       1893.226884 Ang**3

siesta: Pressure (static):
siesta:                Solid            Molecule  Units
siesta:           0.00861592          0.13872960  Ry/Bohr**3
siesta:           0.79108481         12.73767978  eV/Ang**3
siesta:        1267.47129012      20408.23350349  kBar
(Free)E+ p_basis*V_orbitals  =      -12693.053305
(Free)Eharris+ p_basis*V_orbitals  =      -12693.051302

siesta: Electric dipole (a.u.)  =    0.000000    0.000000    0.000000
siesta: Electric dipole (Debye) =    0.000000    0.000000    0.000000

* Maximum dynamic memory allocated : Node    0 =   199 MB
* Maximum dynamic memory allocated : Node    1 =    72 MB
* Maximum dynamic memory allocated : Node    2 =    73 MB
* Maximum dynamic memory allocated : Node    3 =   191 MB
* Maximum dynamic memory allocated : Node    4 =   188 MB
* Maximum dynamic memory allocated : Node    5 =    70 MB
* Maximum dynamic memory allocated : Node    6 =    72 MB
* Maximum dynamic memory allocated : Node    7 =   171 MB

* Maximum memory occured during matrixMtoO                    

timer: CPU execution times:
timer:  Routine       Calls   Time/call    Tot.time        %
timer:  siesta            1  152205.171  152205.171   100.00
timer:  Setup             1       3.021       3.021     0.00
timer:  bands             3     268.761     806.283     0.53
timer:  writewave         1       0.021       0.021     0.00
timer:  KSV_init          1       0.001       0.001     0.00
timer:  IterMD            1  151389.996  151389.996    99.46
timer:  hsparse           1       0.232       0.232     0.00
timer:  overlap           1       7.705       7.705     0.01
timer:  IterSCF          38    3979.491  151220.665    99.35
timer:  kinefsm           2       3.955       7.910     0.01
timer:  nlefsm            2      18.400      36.800     0.02
timer:  DHSCF            39      90.795    3541.021     2.33
timer:  DHSCF1            1       0.765       0.765     0.00
timer:  DHSCF2            1      33.117      33.117     0.02
timer:  REORD           314       0.010       3.182     0.00
timer:  POISON           40       2.252      90.097     0.06
timer:  DHSCF3           39      89.108    3475.228     2.28
timer:  rhoofd           39      17.487     682.010     0.45
timer:  cellXC           39       3.462     135.036     0.09
timer:  vmat             39      40.658    1585.658     1.04
timer:  MolMec            2       0.000       0.000     0.00
timer:  diagon           38    3887.417  147721.832    97.05
timer:  c-eigval       8899       6.654   59217.255    38.91
timer:  c-buildHS      8899       0.111     989.884     0.65
timer:  cdiag         17677       6.850  121084.154    79.55
timer:  cdiag1        17677       0.427    7550.143     4.96
timer:  cdiag2        17677       1.904   33663.613    22.12
timer:  cdiag3        17677       3.936   69579.210    45.71
timer:  cdiag4        17677       0.204    3600.512     2.37
timer:  c-eigvec       8778       7.208   63274.940    41.57
timer:  c-buildD       8778       2.961   25987.634    17.07
timer:  DHSCF4            1      29.848      29.848     0.02
timer:  dfscf             1      28.057      28.057     0.02
timer:  overfsm           1       0.404       0.404     0.00
timer:  optical           1       5.119       5.119     0.00
  

elaps: ELAPSED times:
elaps:  Routine       Calls   Time/call    Tot.time        %
elaps:  siesta            1   19045.504   19045.504   100.00
elaps:  Setup             1       0.377       0.377     0.00
elaps:  bands             3      33.646     100.939     0.53
elaps:  writewave         1       0.002       0.002     0.00
elaps:  KSV_init          1       0.000       0.000     0.00
elaps:  IterMD            1   18943.512   18943.512    99.46
elaps:  hsparse           1       0.029       0.029     0.00
elaps:  overlap           1       0.974       0.974     0.01
elaps:  IterSCF          38     497.956   18922.329    99.35
elaps:  kinefsm           2       0.497       0.994     0.01
elaps:  nlefsm            2       2.325       4.651     0.02
elaps:  DHSCF            39      11.457     446.830     2.35
elaps:  DHSCF1            1       0.098       0.098     0.00
elaps:  DHSCF2            1       4.140       4.140     0.02
elaps:  REORD           314       0.001       0.399     0.00
elaps:  POISON           40       0.282      11.297     0.06
elaps:  DHSCF3           39      11.145     434.665     2.28
elaps:  rhoofd           39       4.684     182.677     0.96
elaps:  cellXC           39       0.432      16.859     0.09
elaps:  vmat             39       5.083     198.249     1.04
elaps:  MolMec            2       0.000       0.000     0.00
elaps:  diagon           38     486.435   18484.520    97.05
elaps:  c-eigval       8899       0.833    7409.179    38.90
elaps:  c-buildHS      8899       0.015     134.675     0.71
elaps:  cdiag         17677       0.859   15187.762    79.74
elaps:  cdiag1        17677       0.053     933.871     4.90
elaps:  cdiag2        17677       0.238    4212.269    22.12
elaps:  cdiag3        17677       0.493    8718.091    45.78
elaps:  cdiag4        17677       0.026     457.008     2.40
elaps:  c-eigvec       8778       0.910    7985.737    41.93
elaps:  c-buildD       8778       0.363    3183.772    16.72
elaps:  DHSCF4            1       7.644       7.644     0.04
elaps:  dfscf             1       7.264       7.264     0.04
elaps:  overfsm           1       0.048       0.048     0.00
elaps:  optical           1       0.000       0.000     0.00
  
>> End of run:  28-APR-2016  16:56:39
