Siesta Version:                                        siesta-3.2-pl-3
Architecture  : x86_64-unknown-linux-gnu--unknown
Compiler flags: mpiifort -g -O2 -fPIC -xSSE4.1 -fp-model source -shared-intel 
PARALLEL version

* Running on    8 nodes in parallel
>> Start of run:  25-APR-2016   0:08:49

                           ***********************       
                           *  WELCOME TO SIESTA  *       
                           ***********************       

reinit: Reading from standard input
************************** Dump of input data file ****************************
#(1) General system descriptors
SystemName            GRP_doping    # Descriptive name of the system
SystemLabel           GRP_doping    # Short name for naming files
%include STRUCT.fdf
%include KPT.fdf
%include BASIS.fdf
#%include TS.fdf # for transiesta calculation
#(4) DFT, Grid, SCF
XC.functional         GGA           # LDA or GGA (default = LDA)
XC.authors            PBE           # CA (Ceperley-Aldr) = PZ
                                    #    (Perdew-Zunger) - LDA - Default
                                    # PW92 (Perdew-Wang-92) - LDA
                                    # PBE (Perdew-Burke-Ernzerhof) - GGA
MeshCutoff            200.000000    Ry      # Default: 50.0 Ry ~ 0.444 Bohr
                                    #         100.0 Ry ~ 0.314 Bohr
MaxSCFIterations      500           # Default: 50
DM.MixingWeight       0.05          # Default: 0.25
DM.NumberPulay        10            # Default: 0
DM.PulayOnFile        F             # SystemLabel.P1, SystemLabel.P2
DM.Tolerance          1.d-4         # Default: 1.d-4
DM.UseSaveDM          .true.        # because of the bug
SCFMustConverge       .true.
NeglNonOverlapInt     F             # Default: F
#(5) Eigenvalue problem: order-N or diagonalization
SolutionMethod        Diagon        # or Transiesta
ElectronicTemperature 300.0 K       # Default: 300.0 K
#(6) Molecular dynamics and relaxations
#MD.TypeOfRun          CG            # Type of dynamics:
#MD.VariableCell       F
#MD.NumCGsteps         0           # 0 for single-point / 100 for gopt
#MD.MaxCGDispl         0.2 Bohr      # Default: 0.2 Bohr
#MD.MaxForceTol        0.02 eV/Ang   # Default: 0.04 eV/Ang
#MD.MaxStressTol       1.0 GPa       # Default: 1.0 GPa
# Geometry Constraints
#%block GeometryConstraints
#	position from 1 to 44
#%endblock GeometryConstraints
BandLinesScale   pi/a
%block BandLines
 1   0.00000000  0.00000000  0.00000000
50   0.00000000  0.07809418  0.00000000
50   0.04509075  0.07809242  0.00000000
20   0.00000000  0.00000000  0.00000000
%endblock BandLines
************************** End of input data file *****************************

reinit: -----------------------------------------------------------------------
reinit: System Name: GRP_doping
reinit: -----------------------------------------------------------------------
reinit: System Label: GRP_doping                                                  
reinit: -----------------------------------------------------------------------

initatom: Reading input for the pseudopotentials and atomic orbitals ----------
 Species number:            1  Label: B Atomic number:           5
 Species number:            2  Label: C Atomic number:           6
Ground state valence configuration:   2s02  2p01
Reading pseudopotential information in formatted form from B.psf

Valence configuration for pseudopotential generation:
2s( 2.00) rc: 1.74
2p( 1.00) rc: 1.74
3d( 0.00) rc: 1.74
4f( 0.00) rc: 1.74
Ground state valence configuration:   2s02  2p02
Reading pseudopotential information in formatted form from C.psf

Valence configuration for pseudopotential generation:
2s( 2.00) rc: 1.54
2p( 2.00) rc: 1.54
3d( 0.00) rc: 1.54
4f( 0.00) rc: 1.54
For B, standard SIESTA heuristics set lmxkb to 3
 (one more than the basis l, including polarization orbitals).
Use PS.lmax or PS.KBprojectors blocks to override.
For C, standard SIESTA heuristics set lmxkb to 3
 (one more than the basis l, including polarization orbitals).
Use PS.lmax or PS.KBprojectors blocks to override.

<basis_specs>
===============================================================================
B                    Z=   5    Mass=  10.810        Charge= 0.17977+309
Lmxo=1 Lmxkb= 3    BasisType=split      Semic=F
L=0  Nsemic=0  Cnfigmx=2
          n=1  nzeta=2  polorb=0
            splnorm:   0.15000    
               vcte:    0.0000    
               rinn:    0.0000    
                rcs:    0.0000      0.0000    
            lambdas:    1.0000      1.0000    
L=1  Nsemic=0  Cnfigmx=2
          n=1  nzeta=2  polorb=1
            splnorm:   0.15000    
               vcte:    0.0000    
               rinn:    0.0000    
                rcs:    0.0000      0.0000    
            lambdas:    1.0000      1.0000    
-------------------------------------------------------------------------------
L=0  Nkbl=1  erefs: 0.17977+309
L=1  Nkbl=1  erefs: 0.17977+309
L=2  Nkbl=1  erefs: 0.17977+309
L=3  Nkbl=1  erefs: 0.17977+309
===============================================================================
</basis_specs>

atom: Called for B                     (Z =   5)

read_vps: Pseudopotential generation method:
read_vps: ATM3      Troullier-Martins                       
Total valence charge:    3.00000

read_vps: Pseudopotential includes a core correction:
read_vps: Pseudo-core for xc-correction

xc_check: Exchange-correlation functional:
xc_check: GGA Perdew, Burke & Ernzerhof 1996
V l=0 = -2*Zval/r beyond r=  1.7165
V l=1 = -2*Zval/r beyond r=  1.7165
V l=2 = -2*Zval/r beyond r=  1.7165
V l=3 = -2*Zval/r beyond r=  1.6951
All V_l potentials equal beyond r=  1.7165
This should be close to max(r_c) in ps generation
All pots = -2*Zval/r beyond r=  1.7165

VLOCAL1: 99.0% of the norm of Vloc inside     14.733 Ry
VLOCAL1: 99.9% of the norm of Vloc inside     33.577 Ry
atom: Maximum radius for 4*pi*r*r*local-pseudopot. charge    2.04484
atom: Maximum radius for r*vlocal+2*Zval:    1.75994
GHOST: No ghost state for L =  0
GHOST: No ghost state for L =  1
GHOST: No ghost state for L =  2
GHOST: No ghost state for L =  3

KBgen: Kleinman-Bylander projectors: 
   l= 0   rc=  1.897051   el= -0.693730   Ekb=  4.595746   kbcos=  0.286105
   l= 1   rc=  1.920920   el= -0.265236   Ekb= -2.350715   kbcos= -0.315747
   l= 2   rc=  2.044840   el=  0.002055   Ekb= -0.690767   kbcos= -0.013822
   l= 3   rc=  2.149707   el=  0.003188   Ekb= -0.315358   kbcos= -0.002055

KBgen: Total number of  Kleinman-Bylander projectors:   16
atom: -------------------------------------------------------------------------

atom: SANKEY-TYPE ORBITALS:
atom: Selected multiple-zeta basis: split     

SPLIT: Orbitals with angular momentum L= 0

SPLIT: Basis orbitals for state 2s

SPLIT: PAO cut-off radius determined from an
SPLIT: energy shift=  0.007350 Ry

   izeta = 1
                 lambda =    1.000000
                     rc =    5.422032
                 energy =   -0.686029
                kinetic =    0.576707
    potential(screened) =   -1.262736
       potential(ionic) =   -3.271094

   izeta = 2
                 rmatch =    4.222573
              splitnorm =    0.150000
                 energy =   -0.602132
                kinetic =    0.858975
    potential(screened) =   -1.461107
       potential(ionic) =   -3.582536

SPLIT: Orbitals with angular momentum L= 1

SPLIT: Basis orbitals for state 2p

SPLIT: PAO cut-off radius determined from an
SPLIT: energy shift=  0.007350 Ry

   izeta = 1
                 lambda =    1.000000
                     rc =    6.790259
                 energy =   -0.258578
                kinetic =    1.481412
    potential(screened) =   -1.739989
       potential(ionic) =   -3.657461

   izeta = 2
                 rmatch =    4.608740
              splitnorm =    0.150000
                 energy =   -0.173757
                kinetic =    2.186690
    potential(screened) =   -2.360447
       potential(ionic) =   -4.464260

POLgen: Perturbative polarization orbital with L=  2

POLgen: Polarization orbital for state 2p

   izeta = 1
                     rc =    6.790259
                 energy =    0.684082
                kinetic =    1.471481
    potential(screened) =   -0.787399
       potential(ionic) =   -2.406985
atom: Total number of Sankey-type orbitals: 13

atm_pop: Valence configuration (for local Pseudopot. screening):
 2s( 2.00)                                                            
 2p( 1.00)                                                            
Vna: chval, zval:    3.00000   3.00000

Vna:  Cut-off radius for the neutral-atom potential:   6.790259
comcore: Pseudo-core radius Rcore=  2.122997

atom: _________________________________________________________________________

<basis_specs>
===============================================================================
C                    Z=   6    Mass=  12.010        Charge= 0.17977+309
Lmxo=1 Lmxkb= 3    BasisType=split      Semic=F
L=0  Nsemic=0  Cnfigmx=2
          n=1  nzeta=2  polorb=0
            splnorm:   0.15000    
               vcte:    0.0000    
               rinn:    0.0000    
                rcs:    0.0000      0.0000    
            lambdas:    1.0000      1.0000    
L=1  Nsemic=0  Cnfigmx=2
          n=1  nzeta=2  polorb=1
            splnorm:   0.15000    
               vcte:    0.0000    
               rinn:    0.0000    
                rcs:    0.0000      0.0000    
            lambdas:    1.0000      1.0000    
-------------------------------------------------------------------------------
L=0  Nkbl=1  erefs: 0.17977+309
L=1  Nkbl=1  erefs: 0.17977+309
L=2  Nkbl=1  erefs: 0.17977+309
L=3  Nkbl=1  erefs: 0.17977+309
===============================================================================
</basis_specs>

atom: Called for C                     (Z =   6)

read_vps: Pseudopotential generation method:
read_vps: ATM3      Troullier-Martins                       
Total valence charge:    4.00000

read_vps: Pseudopotential includes a core correction:
read_vps: Pseudo-core for xc-correction

xc_check: Exchange-correlation functional:
xc_check: GGA Perdew, Burke & Ernzerhof 1996
V l=0 = -2*Zval/r beyond r=  1.5227
V l=1 = -2*Zval/r beyond r=  1.5227
V l=2 = -2*Zval/r beyond r=  1.5227
V l=3 = -2*Zval/r beyond r=  1.5038
All V_l potentials equal beyond r=  1.5227
This should be close to max(r_c) in ps generation
All pots = -2*Zval/r beyond r=  1.5227

VLOCAL1: 99.0% of the norm of Vloc inside     18.722 Ry
VLOCAL1: 99.9% of the norm of Vloc inside     42.668 Ry
atom: Maximum radius for 4*pi*r*r*local-pseudopot. charge    1.83678
atom: Maximum radius for r*vlocal+2*Zval:    1.58088
GHOST: No ghost state for L =  0
GHOST: No ghost state for L =  1
GHOST: No ghost state for L =  2
GHOST: No ghost state for L =  3

KBgen: Kleinman-Bylander projectors: 
   l= 0   rc=  1.704034   el= -1.009801   Ekb=  5.335044   kbcos=  0.316824
   l= 1   rc=  1.704034   el= -0.388707   Ekb= -3.785862   kbcos= -0.366464
   l= 2   rc=  1.791422   el=  0.001971   Ekb= -0.970471   kbcos= -0.009212
   l= 3   rc=  1.859892   el=  0.003065   Ekb= -0.399525   kbcos= -0.001223

KBgen: Total number of  Kleinman-Bylander projectors:   16
atom: -------------------------------------------------------------------------

atom: SANKEY-TYPE ORBITALS:
atom: Selected multiple-zeta basis: split     

SPLIT: Orbitals with angular momentum L= 0

SPLIT: Basis orbitals for state 2s

SPLIT: PAO cut-off radius determined from an
SPLIT: energy shift=  0.007350 Ry

   izeta = 1
                 lambda =    1.000000
                     rc =    4.632753
                 energy =   -1.002270
                kinetic =    0.855760
    potential(screened) =   -1.858031
       potential(ionic) =   -5.417575

   izeta = 2
                 rmatch =    3.431921
              splitnorm =    0.150000
                 energy =   -0.867111
                kinetic =    1.300804
    potential(screened) =   -2.167915
       potential(ionic) =   -5.962684

SPLIT: Orbitals with angular momentum L= 1

SPLIT: Basis orbitals for state 2p

SPLIT: PAO cut-off radius determined from an
SPLIT: energy shift=  0.007350 Ry

   izeta = 1
                 lambda =    1.000000
                     rc =    5.658549
                 energy =   -0.381140
                kinetic =    2.399701
    potential(screened) =   -2.780841
       potential(ionic) =   -6.206085

   izeta = 2
                 rmatch =    3.653288
              splitnorm =    0.150000
                 energy =   -0.249149
                kinetic =    3.542762
    potential(screened) =   -3.791911
       potential(ionic) =   -7.581078

POLgen: Perturbative polarization orbital with L=  2

POLgen: Polarization orbital for state 2p

   izeta = 1
                     rc =    5.658549
                 energy =    1.109913
                kinetic =    2.304789
    potential(screened) =   -1.194876
       potential(ionic) =   -4.013592
atom: Total number of Sankey-type orbitals: 13

atm_pop: Valence configuration (for local Pseudopot. screening):
 2s( 2.00)                                                            
 2p( 2.00)                                                            
Vna: chval, zval:    4.00000   4.00000

Vna:  Cut-off radius for the neutral-atom potential:   5.658549
comcore: Pseudo-core radius Rcore=  1.791422

atom: _________________________________________________________________________

prinput: Basis input ----------------------------------------------------------

PAO.BasisType split     

%block ChemicalSpeciesLabel
    1    5 B                       # Species index, atomic number, species label
    2    6 C                       # Species index, atomic number, species label
%endblock ChemicalSpeciesLabel

%block PAO.Basis                 # Define Basis set
B                     2                    # Species label, number of l-shells
 n=2   0   2                         # n, l, Nzeta 
   5.422      4.223   
   1.000      1.000   
 n=2   1   2 P   1                   # n, l, Nzeta, Polarization, NzetaPol
   6.790      4.609   
   1.000      1.000   
C                     2                    # Species label, number of l-shells
 n=2   0   2                         # n, l, Nzeta 
   4.633      3.432   
   1.000      1.000   
 n=2   1   2 P   1                   # n, l, Nzeta, Polarization, NzetaPol
   5.659      3.653   
   1.000      1.000   
%endblock PAO.Basis

prinput: ----------------------------------------------------------------------

coor:   Atomic-coordinates input format  =     Fractional

siesta: Atomic coordinates (Bohr) and species
siesta:     -2.35420  38.89134   0.00000  1        1
siesta:     -2.35420  41.57980   0.00000  1        2
siesta:      2.30256  38.89134   0.00000  1        3
siesta:      2.30256  41.57980   0.00000  1        4
siesta:      4.63094  34.85847   0.00000  1        5
siesta:      4.63094  37.54693   0.00000  1        6
siesta:     -4.68258  10.66124   0.00000  1        7
siesta:     -4.68258  13.34970   0.00000  1        8
siesta:     -2.35420  14.69411   0.00000  1        9
siesta:     -2.35420  17.38257   0.00000  1       10
siesta:     -7.01096  14.69411   0.00000  1       11
siesta:     -7.01096  17.38257   0.00000  1       12
siesta:     -4.68258  18.72698   0.00000  1       13
siesta:     -4.68258  21.41544   0.00000  1       14
siesta:     -2.35420  22.75985   0.00000  1       15
siesta:     -2.35420  25.44831   0.00000  1       16
siesta:     -0.02582  26.79272   0.00000  1       17
siesta:     -0.02582  29.48119   0.00000  1       18
siesta:      2.30256  30.82560   0.00000  1       19
siesta:      2.30256  33.51406   0.00000  1       20
siesta:     -0.02582  37.54693   0.00000  1       21
siesta:     -0.02582  42.92421   0.00000  1       22
siesta:     -0.02582   2.59549   0.00000  2       23
siesta:     -0.02582   5.28395   0.00000  2       24
siesta:      6.95932  30.82560   0.00000  2       25
siesta:      6.95932  33.51406   0.00000  2       26
siesta:      9.28770  26.79272   0.00000  2       27
siesta:      9.28770  29.48119   0.00000  2       28
siesta:     -4.68258  34.85847   0.00000  2       29
siesta:     -4.68258  37.54693   0.00000  2       30
siesta:      2.30256   6.62836   0.00000  2       31
siesta:      2.30256   9.31683   0.00000  2       32
siesta:      4.63094  10.66124   0.00000  2       33
siesta:      4.63094  13.34970   0.00000  2       34
siesta:      6.95932  14.69411   0.00000  2       35
siesta:      6.95932  17.38257   0.00000  2       36
siesta:      9.28770  18.72698   0.00000  2       37
siesta:      9.28770  21.41544   0.00000  2       38
siesta:     11.61608  22.75985   0.00000  2       39
siesta:     11.61608  25.44831   0.00000  2       40
siesta:     -2.35420   6.62836   0.00000  2       41
siesta:     -2.35420   9.31683   0.00000  2       42
siesta:     -0.02582  10.66124   0.00000  2       43
siesta:     -0.02582  13.34970   0.00000  2       44
siesta:      2.30256  14.69411   0.00000  2       45
siesta:      2.30256  17.38257   0.00000  2       46
siesta:      4.63094  18.72698   0.00000  2       47
siesta:      4.63094  21.41544   0.00000  2       48
siesta:      6.95932  22.75985   0.00000  2       49
siesta:      6.95932  25.44831   0.00000  2       50
siesta:     -0.02582  18.72698   0.00000  2       51
siesta:     -0.02582  21.41544   0.00000  2       52
siesta:      2.30256  22.75985   0.00000  2       53
siesta:      2.30256  25.44831   0.00000  2       54
siesta:     -9.33934  18.72698   0.00000  2       55
siesta:     -9.33934  21.41544   0.00000  2       56
siesta:     -7.01096  22.75985   0.00000  2       57
siesta:     -7.01096  25.44831   0.00000  2       58
siesta:    -11.66772  22.75985   0.00000  2       59
siesta:    -11.66772  25.44831   0.00000  2       60
siesta:     -9.33934  26.79272   0.00000  2       61
siesta:     -9.33934  29.48119   0.00000  2       62
siesta:      4.63094  26.79272   0.00000  2       63
siesta:      4.63094  29.48119   0.00000  2       64
siesta:     -4.68258  26.79272   0.00000  2       65
siesta:     -4.68258  29.48119   0.00000  2       66
siesta:     -2.35420  30.82560   0.00000  2       67
siesta:     -2.35420  33.51406   0.00000  2       68
siesta:     -7.01096  30.82560   0.00000  2       69
siesta:     -7.01096  33.51406   0.00000  2       70
siesta:     -0.02582  34.85847   0.00000  2       71
siesta:     -0.02582  45.61267   0.00000  2       72

siesta: System type = slab      

initatomlists: Number of atoms, orbitals, and projectors:     72   936  1152

siesta: ******************** Simulation parameters ****************************
siesta:
siesta: The following are some of the parameters of the simulation.
siesta: A complete list of the parameters used, including default values,
siesta: can be found in file out.fdf
siesta:
redata: Non-Collinear-spin run           =     F
redata: SpinPolarized (Up/Down) run      =     F
redata: Number of spin components        =     1
redata: Long output                      =     F
redata: Number of Atomic Species         =        2
redata: Charge density info will appear in .RHO file
redata: Write Mulliken Pop.              =     NO
redata: Mesh Cutoff                      =   200.0000  Ry
redata: Net charge of the system         =     0.0000 |e|
redata: Max. number of SCF Iter          =      500
redata: SCF convergence failure will abort job
redata: Performing Pulay mixing using    =    10 iterations
redata: Mix DM in first SCF step ?       =     F
redata: Write Pulay info on disk?        =     F
redata: Discard 1st Pulay DM after  kick =     F
redata: New DM Mixing Weight             =     0.0500
redata: New DM Occupancy tolerance       = 0.000000000001
redata: No kicks to SCF
redata: DM Mixing Weight for Kicks       =     0.5000
redata: DM Tolerance for SCF             =     0.000100
redata: Require Energy convergence for SCF =     F
redata: DM Energy tolerance for SCF      =     0.000100 eV
redata: Require Harris convergence for SCF =     F
redata: DM Harris energy tolerance for SCF =     0.000100 eV
redata: Using Saved Data (generic)   =     F
redata: Use continuation files for DM    =     T
redata: Neglect nonoverlap interactions  =     F
redata: Method of Calculation            =     Diagonalization
redata: Divide and Conquer               =     T
redata: Electronic Temperature           =     0.0019  Ry
redata: Fix the spin of the system       =     F
redata: Dynamics option                  =     Verlet MD run
redata: Initial MD time step             =        1
redata:   Final MD time step             =        1
redata: Length of MD time step           =     1.0000  fs
redata: Initial Temperature of MD run    =     0.0000  K
redata: Perform a MD quench              =     F
redata: ***********************************************************************
Total number of electrons:   266.000000
Total ionic charge:   266.000000

* ProcessorY, Blocksize:    2  24

k-point displ. along   1 input, could be:     0.50    0.00
k-point displ. along   2 input, could be:     0.50    0.00
 Kpoints in:          231 . Kpoints trimmed:          231

siesta: k-grid: Number of k-points =   231
siesta: k-grid: Cutoff (effective) =     5.000 Ang
siesta: k-grid: Supercell and displacements
siesta: k-grid:   21   0   0      0.500
siesta: k-grid:    0  21   0      0.500
siesta: k-grid:    0   0   1      0.000
Naive supercell factors:     2    2    2

superc: Internal auxiliary supercell:     2 x     2 x     2  =       8
superc: Number of atoms, orbitals, and projectors:    576   7488   9216

* Maximum dynamic memory allocated =     4 MB

siesta:                 ==============================
                            Begin MD step =      1
                        ==============================

superc: Internal auxiliary supercell:     2 x     2 x     2  =       8
superc: Number of atoms, orbitals, and projectors:    576   7488   9216

outcell: Unit cell vectors (Ang):
       12.804619    7.392750    0.000000
        0.000000   14.785500    0.000000
        0.000000    0.000000   10.000000

outcell: Cell vector modules (Ang)   :   14.785500   14.785500   10.000000
outcell: Cell angles (23,13,12) (deg):     90.0000     90.0000     60.0000
outcell: Cell volume (Ang**3)        :   1893.2269
New_DM. Step:     1
Initializing Density Matrix...

InitMesh: MESH =   120 x   120 x    90 =     1296000
InitMesh: Mesh cutoff (required, used) =   200.000   223.865 Ry

* Maximum dynamic memory allocated =   226 MB

stepf: Fermi-Dirac step function

siesta: Program's energy decomposition (eV):
siesta: Ebs     =     -5440.391495
siesta: Eions   =     15585.763425
siesta: Ena     =      4174.161885
siesta: Ekin    =      5217.942150
siesta: Enl     =       829.775460
siesta: DEna    =        -0.000007
siesta: DUscf   =         0.000000
siesta: DUext   =         0.000000
siesta: Exc     =     -4188.531319
siesta: eta*DQ  =         0.000000
siesta: Emadel  =         0.000000
siesta: Emeta   =         0.000000
siesta: Emolmec =         0.000000
siesta: Ekinion =         0.000000
siesta: Eharris =     -9394.358975
siesta: Etot    =     -9552.415256
siesta: FreeEng =     -9552.415256

siesta: iscf   Eharris(eV)      E_KS(eV)   FreeEng(eV)   dDmax  Ef(eV)
siesta:    1    -9394.3590    -9552.4153    -9552.4153  7.9671 -8.4205
timer: Routine,Calls,Time,% = IterSCF        1    4460.629  99.74
elaps: Routine,Calls,Wall,% = IterSCF        1     558.263  99.74
siesta:    2   -16289.5661    -8352.2974    -8352.3905 18.5907 -8.2758
siesta:    3    -9527.0986    -9362.3856    -9362.4360  1.7525 -5.4875
siesta:    4    -9418.8631    -9313.7007    -9313.7523  1.5334 -5.3418
siesta:    5    -9335.6117    -9265.2219    -9265.2496  1.4515 -5.3048
siesta:    6    -9270.4407    -9233.7390    -9233.7903  1.2774 -5.5714
siesta:    7    -9252.7096    -9215.6074    -9215.6740  1.1960 -5.3980
siesta:    8    -9237.8761    -9201.2992    -9201.3552  0.8926 -5.0729
siesta:    9    -9235.4562    -9196.3931    -9196.4369  0.7260 -5.1550
siesta:   10    -9234.2416    -9196.3489    -9196.4147  0.6148 -5.1238
siesta:   11    -9235.4569    -9202.6900    -9202.7651  0.6180 -5.1127
siesta:   12    -9234.3878    -9203.1051    -9203.1655  0.4750 -5.1490
siesta:   13    -9233.5939    -9207.6399    -9207.6471  0.4894 -5.1096
siesta:   14    -9232.7221    -9212.7573    -9212.8296  0.3180 -5.1201
siesta:   15    -9232.5540    -9216.2527    -9216.3253  0.3233 -5.1250
siesta:   16    -9232.1493    -9220.7363    -9220.8178  0.1795 -5.1542
siesta:   17    -9232.0417    -9225.9616    -9226.0546  0.2639 -5.1711
siesta:   18    -9232.0080    -9227.7760    -9227.8529  0.3548 -5.2246
siesta:   19    -9231.8986    -9228.8698    -9228.9580  0.1635 -5.2339
siesta:   20    -9231.8919    -9232.5097    -9232.5908  0.3761 -5.2566
siesta:   21    -9231.8533    -9232.9341    -9233.0190  0.1722 -5.2664
siesta:   22    -9231.8273    -9233.1643    -9233.2448  0.0778 -5.2368
siesta:   23    -9231.7951    -9233.1435    -9233.2222  0.0549 -5.2348
siesta:   24    -9231.7644    -9233.2360    -9233.3252  0.0635 -5.2189
siesta:   25    -9231.7568    -9233.4168    -9233.5106  0.0511 -5.2258
siesta:   26    -9231.7533    -9233.4173    -9233.5068  0.0554 -5.2251
siesta:   27    -9231.7523    -9232.8634    -9232.9536  0.0182 -5.2196
siesta:   28    -9231.7508    -9232.6531    -9232.7410  0.0274 -5.2191
siesta:   29    -9231.7503    -9232.4795    -9232.5679  0.0165 -5.2165
siesta:   30    -9231.7505    -9232.3740    -9232.4620  0.0077 -5.2156
siesta:   31    -9231.7496    -9232.2175    -9232.3048  0.0064 -5.2131
siesta:   32    -9231.7493    -9232.0838    -9232.1716  0.0034 -5.2141
siesta:   33    -9231.7496    -9232.0073    -9232.0952  0.0038 -5.2148
siesta:   34    -9231.7492    -9231.8835    -9231.9711  0.0038 -5.2142
siesta:   35    -9231.7496    -9231.8206    -9231.9084  0.0022 -5.2142
siesta:   36    -9231.7496    -9231.8142    -9231.9016  0.0015 -5.2145
siesta:   37    -9231.7496    -9231.8061    -9231.8935  0.0011 -5.2148
siesta:   38    -9231.7495    -9231.8035    -9231.8908  0.0008 -5.2150
siesta:   39    -9231.7495    -9231.7984    -9231.8858  0.0004 -5.2152
siesta:   40    -9231.7495    -9231.7906    -9231.8780  0.0011 -5.2153
siesta:   41    -9231.7495    -9231.7674    -9231.8549  0.0004 -5.2152
siesta:   42    -9231.7495    -9231.7624    -9231.8498  0.0001 -5.2152
siesta:   43    -9231.7495    -9231.7602    -9231.8477  0.0001 -5.2152
siesta:   44    -9231.7495    -9231.7554    -9231.8429  0.0002 -5.2151
siesta:   45    -9231.7495    -9231.7535    -9231.8410  0.0001 -5.2151
siesta:   46    -9231.7495    -9231.7529    -9231.8403  0.0001 -5.2151

siesta: E_KS(eV) =            -9231.7519

siesta: E_KS - E_eggbox =     -9231.7519

siesta: Atomic forces (eV/Ang):
----------------------------------------
   Tot   -0.396041   -0.160144    0.000000
----------------------------------------
   Max  568.274399
   Res  126.368208    sqrt( Sum f_i^2 / 3N )
----------------------------------------
   Max  568.274399    constrained

Stress-tensor-Voigt (kbar):     -680.37    -2337.33       -0.65      -10.33        0.00        0.00
(Free)E + p*V (eV/cell)    -8042.9682
Target enthalpy (eV/cell)    -9231.8393

siesta: Stress tensor (static) (eV/Ang**3):
        -0.424646   -0.006447    0.000000
        -0.006447   -1.458828    0.000000
         0.000000    0.000000   -0.000406

siesta: Pressure (static):       1006.11398124  kBar

siesta: Stress tensor (total) (eV/Ang**3):
        -0.424646   -0.006447    0.000000
        -0.006447   -1.458828    0.000000
         0.000000    0.000000   -0.000406

siesta: Pressure (total):       1006.11398124  kBar

siesta: Temp_ion =       0.000 K

* Maximum dynamic memory allocated =   244 MB
Computing bands...

siesta: Program's energy decomposition (eV):
siesta: Ebs     =     -4094.022893
siesta: Eions   =     15585.763425
siesta: Ena     =      4174.161885
siesta: Ekin    =      7926.713288
siesta: Enl     =      -788.987893
siesta: DEna    =      -707.767301
siesta: DUscf   =        93.903906
siesta: DUext   =         0.000000
siesta: Exc     =     -4344.012338
siesta: eta*DQ  =         0.000000
siesta: Emadel  =         0.000000
siesta: Emeta   =         0.000000
siesta: Emolmec =         0.000000
siesta: Ekinion =         0.000000
siesta: Eharris =     -9231.749491
siesta: Etot    =     -9231.751878
siesta: FreeEng =     -9231.839313

siesta: Final energy (eV):
siesta:  Band Struct. =   -4094.022893
siesta:       Kinetic =    7926.713288
siesta:       Hartree =   25124.206132
siesta:    Ext. field =       0.000000
siesta:   Exch.-corr. =   -4344.012338
siesta:  Ion-electron =  -57903.702834
siesta:       Ion-ion =   19965.043874
siesta:       Ekinion =       0.000000
siesta:         Total =   -9231.751878

siesta: Atomic forces (eV/Ang):
siesta:      1    6.847709  107.300381    0.000000
siesta:      2   -5.239913 -290.699273    0.000000
siesta:      3   -3.570076  109.224788    0.000000
siesta:      4    1.349437 -392.868249    0.000000
siesta:      5   19.883674   -3.326167    0.000000
siesta:      6   16.455757 -389.727779    0.000000
siesta:      7  -18.859867  394.106096    0.000000
siesta:      8  -14.456855   -1.954868    0.000000
siesta:      9  -20.680625  293.477961    0.000000
siesta:     10  -13.841318   -2.220288    0.000000
siesta:     11   -3.834326   -2.868038    0.000000
siesta:     12   -8.579664   -0.174286    0.000000
siesta:     13    3.895535   -1.431226    0.000000
siesta:     14   -5.704712    3.241986    0.000000
siesta:     15    6.591050   -4.689038    0.000000
siesta:     16   -5.761194    3.034231    0.000000
siesta:     17    4.115144   -1.766853    0.000000
siesta:     18    1.347748 -410.245850    0.000000
siesta:     19   18.843111   -1.166919    0.000000
siesta:     20   24.181540 -402.338001    0.000000
siesta:     21    4.566882 -392.762389    0.000000
siesta:     22    1.718153  115.237331    0.000000
siesta:     23   -3.359790  406.663222    0.000000
siesta:     24    5.412682 -124.042359    0.000000
siesta:     25    3.398239    0.554635    0.000000
siesta:     26    0.042504    0.444331    0.000000
siesta:     27    2.168990    2.321945    0.000000
siesta:     28   -1.153076    0.034763    0.000000
siesta:     29  -26.181200    0.339911    0.000000
siesta:     30  -31.918569 -400.792887    0.000000
siesta:     31   15.028136  406.725543    0.000000
siesta:     32    7.774113 -117.807212    0.000000
siesta:     33   32.867541  395.450512    0.000000
siesta:     34   23.673667    1.713863    0.000000
siesta:     35   -3.025963   -2.928180    0.000000
siesta:     36    2.186788   -0.190574    0.000000
siesta:     37   -1.169195   -0.161059    0.000000
siesta:     38    2.298230   -2.155095    0.000000
siesta:     39   -0.402122    6.903647    0.000000
siesta:     40    0.596125   -6.532178    0.000000
siesta:     41  -23.176705  551.722436    0.000000
siesta:     42  -11.180800 -118.957732    0.000000
siesta:     43   -3.250063  402.451394    0.000000
siesta:     44   -5.419777 -117.439559    0.000000
siesta:     45   27.123754  405.727540    0.000000
siesta:     46   18.675046   -5.973514    0.000000
siesta:     47   -1.098328    1.562250    0.000000
siesta:     48    0.048143   -0.102336    0.000000
siesta:     49    0.058712    0.887584    0.000000
siesta:     50   -0.269580   -0.915717    0.000000
siesta:     51   -6.545617  568.274399    0.000000
siesta:     52    2.235178   -0.614362    0.000000
siesta:     53    0.596282   -0.618682    0.000000
siesta:     54    2.381294   -0.935978    0.000000
siesta:     55   -0.887994    2.422985    0.000000
siesta:     56   -3.651425   -1.802571    0.000000
siesta:     57   -2.001336    2.577080    0.000000
siesta:     58   -0.662427   -0.781830    0.000000
siesta:     59   -0.250652    6.718533    0.000000
siesta:     60    0.066100   -6.769302    0.000000
siesta:     61   -2.942874    1.697496    0.000000
siesta:     62    1.463885    0.608884    0.000000
siesta:     63    0.456030   -0.759931    0.000000
siesta:     64    0.430666   -1.807391    0.000000
siesta:     65   -1.993554    1.732026    0.000000
siesta:     66    0.973071   -1.996073    0.000000
siesta:     67  -21.967212    3.310685    0.000000
siesta:     68  -26.670288 -555.917788    0.000000
siesta:     69   -2.571083    0.479912    0.000000
siesta:     70    2.778028    2.138454    0.000000
siesta:     71    9.362536  119.597860    0.000000
siesta:     72    9.990660 -550.603272    0.000000
siesta: ----------------------------------------
siesta:    Tot   -0.396041   -0.160144    0.000000

siesta: Stress tensor (static) (eV/Ang**3):
siesta:    -0.424646   -0.006447    0.000000
siesta:    -0.006447   -1.458828    0.000000
siesta:     0.000000    0.000000   -0.000406

siesta: Cell volume =       1893.226884 Ang**3

siesta: Pressure (static):
siesta:                Solid            Molecule  Units
siesta:           0.00683929          0.09475602  Ry/Bohr**3
siesta:           0.62796017          8.70017555  eV/Ang**3
siesta:        1006.11398124      13939.36864585  kBar
(Free)E+ p_basis*V_orbitals  =       -9194.150722
(Free)Eharris+ p_basis*V_orbitals  =       -9194.147303

siesta: Electric dipole (a.u.)  =    0.000000    0.000000    0.000000
siesta: Electric dipole (Debye) =    0.000000    0.000000    0.000000

* Maximum dynamic memory allocated : Node    0 =   244 MB
* Maximum dynamic memory allocated : Node    1 =    86 MB
* Maximum dynamic memory allocated : Node    2 =    88 MB
* Maximum dynamic memory allocated : Node    3 =   231 MB
* Maximum dynamic memory allocated : Node    4 =   230 MB
* Maximum dynamic memory allocated : Node    5 =    83 MB
* Maximum dynamic memory allocated : Node    6 =    86 MB
* Maximum dynamic memory allocated : Node    7 =   212 MB

* Maximum memory occured during matrixMtoO                    

timer: CPU execution times:
timer:  Routine       Calls   Time/call    Tot.time        %
timer:  siesta            1  201891.111  201891.111   100.00
timer:  Setup             1       3.025       3.025     0.00
timer:  bands             3     268.705     806.115     0.40
timer:  writewave         1       0.021       0.021     0.00
timer:  KSV_init          1       0.001       0.001     0.00
timer:  IterMD            1  201076.100  201076.100    99.60
timer:  hsparse           1       0.394       0.394     0.00
timer:  overlap           1       7.792       7.792     0.00
timer:  IterSCF          46    4366.159  200843.305    99.48
timer:  kinefsm           2       4.047       8.093     0.00
timer:  nlefsm            2      21.684      43.369     0.02
timer:  DHSCF            47     123.927    5824.579     2.89
timer:  DHSCF1            1       0.995       0.995     0.00
timer:  DHSCF2            1      45.767      45.767     0.02
timer:  REORD           378       0.010       3.744     0.00
timer:  POISON           48       2.241     107.547     0.05
timer:  DHSCF3           47     121.952    5731.737     2.84
timer:  rhoofd           47      26.253    1233.905     0.61
timer:  cellXC           47       3.505     164.758     0.08
timer:  vmat             47      59.208    2782.779     1.38
timer:  MolMec            2       0.000       0.000     0.00
timer:  diagon           46    4240.973  195084.757    96.63
timer:  c-eigval      10747       6.670   71682.335    35.51
timer:  c-buildHS     10747       0.122    1314.635     0.65
timer:  cdiag         21373       6.905  147591.111    73.10
timer:  cdiag1        21373       0.429    9177.003     4.55
timer:  cdiag2        21373       1.908   40770.813    20.19
timer:  cdiag3        21373       3.933   84054.651    41.63
timer:  cdiag4        21373       0.225    4816.128     2.39
timer:  c-eigvec      10626       7.336   77951.711    38.61
timer:  c-buildD      10626       4.348   46197.852    22.88
timer:  DHSCF4            1      43.662      43.662     0.02
timer:  dfscf             1      40.934      40.934     0.02
timer:  overfsm           1       0.488       0.488     0.00
timer:  optical           1       5.117       5.117     0.00
  

elaps: ELAPSED times:
elaps:  Routine       Calls   Time/call    Tot.time        %
elaps:  siesta            1   25265.826   25265.826   100.00
elaps:  Setup             1       0.377       0.377     0.00
elaps:  bands             3      33.640     100.919     0.40
elaps:  writewave         1       0.002       0.002     0.00
elaps:  KSV_init          1       0.000       0.000     0.00
elaps:  IterMD            1   25163.855   25163.855    99.60
elaps:  hsparse           1       0.050       0.050     0.00
elaps:  overlap           1       0.982       0.982     0.00
elaps:  IterSCF          46     546.407   25134.732    99.48
elaps:  kinefsm           2       0.510       1.020     0.00
elaps:  nlefsm            2       2.770       5.540     0.02
elaps:  DHSCF            47      15.620     734.151     2.91
elaps:  DHSCF1            1       0.128       0.128     0.00
elaps:  DHSCF2            1       5.723       5.723     0.02
elaps:  REORD           378       0.001       0.511     0.00
elaps:  POISON           48       0.281      13.478     0.05
elaps:  DHSCF3           47      15.257     717.065     2.84
elaps:  rhoofd           47       7.078     332.670     1.32
elaps:  cellXC           47       0.438      20.574     0.08
elaps:  vmat             47       7.407     348.108     1.38
elaps:  MolMec            2       0.000       0.000     0.00
elaps:  diagon           46     530.774   24415.602    96.63
elaps:  c-eigval      10747       0.835    8968.819    35.50
elaps:  c-buildHS     10747       0.017     180.657     0.72
elaps:  cdiag         21373       0.849   18144.997    71.82
elaps:  cdiag1        21373       0.053    1133.785     4.49
elaps:  cdiag2        21373       0.239    5101.282    20.19
elaps:  cdiag3        21373       0.493   10531.562    41.68
elaps:  cdiag4        21373       0.029     629.970     2.49
elaps:  c-eigvec      10626       0.893    9486.161    37.55
elaps:  c-buildD      10626       0.570    6052.508    23.96
elaps:  DHSCF4            1      10.899      10.899     0.04
elaps:  dfscf             1      10.368      10.368     0.04
elaps:  overfsm           1       0.064       0.064     0.00
elaps:  optical           1       0.000       0.000     0.00
  
>> End of run:  25-APR-2016   7:09:55
