Siesta Version:                                        siesta-3.2-pl-3
Architecture  : x86_64-unknown-linux-gnu--unknown
Compiler flags: mpiifort -g -O2 -fPIC -xSSE4.1 -fp-model source -shared-intel 
PARALLEL version

* Running on    8 nodes in parallel
>> Start of run:  15-APR-2016  12:43:34

                           ***********************       
                           *  WELCOME TO SIESTA  *       
                           ***********************       

reinit: Reading from standard input
************************** Dump of input data file ****************************
#(1) General system descriptors
SystemName            GRP_doping    # Descriptive name of the system
SystemLabel           GRP_doping    # Short name for naming files
%include STRUCT.fdf
%include KPT.fdf
%include BASIS.fdf
#%include TS.fdf # for transiesta calculation
#(4) DFT, Grid, SCF
XC.functional         GGA           # LDA or GGA (default = LDA)
XC.authors            PBE           # CA (Ceperley-Aldr) = PZ
                                    #    (Perdew-Zunger) - LDA - Default
                                    # PW92 (Perdew-Wang-92) - LDA
                                    # PBE (Perdew-Burke-Ernzerhof) - GGA
MeshCutoff            200.000000    Ry      # Default: 50.0 Ry ~ 0.444 Bohr
                                    #         100.0 Ry ~ 0.314 Bohr
MaxSCFIterations      500           # Default: 50
DM.MixingWeight       0.05          # Default: 0.25
DM.NumberPulay        10            # Default: 0
DM.PulayOnFile        F             # SystemLabel.P1, SystemLabel.P2
DM.Tolerance          1.d-4         # Default: 1.d-4
DM.UseSaveDM          .true.        # because of the bug
SCFMustConverge       .true.
NeglNonOverlapInt     F             # Default: F
#(5) Eigenvalue problem: order-N or diagonalization
SolutionMethod        Diagon        # or Transiesta
ElectronicTemperature 300.0 K       # Default: 300.0 K
#(6) Molecular dynamics and relaxations
#MD.TypeOfRun          CG            # Type of dynamics:
#MD.VariableCell       F
#MD.NumCGsteps         0           # 0 for single-point / 100 for gopt
#MD.MaxCGDispl         0.2 Bohr      # Default: 0.2 Bohr
#MD.MaxForceTol        0.02 eV/Ang   # Default: 0.04 eV/Ang
#MD.MaxStressTol       1.0 GPa       # Default: 1.0 GPa
# Geometry Constraints
#%block GeometryConstraints
#	position from 1 to 44
#%endblock GeometryConstraints
BandLinesScale   pi/a
%block BandLines
 1   0.00000000  0.00000000  0.00000000
50   0.00000000  0.07809418  0.00000000
50   0.04509075  0.07809242  0.00000000
20   0.00000000  0.00000000  0.00000000
%endblock BandLines
************************** End of input data file *****************************

reinit: -----------------------------------------------------------------------
reinit: System Name: GRP_doping
reinit: -----------------------------------------------------------------------
reinit: System Label: GRP_doping                                                  
reinit: -----------------------------------------------------------------------

initatom: Reading input for the pseudopotentials and atomic orbitals ----------
 Species number:            1  Label: N Atomic number:           7
 Species number:            2  Label: C Atomic number:           6
Ground state valence configuration:   2s02  2p03
Reading pseudopotential information in formatted form from N.psf

Valence configuration for pseudopotential generation:
2s( 2.00) rc: 1.48
2p( 3.00) rc: 1.48
3d( 0.00) rc: 1.48
4f( 0.00) rc: 1.48
Ground state valence configuration:   2s02  2p02
Reading pseudopotential information in formatted form from C.psf

Valence configuration for pseudopotential generation:
2s( 2.00) rc: 1.54
2p( 2.00) rc: 1.54
3d( 0.00) rc: 1.54
4f( 0.00) rc: 1.54
For N, standard SIESTA heuristics set lmxkb to 3
 (one more than the basis l, including polarization orbitals).
Use PS.lmax or PS.KBprojectors blocks to override.
For C, standard SIESTA heuristics set lmxkb to 3
 (one more than the basis l, including polarization orbitals).
Use PS.lmax or PS.KBprojectors blocks to override.

<basis_specs>
===============================================================================
N                    Z=   7    Mass=  14.010        Charge= 0.17977+309
Lmxo=1 Lmxkb= 3    BasisType=split      Semic=F
L=0  Nsemic=0  Cnfigmx=2
          n=1  nzeta=2  polorb=0
            splnorm:   0.15000    
               vcte:    0.0000    
               rinn:    0.0000    
                rcs:    0.0000      0.0000    
            lambdas:    1.0000      1.0000    
L=1  Nsemic=0  Cnfigmx=2
          n=1  nzeta=2  polorb=1
            splnorm:   0.15000    
               vcte:    0.0000    
               rinn:    0.0000    
                rcs:    0.0000      0.0000    
            lambdas:    1.0000      1.0000    
-------------------------------------------------------------------------------
L=0  Nkbl=1  erefs: 0.17977+309
L=1  Nkbl=1  erefs: 0.17977+309
L=2  Nkbl=1  erefs: 0.17977+309
L=3  Nkbl=1  erefs: 0.17977+309
===============================================================================
</basis_specs>

atom: Called for N                     (Z =   7)

read_vps: Pseudopotential generation method:
read_vps: ATM3      Troullier-Martins                       
Total valence charge:    5.00000

read_vps: Pseudopotential includes a core correction:
read_vps: Pseudo-core for xc-correction

xc_check: Exchange-correlation functional:
xc_check: GGA Perdew, Burke & Ernzerhof 1996
V l=0 = -2*Zval/r beyond r=  1.4606
V l=1 = -2*Zval/r beyond r=  1.4606
V l=2 = -2*Zval/r beyond r=  1.4606
V l=3 = -2*Zval/r beyond r=  1.4606
All V_l potentials equal beyond r=  1.4606
This should be close to max(r_c) in ps generation
All pots = -2*Zval/r beyond r=  1.4606

VLOCAL1: 99.0% of the norm of Vloc inside     20.347 Ry
VLOCAL1: 99.9% of the norm of Vloc inside     46.372 Ry
atom: Maximum radius for 4*pi*r*r*local-pseudopot. charge    1.76189
atom: Maximum radius for r*vlocal+2*Zval:    1.53550
GHOST: No ghost state for L =  0
GHOST: No ghost state for L =  1
GHOST: No ghost state for L =  2
GHOST: No ghost state for L =  3

KBgen: Kleinman-Bylander projectors: 
   l= 0   rc=  1.634559   el= -1.363963   Ekb=  5.296955   kbcos=  0.335621
   l= 1   rc=  1.614250   el= -0.521451   Ekb= -5.259161   kbcos= -0.433408
   l= 2   rc=  1.718383   el=  0.001991   Ekb= -1.271464   kbcos= -0.007566
   l= 3   rc=  1.761893   el=  0.003093   Ekb= -0.494769   kbcos= -0.001015

KBgen: Total number of  Kleinman-Bylander projectors:   16
atom: -------------------------------------------------------------------------

atom: SANKEY-TYPE ORBITALS:
atom: Selected multiple-zeta basis: split     

SPLIT: Orbitals with angular momentum L= 0

SPLIT: Basis orbitals for state 2s

SPLIT: PAO cut-off radius determined from an
SPLIT: energy shift=  0.007350 Ry

   izeta = 1
                 lambda =    1.000000
                     rc =    4.071465
                 energy =   -1.356470
                kinetic =    1.176977
    potential(screened) =   -2.533447
       potential(ionic) =   -8.057990

   izeta = 2
                 rmatch =    2.905100
              splitnorm =    0.150000
                 energy =   -1.158343
                kinetic =    1.813009
    potential(screened) =   -2.971352
       potential(ionic) =   -8.901931

SPLIT: Orbitals with angular momentum L= 1

SPLIT: Basis orbitals for state 2p

SPLIT: PAO cut-off radius determined from an
SPLIT: energy shift=  0.007350 Ry

   izeta = 1
                 lambda =    1.000000
                     rc =    4.972977
                 energy =   -0.513884
                kinetic =    3.441732
    potential(screened) =   -3.955616
       potential(ionic) =   -9.287901

   izeta = 2
                 rmatch =    3.054066
              splitnorm =    0.150000
                 energy =   -0.318226
                kinetic =    5.125348
    potential(screened) =   -5.443573
       potential(ionic) =  -11.380999

POLgen: Perturbative polarization orbital with L=  2

POLgen: Polarization orbital for state 2p

   izeta = 1
                     rc =    4.972977
                 energy =    1.607437
                kinetic =    3.268125
    potential(screened) =   -1.660688
       potential(ionic) =   -5.973652
atom: Total number of Sankey-type orbitals: 13

atm_pop: Valence configuration (for local Pseudopot. screening):
 2s( 2.00)                                                            
 2p( 3.00)                                                            
Vna: chval, zval:    5.00000   5.00000

Vna:  Cut-off radius for the neutral-atom potential:   4.972977
comcore: Pseudo-core radius Rcore=  1.554824

atom: _________________________________________________________________________

<basis_specs>
===============================================================================
C                    Z=   6    Mass=  12.010        Charge= 0.17977+309
Lmxo=1 Lmxkb= 3    BasisType=split      Semic=F
L=0  Nsemic=0  Cnfigmx=2
          n=1  nzeta=2  polorb=0
            splnorm:   0.15000    
               vcte:    0.0000    
               rinn:    0.0000    
                rcs:    0.0000      0.0000    
            lambdas:    1.0000      1.0000    
L=1  Nsemic=0  Cnfigmx=2
          n=1  nzeta=2  polorb=1
            splnorm:   0.15000    
               vcte:    0.0000    
               rinn:    0.0000    
                rcs:    0.0000      0.0000    
            lambdas:    1.0000      1.0000    
-------------------------------------------------------------------------------
L=0  Nkbl=1  erefs: 0.17977+309
L=1  Nkbl=1  erefs: 0.17977+309
L=2  Nkbl=1  erefs: 0.17977+309
L=3  Nkbl=1  erefs: 0.17977+309
===============================================================================
</basis_specs>

atom: Called for C                     (Z =   6)

read_vps: Pseudopotential generation method:
read_vps: ATM3      Troullier-Martins                       
Total valence charge:    4.00000

read_vps: Pseudopotential includes a core correction:
read_vps: Pseudo-core for xc-correction

xc_check: Exchange-correlation functional:
xc_check: GGA Perdew, Burke & Ernzerhof 1996
V l=0 = -2*Zval/r beyond r=  1.5227
V l=1 = -2*Zval/r beyond r=  1.5227
V l=2 = -2*Zval/r beyond r=  1.5227
V l=3 = -2*Zval/r beyond r=  1.5038
All V_l potentials equal beyond r=  1.5227
This should be close to max(r_c) in ps generation
All pots = -2*Zval/r beyond r=  1.5227

VLOCAL1: 99.0% of the norm of Vloc inside     18.722 Ry
VLOCAL1: 99.9% of the norm of Vloc inside     42.668 Ry
atom: Maximum radius for 4*pi*r*r*local-pseudopot. charge    1.83678
atom: Maximum radius for r*vlocal+2*Zval:    1.58088
GHOST: No ghost state for L =  0
GHOST: No ghost state for L =  1
GHOST: No ghost state for L =  2
GHOST: No ghost state for L =  3

KBgen: Kleinman-Bylander projectors: 
   l= 0   rc=  1.704034   el= -1.009801   Ekb=  5.335044   kbcos=  0.316824
   l= 1   rc=  1.704034   el= -0.388707   Ekb= -3.785862   kbcos= -0.366464
   l= 2   rc=  1.791422   el=  0.001971   Ekb= -0.970471   kbcos= -0.009212
   l= 3   rc=  1.859892   el=  0.003065   Ekb= -0.399525   kbcos= -0.001223

KBgen: Total number of  Kleinman-Bylander projectors:   16
atom: -------------------------------------------------------------------------

atom: SANKEY-TYPE ORBITALS:
atom: Selected multiple-zeta basis: split     

SPLIT: Orbitals with angular momentum L= 0

SPLIT: Basis orbitals for state 2s

SPLIT: PAO cut-off radius determined from an
SPLIT: energy shift=  0.007350 Ry

   izeta = 1
                 lambda =    1.000000
                     rc =    4.632753
                 energy =   -1.002270
                kinetic =    0.855760
    potential(screened) =   -1.858031
       potential(ionic) =   -5.417575

   izeta = 2
                 rmatch =    3.431921
              splitnorm =    0.150000
                 energy =   -0.867111
                kinetic =    1.300804
    potential(screened) =   -2.167915
       potential(ionic) =   -5.962684

SPLIT: Orbitals with angular momentum L= 1

SPLIT: Basis orbitals for state 2p

SPLIT: PAO cut-off radius determined from an
SPLIT: energy shift=  0.007350 Ry

   izeta = 1
                 lambda =    1.000000
                     rc =    5.658549
                 energy =   -0.381140
                kinetic =    2.399701
    potential(screened) =   -2.780841
       potential(ionic) =   -6.206085

   izeta = 2
                 rmatch =    3.653288
              splitnorm =    0.150000
                 energy =   -0.249149
                kinetic =    3.542762
    potential(screened) =   -3.791911
       potential(ionic) =   -7.581078

POLgen: Perturbative polarization orbital with L=  2

POLgen: Polarization orbital for state 2p

   izeta = 1
                     rc =    5.658549
                 energy =    1.109913
                kinetic =    2.304789
    potential(screened) =   -1.194876
       potential(ionic) =   -4.013592
atom: Total number of Sankey-type orbitals: 13

atm_pop: Valence configuration (for local Pseudopot. screening):
 2s( 2.00)                                                            
 2p( 2.00)                                                            
Vna: chval, zval:    4.00000   4.00000

Vna:  Cut-off radius for the neutral-atom potential:   5.658549
comcore: Pseudo-core radius Rcore=  1.791422

atom: _________________________________________________________________________

prinput: Basis input ----------------------------------------------------------

PAO.BasisType split     

%block ChemicalSpeciesLabel
    1    7 N                       # Species index, atomic number, species label
    2    6 C                       # Species index, atomic number, species label
%endblock ChemicalSpeciesLabel

%block PAO.Basis                 # Define Basis set
N                     2                    # Species label, number of l-shells
 n=2   0   2                         # n, l, Nzeta 
   4.071      2.905   
   1.000      1.000   
 n=2   1   2 P   1                   # n, l, Nzeta, Polarization, NzetaPol
   4.973      3.054   
   1.000      1.000   
C                     2                    # Species label, number of l-shells
 n=2   0   2                         # n, l, Nzeta 
   4.633      3.432   
   1.000      1.000   
 n=2   1   2 P   1                   # n, l, Nzeta, Polarization, NzetaPol
   5.659      3.653   
   1.000      1.000   
%endblock PAO.Basis

prinput: ----------------------------------------------------------------------

coor:   Atomic-coordinates input format  =     Fractional

siesta: Atomic coordinates (Bohr) and species
siesta:     -0.02582   2.59549   0.00000  1        1
siesta:      9.28770  18.72698   0.00000  1        2
siesta:     -4.68258  10.66124   0.00000  1        3
siesta:     -0.02582  21.41544   0.00000  1        4
siesta:     -9.33934  18.72698   0.00000  1        5
siesta:      4.63094  26.79272   0.00000  1        6
siesta:     -0.02582  34.85847   0.00000  1        7
siesta:     -0.02582   5.28395   0.00000  2        8
siesta:     -2.35420  38.89134   0.00000  2        9
siesta:     -2.35420  41.57980   0.00000  2       10
siesta:      2.30256  38.89134   0.00000  2       11
siesta:      2.30256  41.57980   0.00000  2       12
siesta:      4.63094  34.85847   0.00000  2       13
siesta:      4.63094  37.54693   0.00000  2       14
siesta:      6.95932  30.82560   0.00000  2       15
siesta:      6.95932  33.51406   0.00000  2       16
siesta:      9.28770  26.79272   0.00000  2       17
siesta:      9.28770  29.48119   0.00000  2       18
siesta:     -4.68258  34.85847   0.00000  2       19
siesta:     -4.68258  37.54693   0.00000  2       20
siesta:      2.30256   6.62836   0.00000  2       21
siesta:      2.30256   9.31683   0.00000  2       22
siesta:      4.63094  10.66124   0.00000  2       23
siesta:      4.63094  13.34970   0.00000  2       24
siesta:      6.95932  14.69411   0.00000  2       25
siesta:      6.95932  17.38257   0.00000  2       26
siesta:      9.28770  21.41544   0.00000  2       27
siesta:     11.61608  22.75985   0.00000  2       28
siesta:     11.61608  25.44831   0.00000  2       29
siesta:     -2.35420   6.62836   0.00000  2       30
siesta:     -2.35420   9.31683   0.00000  2       31
siesta:     -0.02582  10.66124   0.00000  2       32
siesta:     -0.02582  13.34970   0.00000  2       33
siesta:      2.30256  14.69411   0.00000  2       34
siesta:      2.30256  17.38257   0.00000  2       35
siesta:      4.63094  18.72698   0.00000  2       36
siesta:      4.63094  21.41544   0.00000  2       37
siesta:      6.95932  22.75985   0.00000  2       38
siesta:      6.95932  25.44831   0.00000  2       39
siesta:     -4.68258  13.34970   0.00000  2       40
siesta:     -2.35420  14.69411   0.00000  2       41
siesta:     -2.35420  17.38257   0.00000  2       42
siesta:     -0.02582  18.72698   0.00000  2       43
siesta:      2.30256  22.75985   0.00000  2       44
siesta:      2.30256  25.44831   0.00000  2       45
siesta:     -7.01096  14.69411   0.00000  2       46
siesta:     -7.01096  17.38257   0.00000  2       47
siesta:     -4.68258  18.72698   0.00000  2       48
siesta:     -4.68258  21.41544   0.00000  2       49
siesta:     -2.35420  22.75985   0.00000  2       50
siesta:     -2.35420  25.44831   0.00000  2       51
siesta:     -9.33934  21.41544   0.00000  2       52
siesta:     -7.01096  22.75985   0.00000  2       53
siesta:     -7.01096  25.44831   0.00000  2       54
siesta:    -11.66772  22.75985   0.00000  2       55
siesta:    -11.66772  25.44831   0.00000  2       56
siesta:     -9.33934  26.79272   0.00000  2       57
siesta:     -9.33934  29.48119   0.00000  2       58
siesta:      4.63094  29.48119   0.00000  2       59
siesta:     -0.02582  26.79272   0.00000  2       60
siesta:     -0.02582  29.48119   0.00000  2       61
siesta:     -4.68258  26.79272   0.00000  2       62
siesta:     -4.68258  29.48119   0.00000  2       63
siesta:      2.30256  30.82560   0.00000  2       64
siesta:      2.30256  33.51406   0.00000  2       65
siesta:     -2.35420  30.82560   0.00000  2       66
siesta:     -2.35420  33.51406   0.00000  2       67
siesta:     -7.01096  30.82560   0.00000  2       68
siesta:     -7.01096  33.51406   0.00000  2       69
siesta:     -0.02582  37.54693   0.00000  2       70
siesta:     -0.02582  42.92421   0.00000  2       71
siesta:     -0.02582  45.61267   0.00000  2       72

siesta: System type = slab      

initatomlists: Number of atoms, orbitals, and projectors:     72   936  1152

siesta: ******************** Simulation parameters ****************************
siesta:
siesta: The following are some of the parameters of the simulation.
siesta: A complete list of the parameters used, including default values,
siesta: can be found in file out.fdf
siesta:
redata: Non-Collinear-spin run           =     F
redata: SpinPolarized (Up/Down) run      =     F
redata: Number of spin components        =     1
redata: Long output                      =     F
redata: Number of Atomic Species         =        2
redata: Charge density info will appear in .RHO file
redata: Write Mulliken Pop.              =     NO
redata: Mesh Cutoff                      =   200.0000  Ry
redata: Net charge of the system         =     0.0000 |e|
redata: Max. number of SCF Iter          =      500
redata: SCF convergence failure will abort job
redata: Performing Pulay mixing using    =    10 iterations
redata: Mix DM in first SCF step ?       =     F
redata: Write Pulay info on disk?        =     F
redata: Discard 1st Pulay DM after  kick =     F
redata: New DM Mixing Weight             =     0.0500
redata: New DM Occupancy tolerance       = 0.000000000001
redata: No kicks to SCF
redata: DM Mixing Weight for Kicks       =     0.5000
redata: DM Tolerance for SCF             =     0.000100
redata: Require Energy convergence for SCF =     F
redata: DM Energy tolerance for SCF      =     0.000100 eV
redata: Require Harris convergence for SCF =     F
redata: DM Harris energy tolerance for SCF =     0.000100 eV
redata: Using Saved Data (generic)   =     F
redata: Use continuation files for DM    =     T
redata: Neglect nonoverlap interactions  =     F
redata: Method of Calculation            =     Diagonalization
redata: Divide and Conquer               =     T
redata: Electronic Temperature           =     0.0019  Ry
redata: Fix the spin of the system       =     F
redata: Dynamics option                  =     Verlet MD run
redata: Initial MD time step             =        1
redata:   Final MD time step             =        1
redata: Length of MD time step           =     1.0000  fs
redata: Initial Temperature of MD run    =     0.0000  K
redata: Perform a MD quench              =     F
redata: ***********************************************************************
Total number of electrons:   295.000000
Total ionic charge:   295.000000

* ProcessorY, Blocksize:    2  24

k-point displ. along   1 input, could be:     0.50    0.00
k-point displ. along   2 input, could be:     0.50    0.00
 Kpoints in:          231 . Kpoints trimmed:          231

siesta: k-grid: Number of k-points =   231
siesta: k-grid: Cutoff (effective) =     5.000 Ang
siesta: k-grid: Supercell and displacements
siesta: k-grid:   21   0   0      0.500
siesta: k-grid:    0  21   0      0.500
siesta: k-grid:    0   0   1      0.000
Naive supercell factors:     2    2    2

superc: Internal auxiliary supercell:     2 x     2 x     2  =       8
superc: Number of atoms, orbitals, and projectors:    576   7488   9216

* Maximum dynamic memory allocated =     4 MB

siesta:                 ==============================
                            Begin MD step =      1
                        ==============================

superc: Internal auxiliary supercell:     2 x     2 x     2  =       8
superc: Number of atoms, orbitals, and projectors:    576   7488   9216

outcell: Unit cell vectors (Ang):
       12.804619    7.392750    0.000000
        0.000000   14.785500    0.000000
        0.000000    0.000000   10.000000

outcell: Cell vector modules (Ang)   :   14.785500   14.785500   10.000000
outcell: Cell angles (23,13,12) (deg):     90.0000     90.0000     60.0000
outcell: Cell volume (Ang**3)        :   1893.2269
New_DM. Step:     1
Initializing Density Matrix...

iodm: Reading Density Matrix from files

InitMesh: MESH =   120 x   120 x    90 =     1296000
InitMesh: Mesh cutoff (required, used) =   200.000   223.865 Ry

* Maximum dynamic memory allocated =   194 MB

stepf: Fermi-Dirac step function

siesta: Program's energy decomposition (eV):
siesta: Ebs     =     -4714.152258
siesta: Eions   =     19528.238980
siesta: Ena     =      4791.893436
siesta: Ekin    =      9315.459637
siesta: Enl     =      -708.742898
siesta: DEna    =      -771.293741
siesta: DUscf   =        91.477435
siesta: DUext   =         0.000000
siesta: Exc     =     -4501.030990
siesta: eta*DQ  =         0.000000
siesta: Emadel  =         0.000000
siesta: Emeta   =         0.000000
siesta: Emolmec =         0.000000
siesta: Ekinion =         0.000000
siesta: Eharris =    -11238.722154
siesta: Etot    =    -11310.476101
siesta: FreeEng =    -11310.476101

siesta: iscf   Eharris(eV)      E_KS(eV)   FreeEng(eV)   dDmax  Ef(eV)
siesta:    1   -11238.7222   -11310.4761   -11310.4761  0.9843 -4.0580
timer: Routine,Calls,Time,% = IterSCF        1    3410.365  99.69
elaps: Routine,Calls,Wall,% = IterSCF        1     427.118  99.69
siesta:    2   -13311.8229   -11012.1537   -11012.2060 13.4808 -6.5466
siesta:    3   -11218.8440   -11302.4904   -11302.5373  0.7825 -4.3086
siesta:    4   -11213.6129   -11295.7700   -11295.7836  0.7327 -4.3203
siesta:    5   -11211.6943   -11279.3106   -11279.3219  0.6912 -4.4324
siesta:    6   -11209.5250   -11271.6021   -11271.6312  0.6157 -4.4583
siesta:    7   -11210.0099   -11249.4575   -11249.5074  0.4998 -4.4129
siesta:    8   -11210.9819   -11215.7486   -11215.8231  0.3866 -4.2093
siesta:    9   -11210.1808   -11208.5656   -11208.6303  0.2264 -4.2216
siesta:   10   -11209.1732   -11202.2280   -11202.3020  0.4226 -4.2228
siesta:   11   -11208.6385   -11201.2134   -11201.2446  0.1645 -4.2307
siesta:   12   -11208.2636   -11199.2903   -11199.3472  0.1618 -4.2247
siesta:   13   -11208.1692   -11198.9509   -11199.0091  0.1434 -4.2158
siesta:   14   -11208.1598   -11200.4218   -11200.4794  0.1091 -4.2282
siesta:   15   -11208.1292   -11201.4321   -11201.4959  0.0858 -4.2489
siesta:   16   -11208.1068   -11202.8128   -11202.8698  0.0461 -4.2621
siesta:   17   -11208.1032   -11204.2254   -11204.2882  0.0323 -4.2546
siesta:   18   -11208.0936   -11204.7826   -11204.8432  0.0356 -4.2539
siesta:   19   -11208.0873   -11205.3998   -11205.4625  0.0212 -4.2524
siesta:   20   -11208.0816   -11206.3315   -11206.3942  0.0072 -4.2513
siesta:   21   -11208.0810   -11206.7774   -11206.8428  0.0112 -4.2528
siesta:   22   -11208.0804   -11207.4943   -11207.5593  0.0154 -4.2526
siesta:   23   -11208.0811   -11207.7456   -11207.8110  0.0068 -4.2503
siesta:   24   -11208.0811   -11208.0374   -11208.1018  0.0021 -4.2486
siesta:   25   -11208.0811   -11208.0438   -11208.1081  0.0015 -4.2483
siesta:   26   -11208.0809   -11208.0518   -11208.1160  0.0016 -4.2483
siesta:   27   -11208.0811   -11208.0640   -11208.1284  0.0007 -4.2481
siesta:   28   -11208.0810   -11208.0677   -11208.1319  0.0014 -4.2484
siesta:   29   -11208.0810   -11208.0765   -11208.1408  0.0011 -4.2485
siesta:   30   -11208.0810   -11208.0797   -11208.1440  0.0006 -4.2487
siesta:   31   -11208.0810   -11208.0795   -11208.1438  0.0002 -4.2486
siesta:   32   -11208.0810   -11208.0824   -11208.1467  0.0002 -4.2486
siesta:   33   -11208.0810   -11208.0896   -11208.1539  0.0001 -4.2485
siesta:   34   -11208.0810   -11208.0805   -11208.1447  0.0001 -4.2486

siesta: E_KS(eV) =           -11208.0806

siesta: E_KS - E_eggbox =    -11208.0806

siesta: Atomic forces (eV/Ang):
----------------------------------------
   Tot   -0.393467    0.059909    0.000000
----------------------------------------
   Max  676.703612
   Res  168.664318    sqrt( Sum f_i^2 / 3N )
----------------------------------------
   Max  676.703612    constrained

Stress-tensor-Voigt (kbar):     -688.24    -2945.76       -0.17        0.55        0.00        0.00
(Free)E + p*V (eV/cell)    -9776.7069
Target enthalpy (eV/cell)   -11208.1449

siesta: Stress tensor (static) (eV/Ang**3):
        -0.429563    0.000345    0.000000
         0.000345   -1.838582    0.000000
         0.000000    0.000000   -0.000107

siesta: Pressure (static):       1211.39272020  kBar

siesta: Stress tensor (total) (eV/Ang**3):
        -0.429563    0.000345    0.000000
         0.000345   -1.838582    0.000000
         0.000000    0.000000   -0.000107

siesta: Pressure (total):       1211.39272020  kBar

siesta: Temp_ion =       0.000 K

* Maximum dynamic memory allocated =   211 MB
Computing bands...

siesta: Program's energy decomposition (eV):
siesta: Ebs     =     -4781.789483
siesta: Eions   =     19528.238980
siesta: Ena     =      4791.893436
siesta: Ekin    =      9995.624051
siesta: Enl     =     -1275.813668
siesta: DEna    =      -777.655864
siesta: DUscf   =       102.604728
siesta: DUext   =         0.000000
siesta: Exc     =     -4516.494304
siesta: eta*DQ  =         0.000000
siesta: Emadel  =         0.000000
siesta: Emeta   =         0.000000
siesta: Emolmec =         0.000000
siesta: Ekinion =         0.000000
siesta: Eharris =    -11208.081031
siesta: Etot    =    -11208.080602
siesta: FreeEng =    -11208.144863

siesta: Final energy (eV):
siesta:  Band Struct. =   -4781.789483
siesta:       Kinetic =    9995.624051
siesta:       Hartree =   32495.630032
siesta:    Ext. field =       0.000000
siesta:   Exch.-corr. =   -4516.494304
siesta:  Ion-electron =  -74641.950160
siesta:       Ion-ion =   25459.109779
siesta:       Ekinion =       0.000000
siesta:         Total =  -11208.080602

siesta: Atomic forces (eV/Ang):
siesta:      1    1.290687  648.358366    0.000000
siesta:      2   -1.761665    0.555893    0.000000
siesta:      3  -39.147286  653.302007    0.000000
siesta:      4    0.093128   -1.096262    0.000000
siesta:      5    1.607903    0.584686    0.000000
siesta:      6    0.298809   -0.115352    0.000000
siesta:      7   -0.202315  122.191394    0.000000
siesta:      8   -0.158970 -116.626615    0.000000
siesta:      9    3.241639  129.919914    0.000000
siesta:     10  -21.267596 -550.799406    0.000000
siesta:     11   -0.863829  128.400137    0.000000
siesta:     12   17.814033 -548.541778    0.000000
siesta:     13   27.415134    6.542405    0.000000
siesta:     14   34.374117 -549.122326    0.000000
siesta:     15    1.209362   -0.191624    0.000000
siesta:     16   -2.857514    1.848048    0.000000
siesta:     17    1.352986    2.528815    0.000000
siesta:     18   -1.128029   -0.085472    0.000000
siesta:     19  -26.701859    6.495044    0.000000
siesta:     20  -31.314076 -651.974932    0.000000
siesta:     21    5.186862  548.151850    0.000000
siesta:     22   -0.621882 -125.775473    0.000000
siesta:     23   33.787509  548.919234    0.000000
siesta:     24   26.559808   -6.304329    0.000000
siesta:     25   -2.263132   -1.707302    0.000000
siesta:     26    2.415915    1.832025    0.000000
siesta:     27    1.159276   -4.108040    0.000000
siesta:     28   -0.380692    6.869086    0.000000
siesta:     29   -0.138972   -7.870110    0.000000
siesta:     30   -5.535841  548.087981    0.000000
siesta:     31    6.093628 -130.672834    0.000000
siesta:     32   -3.164189  549.088253    0.000000
siesta:     33   -1.063351 -127.525796    0.000000
siesta:     34   21.428835  558.155889    0.000000
siesta:     35   22.591219   -7.103590    0.000000
siesta:     36   -0.941568    2.548416    0.000000
siesta:     37   -0.344937   -0.517833    0.000000
siesta:     38   -0.557511    1.500346    0.000000
siesta:     39   -0.541243   -0.819089    0.000000
siesta:     40  -24.520741   -4.922638    0.000000
siesta:     41  -15.876805  561.043526    0.000000
siesta:     42  -23.308135   -6.333452    0.000000
siesta:     43   -0.832078  564.370061    0.000000
siesta:     44    0.751954    0.898647    0.000000
siesta:     45    0.525499   -0.396593    0.000000
siesta:     46    2.422789   -2.082893    0.000000
siesta:     47   -2.227208    1.596524    0.000000
siesta:     48    1.026412    2.639488    0.000000
siesta:     49    0.244782   -0.358193    0.000000
siesta:     50   -0.606383    1.103140    0.000000
siesta:     51   -0.095539   -1.406573    0.000000
siesta:     52   -1.096116   -4.321768    0.000000
siesta:     53    0.206379    1.247613    0.000000
siesta:     54    0.242190   -1.090604    0.000000
siesta:     55    0.274452    7.123749    0.000000
siesta:     56    0.138099   -8.037012    0.000000
siesta:     57   -2.081951    2.540033    0.000000
siesta:     58    1.344181   -0.346652    0.000000
siesta:     59   -1.228799   -3.785748    0.000000
siesta:     60    0.886947    0.690977    0.000000
siesta:     61   -0.865414 -676.703612    0.000000
siesta:     62   -0.465817    0.275836    0.000000
siesta:     63    1.022158   -3.720622    0.000000
siesta:     64   24.849320    5.558265    0.000000
siesta:     65   17.829470 -560.487057    0.000000
siesta:     66  -24.954082    6.566417    0.000000
siesta:     67  -18.009475 -562.104629    0.000000
siesta:     68   -1.461982    0.538178    0.000000
siesta:     69    2.689969    1.740669    0.000000
siesta:     70   -3.556178 -539.360445    0.000000
siesta:     71   -1.618762  129.088815    0.000000
siesta:     72    0.993002 -546.425157    0.000000
siesta: ----------------------------------------
siesta:    Tot   -0.393467    0.059909    0.000000

siesta: Stress tensor (static) (eV/Ang**3):
siesta:    -0.429563    0.000345    0.000000
siesta:     0.000345   -1.838582    0.000000
siesta:     0.000000    0.000000   -0.000107

siesta: Cell volume =       1893.226884 Ang**3

siesta: Pressure (static):
siesta:                Solid            Molecule  Units
siesta:           0.00823472          0.13192641  Ry/Bohr**3
siesta:           0.75608369         12.11303402  eV/Ang**3
siesta:        1211.39272020      19407.42984781  kBar
(Free)E+ p_basis*V_orbitals  =      -11178.407989
(Free)Eharris+ p_basis*V_orbitals  =      -11178.408537

siesta: Electric dipole (a.u.)  =    0.000000    0.000000    0.000000
siesta: Electric dipole (Debye) =    0.000000    0.000000    0.000000

* Maximum dynamic memory allocated : Node    0 =   211 MB
* Maximum dynamic memory allocated : Node    1 =    74 MB
* Maximum dynamic memory allocated : Node    2 =    76 MB
* Maximum dynamic memory allocated : Node    3 =   200 MB
* Maximum dynamic memory allocated : Node    4 =   194 MB
* Maximum dynamic memory allocated : Node    5 =    72 MB
* Maximum dynamic memory allocated : Node    6 =    73 MB
* Maximum dynamic memory allocated : Node    7 =   179 MB

* Maximum memory occured during matrixMtoO                    

timer: CPU execution times:
timer:  Routine       Calls   Time/call    Tot.time        %
timer:  siesta            1  114417.036  114417.036   100.00
timer:  Setup             1       2.686       2.686     0.00
timer:  bands             3     243.691     731.072     0.64
timer:  writewave         1       0.017       0.017     0.00
timer:  KSV_init          1       0.000       0.000     0.00
timer:  IterMD            1  113678.090  113678.090    99.35
timer:  hsparse           1       0.284       0.284     0.00
timer:  overlap           1       5.475       5.475     0.00
timer:  IterSCF          34    3338.731  113516.843    99.21
timer:  kinefsm           2       2.855       5.710     0.00
timer:  nlefsm            2      17.952      35.904     0.03
timer:  DHSCF            35      81.739    2860.875     2.50
timer:  DHSCF1            1       0.745       0.745     0.00
timer:  DHSCF2            1      31.894      31.894     0.03
timer:  REORD           282       0.005       1.395     0.00
timer:  POISON           36       0.875      31.483     0.03
timer:  DHSCF3           35      79.914    2797.006     2.44
timer:  rhoofd           35      17.079     597.782     0.52
timer:  cellXC           35       3.267     114.362     0.10
timer:  vmat             35      36.925    1292.379     1.13
timer:  MolMec            2       0.000       0.001     0.00
timer:  diagon           34    3256.240  110712.165    96.76
timer:  c-eigval       7975       6.028   48072.858    42.02
timer:  c-buildHS      7975       0.047     376.918     0.33
timer:  cdiag         15829       6.156   97449.805    85.17
timer:  cdiag1        15829       0.386    6102.130     5.33
timer:  cdiag2        15829       1.767   27969.484    24.45
timer:  cdiag3        15829       3.736   59140.841    51.69
timer:  cdiag4        15829       0.150    2368.970     2.07
timer:  c-eigvec       7854       6.373   50050.624    43.74
timer:  c-buildD       7854       1.691   13279.034    11.61
timer:  DHSCF4            1      30.554      30.554     0.03
timer:  dfscf             1      28.634      28.634     0.03
timer:  overfsm           1       0.386       0.386     0.00
timer:  optical           1       4.527       4.527     0.00
  

elaps: ELAPSED times:
elaps:  Routine       Calls   Time/call    Tot.time        %
elaps:  siesta            1   14329.235   14329.235   100.00
elaps:  Setup             1       0.337       0.337     0.00
elaps:  bands             3      30.536      91.607     0.64
elaps:  writewave         1       0.002       0.002     0.00
elaps:  KSV_init          1       0.000       0.000     0.00
elaps:  IterMD            1   14236.692   14236.692    99.35
elaps:  hsparse           1       0.035       0.035     0.00
elaps:  overlap           1       0.899       0.899     0.01
elaps:  IterSCF          34     418.132   14216.498    99.21
elaps:  kinefsm           2       0.465       0.929     0.01
elaps:  nlefsm            2       2.244       4.489     0.03
elaps:  DHSCF            35      10.352     362.333     2.53
elaps:  DHSCF1            1       0.095       0.095     0.00
elaps:  DHSCF2            1       3.993       3.993     0.03
elaps:  REORD           282       0.001       0.186     0.00
elaps:  POISON           36       0.110       3.975     0.03
elaps:  DHSCF3           35      10.009     350.312     2.44
elaps:  rhoofd           35       4.775     167.126     1.17
elaps:  cellXC           35       0.409      14.309     0.10
elaps:  vmat             35       4.625     161.866     1.13
elaps:  MolMec            2       0.000       0.000     0.00
elaps:  diagon           34     407.798   13865.124    96.76
elaps:  c-eigval       7975       0.755    6020.368    42.01
elaps:  c-buildHS      7975       0.006      51.803     0.36
elaps:  cdiag         15829       0.772   12222.963    85.30
elaps:  cdiag1        15829       0.048     766.439     5.35
elaps:  cdiag2        15829       0.221    3503.669    24.45
elaps:  cdiag3        15829       0.469    7416.830    51.76
elaps:  cdiag4        15829       0.019     293.392     2.05
elaps:  c-eigvec       7854       0.802    6297.989    43.95
elaps:  c-buildD       7854       0.208    1631.095    11.38
elaps:  DHSCF4            1       7.849       7.849     0.05
elaps:  dfscf             1       7.434       7.434     0.05
elaps:  overfsm           1       0.051       0.051     0.00
elaps:  optical           1       0.000       0.000     0.00
  
>> End of run:  15-APR-2016  16:42:24
