Siesta Version:                                        siesta-3.2-pl-3
Architecture  : x86_64-unknown-linux-gnu--unknown
Compiler flags: mpiifort -g -O2 -fPIC -xSSE4.1 -fp-model source -shared-intel 
PARALLEL version

* Running on   12 nodes in parallel
>> Start of run:   6-MAY-2016   0:02:14

                           ***********************       
                           *  WELCOME TO SIESTA  *       
                           ***********************       

reinit: Reading from standard input
************************** Dump of input data file ****************************
#(1) General system descriptors
SystemName            GRP_doping    # Descriptive name of the system
SystemLabel           GRP_doping    # Short name for naming files
%include STRUCT.fdf
%include KPT.fdf
%include BASIS.fdf
#%include TS.fdf # for transiesta calculation
#(4) DFT, Grid, SCF
XC.functional         GGA           # LDA or GGA (default = LDA)
XC.authors            PBE           # CA (Ceperley-Aldr) = PZ
                                    #    (Perdew-Zunger) - LDA - Default
                                    # PW92 (Perdew-Wang-92) - LDA
                                    # PBE (Perdew-Burke-Ernzerhof) - GGA
MeshCutoff            200.000000    Ry      # Default: 50.0 Ry ~ 0.444 Bohr
                                    #         100.0 Ry ~ 0.314 Bohr
MaxSCFIterations      500           # Default: 50
DM.MixingWeight       0.05          # Default: 0.25
DM.NumberPulay        10            # Default: 0
DM.PulayOnFile        F             # SystemLabel.P1, SystemLabel.P2
DM.Tolerance          1.d-4         # Default: 1.d-4
DM.UseSaveDM          .true.        # because of the bug
SCFMustConverge       .true.
NeglNonOverlapInt     F             # Default: F
#(5) Eigenvalue problem: order-N or diagonalization
SolutionMethod        Diagon        # or Transiesta
ElectronicTemperature 300.0 K       # Default: 300.0 K
#(6) Molecular dynamics and relaxations
#MD.TypeOfRun          CG            # Type of dynamics:
#MD.VariableCell       F
#MD.NumCGsteps         0           # 0 for single-point / 100 for gopt
#MD.MaxCGDispl         0.2 Bohr      # Default: 0.2 Bohr
#MD.MaxForceTol        0.02 eV/Ang   # Default: 0.04 eV/Ang
#MD.MaxStressTol       1.0 GPa       # Default: 1.0 GPa
# Geometry Constraints
#%block GeometryConstraints
#	position from 1 to 44
#%endblock GeometryConstraints
BandLinesScale   pi/a
%block BandLines
 1   0.00000000  0.00000000  0.00000000
50   0.00000000  0.07809418  0.00000000
50   0.04509075  0.07809242  0.00000000
20   0.00000000  0.00000000  0.00000000
%endblock BandLines
************************** End of input data file *****************************

reinit: -----------------------------------------------------------------------
reinit: System Name: GRP_doping
reinit: -----------------------------------------------------------------------
reinit: System Label: GRP_doping                                                  
reinit: -----------------------------------------------------------------------

initatom: Reading input for the pseudopotentials and atomic orbitals ----------
 Species number:            1  Label: N Atomic number:           7
 Species number:            2  Label: C Atomic number:           6
Ground state valence configuration:   2s02  2p03
Reading pseudopotential information in formatted form from N.psf

Valence configuration for pseudopotential generation:
2s( 2.00) rc: 1.48
2p( 3.00) rc: 1.48
3d( 0.00) rc: 1.48
4f( 0.00) rc: 1.48
Ground state valence configuration:   2s02  2p02
Reading pseudopotential information in formatted form from C.psf

Valence configuration for pseudopotential generation:
2s( 2.00) rc: 1.54
2p( 2.00) rc: 1.54
3d( 0.00) rc: 1.54
4f( 0.00) rc: 1.54
For N, standard SIESTA heuristics set lmxkb to 3
 (one more than the basis l, including polarization orbitals).
Use PS.lmax or PS.KBprojectors blocks to override.
For C, standard SIESTA heuristics set lmxkb to 3
 (one more than the basis l, including polarization orbitals).
Use PS.lmax or PS.KBprojectors blocks to override.

<basis_specs>
===============================================================================
N                    Z=   7    Mass=  14.010        Charge= 0.17977+309
Lmxo=1 Lmxkb= 3    BasisType=split      Semic=F
L=0  Nsemic=0  Cnfigmx=2
          n=1  nzeta=2  polorb=0
            splnorm:   0.15000    
               vcte:    0.0000    
               rinn:    0.0000    
                rcs:    0.0000      0.0000    
            lambdas:    1.0000      1.0000    
L=1  Nsemic=0  Cnfigmx=2
          n=1  nzeta=2  polorb=1
            splnorm:   0.15000    
               vcte:    0.0000    
               rinn:    0.0000    
                rcs:    0.0000      0.0000    
            lambdas:    1.0000      1.0000    
-------------------------------------------------------------------------------
L=0  Nkbl=1  erefs: 0.17977+309
L=1  Nkbl=1  erefs: 0.17977+309
L=2  Nkbl=1  erefs: 0.17977+309
L=3  Nkbl=1  erefs: 0.17977+309
===============================================================================
</basis_specs>

atom: Called for N                     (Z =   7)

read_vps: Pseudopotential generation method:
read_vps: ATM3      Troullier-Martins                       
Total valence charge:    5.00000

read_vps: Pseudopotential includes a core correction:
read_vps: Pseudo-core for xc-correction

xc_check: Exchange-correlation functional:
xc_check: GGA Perdew, Burke & Ernzerhof 1996
V l=0 = -2*Zval/r beyond r=  1.4606
V l=1 = -2*Zval/r beyond r=  1.4606
V l=2 = -2*Zval/r beyond r=  1.4606
V l=3 = -2*Zval/r beyond r=  1.4606
All V_l potentials equal beyond r=  1.4606
This should be close to max(r_c) in ps generation
All pots = -2*Zval/r beyond r=  1.4606

VLOCAL1: 99.0% of the norm of Vloc inside     20.347 Ry
VLOCAL1: 99.9% of the norm of Vloc inside     46.372 Ry
atom: Maximum radius for 4*pi*r*r*local-pseudopot. charge    1.76189
atom: Maximum radius for r*vlocal+2*Zval:    1.53550
GHOST: No ghost state for L =  0
GHOST: No ghost state for L =  1
GHOST: No ghost state for L =  2
GHOST: No ghost state for L =  3

KBgen: Kleinman-Bylander projectors: 
   l= 0   rc=  1.634559   el= -1.363963   Ekb=  5.296955   kbcos=  0.335621
   l= 1   rc=  1.614250   el= -0.521451   Ekb= -5.259161   kbcos= -0.433408
   l= 2   rc=  1.718383   el=  0.001991   Ekb= -1.271464   kbcos= -0.007566
   l= 3   rc=  1.761893   el=  0.003093   Ekb= -0.494769   kbcos= -0.001015

KBgen: Total number of  Kleinman-Bylander projectors:   16
atom: -------------------------------------------------------------------------

atom: SANKEY-TYPE ORBITALS:
atom: Selected multiple-zeta basis: split     

SPLIT: Orbitals with angular momentum L= 0

SPLIT: Basis orbitals for state 2s

SPLIT: PAO cut-off radius determined from an
SPLIT: energy shift=  0.007350 Ry

   izeta = 1
                 lambda =    1.000000
                     rc =    4.071465
                 energy =   -1.356470
                kinetic =    1.176977
    potential(screened) =   -2.533447
       potential(ionic) =   -8.057990

   izeta = 2
                 rmatch =    2.905100
              splitnorm =    0.150000
                 energy =   -1.158343
                kinetic =    1.813009
    potential(screened) =   -2.971352
       potential(ionic) =   -8.901931

SPLIT: Orbitals with angular momentum L= 1

SPLIT: Basis orbitals for state 2p

SPLIT: PAO cut-off radius determined from an
SPLIT: energy shift=  0.007350 Ry

   izeta = 1
                 lambda =    1.000000
                     rc =    4.972977
                 energy =   -0.513884
                kinetic =    3.441732
    potential(screened) =   -3.955616
       potential(ionic) =   -9.287901

   izeta = 2
                 rmatch =    3.054066
              splitnorm =    0.150000
                 energy =   -0.318226
                kinetic =    5.125348
    potential(screened) =   -5.443573
       potential(ionic) =  -11.380999

POLgen: Perturbative polarization orbital with L=  2

POLgen: Polarization orbital for state 2p

   izeta = 1
                     rc =    4.972977
                 energy =    1.607437
                kinetic =    3.268125
    potential(screened) =   -1.660688
       potential(ionic) =   -5.973652
atom: Total number of Sankey-type orbitals: 13

atm_pop: Valence configuration (for local Pseudopot. screening):
 2s( 2.00)                                                            
 2p( 3.00)                                                            
Vna: chval, zval:    5.00000   5.00000

Vna:  Cut-off radius for the neutral-atom potential:   4.972977
comcore: Pseudo-core radius Rcore=  1.554824

atom: _________________________________________________________________________

<basis_specs>
===============================================================================
C                    Z=   6    Mass=  12.010        Charge= 0.17977+309
Lmxo=1 Lmxkb= 3    BasisType=split      Semic=F
L=0  Nsemic=0  Cnfigmx=2
          n=1  nzeta=2  polorb=0
            splnorm:   0.15000    
               vcte:    0.0000    
               rinn:    0.0000    
                rcs:    0.0000      0.0000    
            lambdas:    1.0000      1.0000    
L=1  Nsemic=0  Cnfigmx=2
          n=1  nzeta=2  polorb=1
            splnorm:   0.15000    
               vcte:    0.0000    
               rinn:    0.0000    
                rcs:    0.0000      0.0000    
            lambdas:    1.0000      1.0000    
-------------------------------------------------------------------------------
L=0  Nkbl=1  erefs: 0.17977+309
L=1  Nkbl=1  erefs: 0.17977+309
L=2  Nkbl=1  erefs: 0.17977+309
L=3  Nkbl=1  erefs: 0.17977+309
===============================================================================
</basis_specs>

atom: Called for C                     (Z =   6)

read_vps: Pseudopotential generation method:
read_vps: ATM3      Troullier-Martins                       
Total valence charge:    4.00000

read_vps: Pseudopotential includes a core correction:
read_vps: Pseudo-core for xc-correction

xc_check: Exchange-correlation functional:
xc_check: GGA Perdew, Burke & Ernzerhof 1996
V l=0 = -2*Zval/r beyond r=  1.5227
V l=1 = -2*Zval/r beyond r=  1.5227
V l=2 = -2*Zval/r beyond r=  1.5227
V l=3 = -2*Zval/r beyond r=  1.5038
All V_l potentials equal beyond r=  1.5227
This should be close to max(r_c) in ps generation
All pots = -2*Zval/r beyond r=  1.5227

VLOCAL1: 99.0% of the norm of Vloc inside     18.722 Ry
VLOCAL1: 99.9% of the norm of Vloc inside     42.668 Ry
atom: Maximum radius for 4*pi*r*r*local-pseudopot. charge    1.83678
atom: Maximum radius for r*vlocal+2*Zval:    1.58088
GHOST: No ghost state for L =  0
GHOST: No ghost state for L =  1
GHOST: No ghost state for L =  2
GHOST: No ghost state for L =  3

KBgen: Kleinman-Bylander projectors: 
   l= 0   rc=  1.704034   el= -1.009801   Ekb=  5.335044   kbcos=  0.316824
   l= 1   rc=  1.704034   el= -0.388707   Ekb= -3.785862   kbcos= -0.366464
   l= 2   rc=  1.791422   el=  0.001971   Ekb= -0.970471   kbcos= -0.009212
   l= 3   rc=  1.859892   el=  0.003065   Ekb= -0.399525   kbcos= -0.001223

KBgen: Total number of  Kleinman-Bylander projectors:   16
atom: -------------------------------------------------------------------------

atom: SANKEY-TYPE ORBITALS:
atom: Selected multiple-zeta basis: split     

SPLIT: Orbitals with angular momentum L= 0

SPLIT: Basis orbitals for state 2s

SPLIT: PAO cut-off radius determined from an
SPLIT: energy shift=  0.007350 Ry

   izeta = 1
                 lambda =    1.000000
                     rc =    4.632753
                 energy =   -1.002270
                kinetic =    0.855760
    potential(screened) =   -1.858031
       potential(ionic) =   -5.417575

   izeta = 2
                 rmatch =    3.431921
              splitnorm =    0.150000
                 energy =   -0.867111
                kinetic =    1.300804
    potential(screened) =   -2.167915
       potential(ionic) =   -5.962684

SPLIT: Orbitals with angular momentum L= 1

SPLIT: Basis orbitals for state 2p

SPLIT: PAO cut-off radius determined from an
SPLIT: energy shift=  0.007350 Ry

   izeta = 1
                 lambda =    1.000000
                     rc =    5.658549
                 energy =   -0.381140
                kinetic =    2.399701
    potential(screened) =   -2.780841
       potential(ionic) =   -6.206085

   izeta = 2
                 rmatch =    3.653288
              splitnorm =    0.150000
                 energy =   -0.249149
                kinetic =    3.542762
    potential(screened) =   -3.791911
       potential(ionic) =   -7.581078

POLgen: Perturbative polarization orbital with L=  2

POLgen: Polarization orbital for state 2p

   izeta = 1
                     rc =    5.658549
                 energy =    1.109913
                kinetic =    2.304789
    potential(screened) =   -1.194876
       potential(ionic) =   -4.013592
atom: Total number of Sankey-type orbitals: 13

atm_pop: Valence configuration (for local Pseudopot. screening):
 2s( 2.00)                                                            
 2p( 2.00)                                                            
Vna: chval, zval:    4.00000   4.00000

Vna:  Cut-off radius for the neutral-atom potential:   5.658549
comcore: Pseudo-core radius Rcore=  1.791422

atom: _________________________________________________________________________

prinput: Basis input ----------------------------------------------------------

PAO.BasisType split     

%block ChemicalSpeciesLabel
    1    7 N                       # Species index, atomic number, species label
    2    6 C                       # Species index, atomic number, species label
%endblock ChemicalSpeciesLabel

%block PAO.Basis                 # Define Basis set
N                     2                    # Species label, number of l-shells
 n=2   0   2                         # n, l, Nzeta 
   4.071      2.905   
   1.000      1.000   
 n=2   1   2 P   1                   # n, l, Nzeta, Polarization, NzetaPol
   4.973      3.054   
   1.000      1.000   
C                     2                    # Species label, number of l-shells
 n=2   0   2                         # n, l, Nzeta 
   4.633      3.432   
   1.000      1.000   
 n=2   1   2 P   1                   # n, l, Nzeta, Polarization, NzetaPol
   5.659      3.653   
   1.000      1.000   
%endblock PAO.Basis

prinput: ----------------------------------------------------------------------

coor:   Atomic-coordinates input format  =     Fractional

siesta: Atomic coordinates (Bohr) and species
siesta:      6.95932  17.38257   0.00000  1        1
siesta:      4.63094  18.72698   0.00000  1        2
siesta:      4.63094  21.41544   0.00000  1        3
siesta:     -0.02582  18.72698   0.00000  1        4
siesta:     -0.02582  21.41544   0.00000  1        5
siesta:      2.30256  22.75985   0.00000  1        6
siesta:     -2.35420  22.75985   0.00000  1        7
siesta:     -2.35420  25.44831   0.00000  1        8
siesta:      4.63094  29.48119   0.00000  1        9
siesta:     -4.68258  26.79272   0.00000  1       10
siesta:     -4.68258  29.48119   0.00000  1       11
siesta:      2.30256  30.82560   0.00000  1       12
siesta:     -2.35420  30.82560   0.00000  1       13
siesta:     -2.35420  33.51406   0.00000  1       14
siesta:     -0.02582  34.85847   0.00000  1       15
siesta:     -0.02582  37.54693   0.00000  1       16
siesta:     -0.02582   2.59549   0.00000  2       17
siesta:     -0.02582   5.28395   0.00000  2       18
siesta:     -2.35420  38.89134   0.00000  2       19
siesta:     -2.35420  41.57980   0.00000  2       20
siesta:      2.30256  38.89134   0.00000  2       21
siesta:      2.30256  41.57980   0.00000  2       22
siesta:      4.63094  34.85847   0.00000  2       23
siesta:      4.63094  37.54693   0.00000  2       24
siesta:      6.95932  30.82560   0.00000  2       25
siesta:      6.95932  33.51406   0.00000  2       26
siesta:      9.28770  26.79272   0.00000  2       27
siesta:      9.28770  29.48119   0.00000  2       28
siesta:     -4.68258  34.85847   0.00000  2       29
siesta:     -4.68258  37.54693   0.00000  2       30
siesta:      2.30256   6.62836   0.00000  2       31
siesta:      2.30256   9.31683   0.00000  2       32
siesta:      4.63094  10.66124   0.00000  2       33
siesta:      4.63094  13.34970   0.00000  2       34
siesta:      6.95932  14.69411   0.00000  2       35
siesta:      9.28770  18.72698   0.00000  2       36
siesta:      9.28770  21.41544   0.00000  2       37
siesta:     11.61608  22.75985   0.00000  2       38
siesta:     11.61608  25.44831   0.00000  2       39
siesta:     -2.35420   6.62836   0.00000  2       40
siesta:     -2.35420   9.31683   0.00000  2       41
siesta:     -0.02582  10.66124   0.00000  2       42
siesta:     -0.02582  13.34970   0.00000  2       43
siesta:      2.30256  14.69411   0.00000  2       44
siesta:      2.30256  17.38257   0.00000  2       45
siesta:      6.95932  22.75985   0.00000  2       46
siesta:      6.95932  25.44831   0.00000  2       47
siesta:     -4.68258  10.66124   0.00000  2       48
siesta:     -4.68258  13.34970   0.00000  2       49
siesta:     -2.35420  14.69411   0.00000  2       50
siesta:     -2.35420  17.38257   0.00000  2       51
siesta:      2.30256  25.44831   0.00000  2       52
siesta:     -7.01096  14.69411   0.00000  2       53
siesta:     -7.01096  17.38257   0.00000  2       54
siesta:     -4.68258  18.72698   0.00000  2       55
siesta:     -4.68258  21.41544   0.00000  2       56
siesta:     -9.33934  18.72698   0.00000  2       57
siesta:     -9.33934  21.41544   0.00000  2       58
siesta:     -7.01096  22.75985   0.00000  2       59
siesta:     -7.01096  25.44831   0.00000  2       60
siesta:    -11.66772  22.75985   0.00000  2       61
siesta:    -11.66772  25.44831   0.00000  2       62
siesta:     -9.33934  26.79272   0.00000  2       63
siesta:     -9.33934  29.48119   0.00000  2       64
siesta:      4.63094  26.79272   0.00000  2       65
siesta:     -0.02582  26.79272   0.00000  2       66
siesta:     -0.02582  29.48119   0.00000  2       67
siesta:      2.30256  33.51406   0.00000  2       68
siesta:     -7.01096  30.82560   0.00000  2       69
siesta:     -7.01096  33.51406   0.00000  2       70
siesta:     -0.02582  42.92421   0.00000  2       71
siesta:     -0.02582  45.61267   0.00000  2       72

siesta: System type = slab      

initatomlists: Number of atoms, orbitals, and projectors:     72   936  1152

siesta: ******************** Simulation parameters ****************************
siesta:
siesta: The following are some of the parameters of the simulation.
siesta: A complete list of the parameters used, including default values,
siesta: can be found in file out.fdf
siesta:
redata: Non-Collinear-spin run           =     F
redata: SpinPolarized (Up/Down) run      =     F
redata: Number of spin components        =     1
redata: Long output                      =     F
redata: Number of Atomic Species         =        2
redata: Charge density info will appear in .RHO file
redata: Write Mulliken Pop.              =     NO
redata: Mesh Cutoff                      =   200.0000  Ry
redata: Net charge of the system         =     0.0000 |e|
redata: Max. number of SCF Iter          =      500
redata: SCF convergence failure will abort job
redata: Performing Pulay mixing using    =    10 iterations
redata: Mix DM in first SCF step ?       =     F
redata: Write Pulay info on disk?        =     F
redata: Discard 1st Pulay DM after  kick =     F
redata: New DM Mixing Weight             =     0.0500
redata: New DM Occupancy tolerance       = 0.000000000001
redata: No kicks to SCF
redata: DM Mixing Weight for Kicks       =     0.5000
redata: DM Tolerance for SCF             =     0.000100
redata: Require Energy convergence for SCF =     F
redata: DM Energy tolerance for SCF      =     0.000100 eV
redata: Require Harris convergence for SCF =     F
redata: DM Harris energy tolerance for SCF =     0.000100 eV
redata: Using Saved Data (generic)   =     F
redata: Use continuation files for DM    =     T
redata: Neglect nonoverlap interactions  =     F
redata: Method of Calculation            =     Diagonalization
redata: Divide and Conquer               =     T
redata: Electronic Temperature           =     0.0019  Ry
redata: Fix the spin of the system       =     F
redata: Dynamics option                  =     Verlet MD run
redata: Initial MD time step             =        1
redata:   Final MD time step             =        1
redata: Length of MD time step           =     1.0000  fs
redata: Initial Temperature of MD run    =     0.0000  K
redata: Perform a MD quench              =     F
redata: ***********************************************************************
Total number of electrons:   304.000000
Total ionic charge:   304.000000

* ProcessorY, Blocksize:    3  24

k-point displ. along   1 input, could be:     0.50    0.00
k-point displ. along   2 input, could be:     0.50    0.00
 Kpoints in:          231 . Kpoints trimmed:          231

siesta: k-grid: Number of k-points =   231
siesta: k-grid: Cutoff (effective) =     5.000 Ang
siesta: k-grid: Supercell and displacements
siesta: k-grid:   21   0   0      0.500
siesta: k-grid:    0  21   0      0.500
siesta: k-grid:    0   0   1      0.000
Naive supercell factors:     2    2    2

superc: Internal auxiliary supercell:     2 x     2 x     2  =       8
superc: Number of atoms, orbitals, and projectors:    576   7488   9216

* Maximum dynamic memory allocated =     4 MB

siesta:                 ==============================
                            Begin MD step =      1
                        ==============================

superc: Internal auxiliary supercell:     2 x     2 x     2  =       8
superc: Number of atoms, orbitals, and projectors:    576   7488   9216

outcell: Unit cell vectors (Ang):
       12.804619    7.392750    0.000000
        0.000000   14.785500    0.000000
        0.000000    0.000000   10.000000

outcell: Cell vector modules (Ang)   :   14.785500   14.785500   10.000000
outcell: Cell angles (23,13,12) (deg):     90.0000     90.0000     60.0000
outcell: Cell volume (Ang**3)        :   1893.2269
New_DM. Step:     1
Initializing Density Matrix...

InitMesh: MESH =   120 x   120 x    90 =     1296000
InitMesh: Mesh cutoff (required, used) =   200.000   223.865 Ry

* Maximum dynamic memory allocated =   133 MB

stepf: Fermi-Dirac step function

siesta: Program's energy decomposition (eV):
siesta: Ebs     =     -6177.782427
siesta: Eions   =     20974.960578
siesta: Ena     =      4888.858545
siesta: Ekin    =      7720.939539
siesta: Enl     =       167.605375
siesta: DEna    =        -0.000015
siesta: DUscf   =         0.000000
siesta: DUext   =         0.000000
siesta: Exc     =     -4568.999299
siesta: eta*DQ  =         0.000000
siesta: Emadel  =         0.000000
siesta: Emeta   =         0.000000
siesta: Emolmec =         0.000000
siesta: Ekinion =         0.000000
siesta: Eharris =    -12409.372281
siesta: Etot    =    -12766.556433
siesta: FreeEng =    -12766.556433

siesta: iscf   Eharris(eV)      E_KS(eV)   FreeEng(eV)   dDmax  Ef(eV)
siesta:    1   -12409.3723   -12766.5564   -12766.5564  6.1916 -6.9770
timer: Routine,Calls,Time,% = IterSCF        1    2996.437  99.59
elaps: Routine,Calls,Wall,% = IterSCF        1     250.297  99.59
siesta:    2   -17545.2487   -11684.3326   -11684.3701 14.4516 -5.3480
siesta:    3   -12360.3080   -12539.5146   -12539.5670  2.6789 -5.2687
siesta:    4   -12314.9133   -12420.0099   -12420.0528  1.4103 -4.3268
siesta:    5   -12252.1725   -12331.7205   -12331.7730  1.0844 -4.0734
siesta:    6   -12248.8644   -12311.0990   -12311.1203  1.0544 -3.9246
siesta:    7   -12243.6063   -12298.1202   -12298.1504  0.8450 -3.8583
siesta:    8   -12240.8230   -12278.2419   -12278.2881  0.6294 -3.8310
siesta:    9   -12241.1655   -12255.0418   -12255.0891  0.5136 -3.8629
siesta:   10   -12239.7857   -12249.5864   -12249.6413  0.5202 -3.8189
siesta:   11   -12239.8165   -12234.4787   -12234.5409  0.2827 -3.7967
siesta:   12   -12239.7070   -12229.2473   -12229.3007  0.1792 -3.8319
siesta:   13   -12239.1827   -12228.2395   -12228.3006  0.1266 -3.7965
siesta:   14   -12239.0033   -12229.8741   -12229.9337  0.0856 -3.7986
siesta:   15   -12238.8843   -12228.3087   -12228.3742  0.0768 -3.7879
siesta:   16   -12238.7764   -12229.3740   -12229.4336  0.0492 -3.8054
siesta:   17   -12238.7339   -12232.2478   -12232.3108  0.0314 -3.8197
siesta:   18   -12238.7348   -12235.0987   -12235.1630  0.0252 -3.8274
siesta:   19   -12238.7241   -12236.2437   -12236.3092  0.0205 -3.8195
siesta:   20   -12238.7237   -12237.2033   -12237.2672  0.0135 -3.8179
siesta:   21   -12238.7205   -12237.2179   -12237.2817  0.0134 -3.8102
siesta:   22   -12238.7166   -12237.9986   -12238.0619  0.0053 -3.8063
siesta:   23   -12238.7159   -12238.4874   -12238.5513  0.0043 -3.8054
siesta:   24   -12238.7151   -12238.7515   -12238.8156  0.0032 -3.8057
siesta:   25   -12238.7151   -12238.8080   -12238.8721  0.0025 -3.8051
siesta:   26   -12238.7149   -12238.7303   -12238.7944  0.0020 -3.8054
siesta:   27   -12238.7148   -12238.7491   -12238.8132  0.0014 -3.8057
siesta:   28   -12238.7148   -12238.7296   -12238.7938  0.0010 -3.8062
siesta:   29   -12238.7148   -12238.7153   -12238.7794  0.0007 -3.8064
siesta:   30   -12238.7148   -12238.7183   -12238.7824  0.0005 -3.8065
siesta:   31   -12238.7148   -12238.7113   -12238.7754  0.0005 -3.8066
siesta:   32   -12238.7148   -12238.7138   -12238.7779  0.0002 -3.8066
siesta:   33   -12238.7148   -12238.7115   -12238.7756  0.0002 -3.8066
siesta:   34   -12238.7148   -12238.7114   -12238.7756  0.0001 -3.8066
siesta:   35   -12238.7148   -12238.7119   -12238.7761  0.0001 -3.8066
siesta:   36   -12238.7148   -12238.7109   -12238.7751  0.0001 -3.8066

siesta: E_KS(eV) =           -12238.7103

siesta: E_KS - E_eggbox =    -12238.7103

siesta: Atomic forces (eV/Ang):
----------------------------------------
   Tot   -0.191362    0.063097    0.000000
----------------------------------------
   Max  681.479610
   Res  173.197224    sqrt( Sum f_i^2 / 3N )
----------------------------------------
   Max  681.479610    constrained

Stress-tensor-Voigt (kbar):     -678.80    -3089.83       -0.09       19.31        0.00        0.00
(Free)E + p*V (eV/cell)   -10754.3393
Target enthalpy (eV/cell)   -12238.7744

siesta: Stress tensor (static) (eV/Ang**3):
        -0.423671    0.012052    0.000000
         0.012052   -1.928500    0.000000
         0.000000    0.000000   -0.000059

siesta: Pressure (static):       1256.24300044  kBar

siesta: Stress tensor (total) (eV/Ang**3):
        -0.423671    0.012052    0.000000
         0.012052   -1.928500    0.000000
         0.000000    0.000000   -0.000059

siesta: Pressure (total):       1256.24300044  kBar

siesta: Temp_ion =       0.000 K

* Maximum dynamic memory allocated =   145 MB
Computing bands...

siesta: Program's energy decomposition (eV):
siesta: Ebs     =     -4940.976878
siesta: Eions   =     20974.960578
siesta: Ena     =      4888.858545
siesta: Ekin    =     10782.980979
siesta: Enl     =     -1509.511062
siesta: DEna    =      -793.809034
siesta: DUscf   =       109.964783
siesta: DUext   =         0.000000
siesta: Exc     =     -4742.233917
siesta: eta*DQ  =         0.000000
siesta: Emadel  =         0.000000
siesta: Emeta   =         0.000000
siesta: Emolmec =         0.000000
siesta: Ekinion =         0.000000
siesta: Eharris =    -12238.714789
siesta: Etot    =    -12238.710284
siesta: FreeEng =    -12238.774417

siesta: Final energy (eV):
siesta:  Band Struct. =   -4940.976878
siesta:       Kinetic =   10782.980979
siesta:       Hartree =   35150.987429
siesta:    Ext. field =       0.000000
siesta:   Exch.-corr. =   -4742.233917
siesta:  Ion-electron =  -80635.880796
siesta:       Ion-ion =   27205.436021
siesta:       Ekinion =       0.000000
siesta:         Total =  -12238.710284

siesta: Atomic forces (eV/Ang):
siesta:      1    4.032642   -1.163730    0.000000
siesta:      2   -3.109977    2.852208    0.000000
siesta:      3    1.592050    0.548446    0.000000
siesta:      4    5.060077  681.479610    0.000000
siesta:      5   -0.724406   -1.538271    0.000000
siesta:      6    1.220582   -0.229111    0.000000
siesta:      7   -1.556794    0.447691    0.000000
siesta:      8    0.360822    2.438230    0.000000
siesta:      9    0.886775   -5.306476    0.000000
siesta:     10   -1.195682   -0.529662    0.000000
siesta:     11   -0.800088   -3.246930    0.000000
siesta:     12   27.663112    4.942405    0.000000
siesta:     13  -27.086799    3.334799    0.000000
siesta:     14   -7.344451 -673.174608    0.000000
siesta:     15    2.270176  107.914300    0.000000
siesta:     16   -3.549674 -652.353698    0.000000
siesta:     17   -7.260403  559.643113    0.000000
siesta:     18    1.557358 -120.110277    0.000000
siesta:     19    1.256802  130.534369    0.000000
siesta:     20  -15.972130 -548.727895    0.000000
siesta:     21   -2.064842  129.896532    0.000000
siesta:     22   17.640350 -549.342296    0.000000
siesta:     23   26.537057    6.144425    0.000000
siesta:     24   31.962870 -550.406656    0.000000
siesta:     25    1.953159    0.793397    0.000000
siesta:     26   -2.730703    0.443925    0.000000
siesta:     27    2.274084    1.997600    0.000000
siesta:     28   -1.351051    0.477827    0.000000
siesta:     29  -27.446959    9.705080    0.000000
siesta:     30  -31.278061 -549.643656    0.000000
siesta:     31   -0.034882  547.383682    0.000000
siesta:     32   -1.031214 -123.533552    0.000000
siesta:     33   33.766736  550.381173    0.000000
siesta:     34   25.248594   -7.072716    0.000000
siesta:     35   -2.003153    1.202535    0.000000
siesta:     36   -1.506440   -1.919200    0.000000
siesta:     37    0.677638   -1.911139    0.000000
siesta:     38   -0.270652    6.286880    0.000000
siesta:     39   -0.303245   -6.619089    0.000000
siesta:     40  -12.430354  657.730970    0.000000
siesta:     41    0.663496 -118.267218    0.000000
siesta:     42    2.352110  665.678447    0.000000
siesta:     43    0.488165 -126.426760    0.000000
siesta:     44   16.839020  560.189835    0.000000
siesta:     45   26.979982   -9.892178    0.000000
siesta:     46   -1.627438    0.448912    0.000000
siesta:     47   -0.884019   -0.531424    0.000000
siesta:     48  -32.982629  549.483449    0.000000
siesta:     49  -26.162080   -6.122641    0.000000
siesta:     50  -19.586850  559.230740    0.000000
siesta:     51  -25.922666   -9.400533    0.000000
siesta:     52   -1.423516    0.481150    0.000000
siesta:     53    2.848616   -1.829938    0.000000
siesta:     54   -2.505869   -0.029215    0.000000
siesta:     55    1.847746    3.796820    0.000000
siesta:     56    0.488264   -1.171112    0.000000
siesta:     57    1.282989   -0.401973    0.000000
siesta:     58   -1.931281   -2.227845    0.000000
siesta:     59    1.096181    1.219399    0.000000
siesta:     60    0.822101   -0.396045    0.000000
siesta:     61    0.238198    7.215186    0.000000
siesta:     62    0.311364   -7.128408    0.000000
siesta:     63   -1.266910    2.173142    0.000000
siesta:     64    1.225577    0.442813    0.000000
siesta:     65   -0.121454    1.062479    0.000000
siesta:     66   -0.084003   -1.365326    0.000000
siesta:     67    6.463528 -588.519702    0.000000
siesta:     68   18.079559 -559.346377    0.000000
siesta:     69   -1.810079    0.640478    0.000000
siesta:     70    2.548711    0.351879    0.000000
siesta:     71    0.800335  117.114724    0.000000
siesta:     72   -4.167431 -646.159895    0.000000
siesta: ----------------------------------------
siesta:    Tot   -0.191362    0.063097    0.000000

siesta: Stress tensor (static) (eV/Ang**3):
siesta:    -0.423671    0.012052    0.000000
siesta:     0.012052   -1.928500    0.000000
siesta:     0.000000    0.000000   -0.000059

siesta: Cell volume =       1893.226884 Ang**3

siesta: Pressure (static):
siesta:                Solid            Molecule  Units
siesta:           0.00853960          0.13642110  Ry/Bohr**3
siesta:           0.78407673         12.52572130  eV/Ang**3
siesta:        1256.24300044      20068.63491407  kBar
(Free)E+ p_basis*V_orbitals  =      -12210.324216
(Free)Eharris+ p_basis*V_orbitals  =      -12210.328083

siesta: Electric dipole (a.u.)  =    0.000000    0.000000    0.000000
siesta: Electric dipole (Debye) =    0.000000    0.000000    0.000000

* Maximum dynamic memory allocated : Node    0 =   145 MB
* Maximum dynamic memory allocated : Node    1 =    57 MB
* Maximum dynamic memory allocated : Node    2 =    59 MB
* Maximum dynamic memory allocated : Node    3 =   134 MB
* Maximum dynamic memory allocated : Node    4 =   145 MB
* Maximum dynamic memory allocated : Node    5 =    53 MB
* Maximum dynamic memory allocated : Node    6 =    55 MB
* Maximum dynamic memory allocated : Node    7 =   136 MB
* Maximum dynamic memory allocated : Node    8 =   127 MB
* Maximum dynamic memory allocated : Node    9 =    52 MB
* Maximum dynamic memory allocated : Node   10 =    53 MB
* Maximum dynamic memory allocated : Node   11 =   123 MB

* Maximum memory occured during matrixMtoO                    

timer: CPU execution times:
timer:  Routine       Calls   Time/call    Tot.time        %
timer:  siesta            1  105971.840  105971.840   100.00
timer:  Setup             1       3.329       3.329     0.00
timer:  bands             3     226.042     678.126     0.64
timer:  writewave         1       0.022       0.022     0.00
timer:  KSV_init          1       0.004       0.004     0.00
timer:  IterMD            1  105283.410  105283.410    99.35
timer:  hsparse           1       0.165       0.165     0.00
timer:  overlap           1       7.366       7.366     0.01
timer:  IterSCF          36    2921.133  105160.799    99.23
timer:  kinefsm           2       3.727       7.454     0.01
timer:  nlefsm            2      18.515      37.031     0.03
timer:  DHSCF            37      60.671    2244.815     2.12
timer:  DHSCF1            1       0.900       0.900     0.00
timer:  DHSCF2            1      24.469      24.469     0.02
timer:  REORD           298       0.003       0.756     0.00
timer:  POISON           38       0.448      17.031     0.02
timer:  DHSCF3           37      59.424    2198.686     2.07
timer:  rhoofd           37      12.107     447.970     0.42
timer:  cellXC           37       2.394      88.560     0.08
timer:  vmat             37      27.962    1034.603     0.98
timer:  MolMec            2       0.000       0.000     0.00
timer:  diagon           36    2859.241  102932.658    97.13
timer:  c-eigval       8437       5.566   46962.766    44.32
timer:  c-buildHS      8437       0.033     276.635     0.26
timer:  cdiag         16753       5.668   94950.320    89.60
timer:  cdiag1        16753       0.259    4338.722     4.09
timer:  cdiag2        16753       1.832   30686.781    28.96
timer:  cdiag3        16753       3.368   56430.466    53.25
timer:  cdiag4        16753       0.088    1482.099     1.40
timer:  c-eigvec       8316       5.831   48492.473    45.76
timer:  c-buildD       8316       0.975    8109.691     7.65
timer:  DHSCF4            1      20.521      20.521     0.02
timer:  dfscf             1      19.102      19.102     0.02
timer:  overfsm           1       0.282       0.282     0.00
timer:  optical           1       6.363       6.363     0.01
  

elaps: ELAPSED times:
elaps:  Routine       Calls   Time/call    Tot.time        %
elaps:  siesta            1    8851.754    8851.754   100.00
elaps:  Setup             1       0.279       0.279     0.00
elaps:  bands             3      18.896      56.689     0.64
elaps:  writewave         1       0.002       0.002     0.00
elaps:  KSV_init          1       0.000       0.000     0.00
elaps:  IterMD            1    8794.249    8794.249    99.35
elaps:  hsparse           1       0.017       0.017     0.00
elaps:  overlap           1       0.711       0.711     0.01
elaps:  IterSCF          36     244.000    8784.008    99.23
elaps:  kinefsm           2       0.362       0.725     0.01
elaps:  nlefsm            2       1.527       3.054     0.03
elaps:  DHSCF            37       5.113     189.174     2.14
elaps:  DHSCF1            1       0.077       0.077     0.00
elaps:  DHSCF2            1       2.043       2.043     0.02
elaps:  REORD           298       0.000       0.089     0.00
elaps:  POISON           38       0.038       1.438     0.02
elaps:  DHSCF3           37       4.964     183.676     2.08
elaps:  rhoofd           37       2.114      78.218     0.88
elaps:  cellXC           37       0.199       7.380     0.08
elaps:  vmat             37       2.336      86.440     0.98
elaps:  MolMec            2       0.000       0.000     0.00
elaps:  diagon           36     238.837    8598.115    97.13
elaps:  c-eigval       8437       0.465    3922.706    44.32
elaps:  c-buildHS      8437       0.003      29.198     0.33
elaps:  cdiag         16753       0.469    7852.085    88.71
elaps:  cdiag1        16753       0.021     356.385     4.03
elaps:  cdiag2        16753       0.153    2565.540    28.98
elaps:  cdiag3        16753       0.282    4720.330    53.33
elaps:  cdiag4        16753       0.007     118.821     1.34
elaps:  c-eigvec       8316       0.479    3983.065    45.00
elaps:  c-buildD       8316       0.090     744.665     8.41
elaps:  DHSCF4            1       3.339       3.339     0.04
elaps:  dfscf             1       3.152       3.152     0.04
elaps:  overfsm           1       0.029       0.029     0.00
elaps:  optical           1       0.000       0.000     0.00
  
>> End of run:   6-MAY-2016   2:29:46
