Siesta Version:                                        siesta-3.2-pl-3
Architecture  : x86_64-unknown-linux-gnu--unknown
Compiler flags: mpiifort -g -O2 -fPIC -xSSE4.1 -fp-model source -shared-intel 
PARALLEL version

* Running on    8 nodes in parallel
>> Start of run:  24-APR-2016   4:32:56

                           ***********************       
                           *  WELCOME TO SIESTA  *       
                           ***********************       

reinit: Reading from standard input
************************** Dump of input data file ****************************
#(1) General system descriptors
SystemName            GRP_doping    # Descriptive name of the system
SystemLabel           GRP_doping    # Short name for naming files
%include STRUCT.fdf
%include KPT.fdf
%include BASIS.fdf
#%include TS.fdf # for transiesta calculation
#(4) DFT, Grid, SCF
XC.functional         GGA           # LDA or GGA (default = LDA)
XC.authors            PBE           # CA (Ceperley-Aldr) = PZ
                                    #    (Perdew-Zunger) - LDA - Default
                                    # PW92 (Perdew-Wang-92) - LDA
                                    # PBE (Perdew-Burke-Ernzerhof) - GGA
MeshCutoff            200.000000    Ry      # Default: 50.0 Ry ~ 0.444 Bohr
                                    #         100.0 Ry ~ 0.314 Bohr
MaxSCFIterations      500           # Default: 50
DM.MixingWeight       0.05          # Default: 0.25
DM.NumberPulay        10            # Default: 0
DM.PulayOnFile        F             # SystemLabel.P1, SystemLabel.P2
DM.Tolerance          1.d-4         # Default: 1.d-4
DM.UseSaveDM          .true.        # because of the bug
SCFMustConverge       .true.
NeglNonOverlapInt     F             # Default: F
#(5) Eigenvalue problem: order-N or diagonalization
SolutionMethod        Diagon        # or Transiesta
ElectronicTemperature 300.0 K       # Default: 300.0 K
#(6) Molecular dynamics and relaxations
#MD.TypeOfRun          CG            # Type of dynamics:
#MD.VariableCell       F
#MD.NumCGsteps         0           # 0 for single-point / 100 for gopt
#MD.MaxCGDispl         0.2 Bohr      # Default: 0.2 Bohr
#MD.MaxForceTol        0.02 eV/Ang   # Default: 0.04 eV/Ang
#MD.MaxStressTol       1.0 GPa       # Default: 1.0 GPa
# Geometry Constraints
#%block GeometryConstraints
#	position from 1 to 44
#%endblock GeometryConstraints
BandLinesScale   pi/a
%block BandLines
 1   0.00000000  0.00000000  0.00000000
50   0.00000000  0.07809418  0.00000000
50   0.04509075  0.07809242  0.00000000
20   0.00000000  0.00000000  0.00000000
%endblock BandLines
************************** End of input data file *****************************

reinit: -----------------------------------------------------------------------
reinit: System Name: GRP_doping
reinit: -----------------------------------------------------------------------
reinit: System Label: GRP_doping                                                  
reinit: -----------------------------------------------------------------------

initatom: Reading input for the pseudopotentials and atomic orbitals ----------
 Species number:            1  Label: B Atomic number:           5
 Species number:            2  Label: C Atomic number:           6
Ground state valence configuration:   2s02  2p01
Reading pseudopotential information in formatted form from B.psf

Valence configuration for pseudopotential generation:
2s( 2.00) rc: 1.74
2p( 1.00) rc: 1.74
3d( 0.00) rc: 1.74
4f( 0.00) rc: 1.74
Ground state valence configuration:   2s02  2p02
Reading pseudopotential information in formatted form from C.psf

Valence configuration for pseudopotential generation:
2s( 2.00) rc: 1.54
2p( 2.00) rc: 1.54
3d( 0.00) rc: 1.54
4f( 0.00) rc: 1.54
For B, standard SIESTA heuristics set lmxkb to 3
 (one more than the basis l, including polarization orbitals).
Use PS.lmax or PS.KBprojectors blocks to override.
For C, standard SIESTA heuristics set lmxkb to 3
 (one more than the basis l, including polarization orbitals).
Use PS.lmax or PS.KBprojectors blocks to override.

<basis_specs>
===============================================================================
B                    Z=   5    Mass=  10.810        Charge= 0.17977+309
Lmxo=1 Lmxkb= 3    BasisType=split      Semic=F
L=0  Nsemic=0  Cnfigmx=2
          n=1  nzeta=2  polorb=0
            splnorm:   0.15000    
               vcte:    0.0000    
               rinn:    0.0000    
                rcs:    0.0000      0.0000    
            lambdas:    1.0000      1.0000    
L=1  Nsemic=0  Cnfigmx=2
          n=1  nzeta=2  polorb=1
            splnorm:   0.15000    
               vcte:    0.0000    
               rinn:    0.0000    
                rcs:    0.0000      0.0000    
            lambdas:    1.0000      1.0000    
-------------------------------------------------------------------------------
L=0  Nkbl=1  erefs: 0.17977+309
L=1  Nkbl=1  erefs: 0.17977+309
L=2  Nkbl=1  erefs: 0.17977+309
L=3  Nkbl=1  erefs: 0.17977+309
===============================================================================
</basis_specs>

atom: Called for B                     (Z =   5)

read_vps: Pseudopotential generation method:
read_vps: ATM3      Troullier-Martins                       
Total valence charge:    3.00000

read_vps: Pseudopotential includes a core correction:
read_vps: Pseudo-core for xc-correction

xc_check: Exchange-correlation functional:
xc_check: GGA Perdew, Burke & Ernzerhof 1996
V l=0 = -2*Zval/r beyond r=  1.7165
V l=1 = -2*Zval/r beyond r=  1.7165
V l=2 = -2*Zval/r beyond r=  1.7165
V l=3 = -2*Zval/r beyond r=  1.6951
All V_l potentials equal beyond r=  1.7165
This should be close to max(r_c) in ps generation
All pots = -2*Zval/r beyond r=  1.7165

VLOCAL1: 99.0% of the norm of Vloc inside     14.733 Ry
VLOCAL1: 99.9% of the norm of Vloc inside     33.577 Ry
atom: Maximum radius for 4*pi*r*r*local-pseudopot. charge    2.04484
atom: Maximum radius for r*vlocal+2*Zval:    1.75994
GHOST: No ghost state for L =  0
GHOST: No ghost state for L =  1
GHOST: No ghost state for L =  2
GHOST: No ghost state for L =  3

KBgen: Kleinman-Bylander projectors: 
   l= 0   rc=  1.897051   el= -0.693730   Ekb=  4.595746   kbcos=  0.286105
   l= 1   rc=  1.920920   el= -0.265236   Ekb= -2.350715   kbcos= -0.315747
   l= 2   rc=  2.044840   el=  0.002055   Ekb= -0.690767   kbcos= -0.013822
   l= 3   rc=  2.149707   el=  0.003188   Ekb= -0.315358   kbcos= -0.002055

KBgen: Total number of  Kleinman-Bylander projectors:   16
atom: -------------------------------------------------------------------------

atom: SANKEY-TYPE ORBITALS:
atom: Selected multiple-zeta basis: split     

SPLIT: Orbitals with angular momentum L= 0

SPLIT: Basis orbitals for state 2s

SPLIT: PAO cut-off radius determined from an
SPLIT: energy shift=  0.007350 Ry

   izeta = 1
                 lambda =    1.000000
                     rc =    5.422032
                 energy =   -0.686029
                kinetic =    0.576707
    potential(screened) =   -1.262736
       potential(ionic) =   -3.271094

   izeta = 2
                 rmatch =    4.222573
              splitnorm =    0.150000
                 energy =   -0.602132
                kinetic =    0.858975
    potential(screened) =   -1.461107
       potential(ionic) =   -3.582536

SPLIT: Orbitals with angular momentum L= 1

SPLIT: Basis orbitals for state 2p

SPLIT: PAO cut-off radius determined from an
SPLIT: energy shift=  0.007350 Ry

   izeta = 1
                 lambda =    1.000000
                     rc =    6.790259
                 energy =   -0.258578
                kinetic =    1.481412
    potential(screened) =   -1.739989
       potential(ionic) =   -3.657461

   izeta = 2
                 rmatch =    4.608740
              splitnorm =    0.150000
                 energy =   -0.173757
                kinetic =    2.186690
    potential(screened) =   -2.360447
       potential(ionic) =   -4.464260

POLgen: Perturbative polarization orbital with L=  2

POLgen: Polarization orbital for state 2p

   izeta = 1
                     rc =    6.790259
                 energy =    0.684082
                kinetic =    1.471481
    potential(screened) =   -0.787399
       potential(ionic) =   -2.406985
atom: Total number of Sankey-type orbitals: 13

atm_pop: Valence configuration (for local Pseudopot. screening):
 2s( 2.00)                                                            
 2p( 1.00)                                                            
Vna: chval, zval:    3.00000   3.00000

Vna:  Cut-off radius for the neutral-atom potential:   6.790259
comcore: Pseudo-core radius Rcore=  2.122997

atom: _________________________________________________________________________

<basis_specs>
===============================================================================
C                    Z=   6    Mass=  12.010        Charge= 0.17977+309
Lmxo=1 Lmxkb= 3    BasisType=split      Semic=F
L=0  Nsemic=0  Cnfigmx=2
          n=1  nzeta=2  polorb=0
            splnorm:   0.15000    
               vcte:    0.0000    
               rinn:    0.0000    
                rcs:    0.0000      0.0000    
            lambdas:    1.0000      1.0000    
L=1  Nsemic=0  Cnfigmx=2
          n=1  nzeta=2  polorb=1
            splnorm:   0.15000    
               vcte:    0.0000    
               rinn:    0.0000    
                rcs:    0.0000      0.0000    
            lambdas:    1.0000      1.0000    
-------------------------------------------------------------------------------
L=0  Nkbl=1  erefs: 0.17977+309
L=1  Nkbl=1  erefs: 0.17977+309
L=2  Nkbl=1  erefs: 0.17977+309
L=3  Nkbl=1  erefs: 0.17977+309
===============================================================================
</basis_specs>

atom: Called for C                     (Z =   6)

read_vps: Pseudopotential generation method:
read_vps: ATM3      Troullier-Martins                       
Total valence charge:    4.00000

read_vps: Pseudopotential includes a core correction:
read_vps: Pseudo-core for xc-correction

xc_check: Exchange-correlation functional:
xc_check: GGA Perdew, Burke & Ernzerhof 1996
V l=0 = -2*Zval/r beyond r=  1.5227
V l=1 = -2*Zval/r beyond r=  1.5227
V l=2 = -2*Zval/r beyond r=  1.5227
V l=3 = -2*Zval/r beyond r=  1.5038
All V_l potentials equal beyond r=  1.5227
This should be close to max(r_c) in ps generation
All pots = -2*Zval/r beyond r=  1.5227

VLOCAL1: 99.0% of the norm of Vloc inside     18.722 Ry
VLOCAL1: 99.9% of the norm of Vloc inside     42.668 Ry
atom: Maximum radius for 4*pi*r*r*local-pseudopot. charge    1.83678
atom: Maximum radius for r*vlocal+2*Zval:    1.58088
GHOST: No ghost state for L =  0
GHOST: No ghost state for L =  1
GHOST: No ghost state for L =  2
GHOST: No ghost state for L =  3

KBgen: Kleinman-Bylander projectors: 
   l= 0   rc=  1.704034   el= -1.009801   Ekb=  5.335044   kbcos=  0.316824
   l= 1   rc=  1.704034   el= -0.388707   Ekb= -3.785862   kbcos= -0.366464
   l= 2   rc=  1.791422   el=  0.001971   Ekb= -0.970471   kbcos= -0.009212
   l= 3   rc=  1.859892   el=  0.003065   Ekb= -0.399525   kbcos= -0.001223

KBgen: Total number of  Kleinman-Bylander projectors:   16
atom: -------------------------------------------------------------------------

atom: SANKEY-TYPE ORBITALS:
atom: Selected multiple-zeta basis: split     

SPLIT: Orbitals with angular momentum L= 0

SPLIT: Basis orbitals for state 2s

SPLIT: PAO cut-off radius determined from an
SPLIT: energy shift=  0.007350 Ry

   izeta = 1
                 lambda =    1.000000
                     rc =    4.632753
                 energy =   -1.002270
                kinetic =    0.855760
    potential(screened) =   -1.858031
       potential(ionic) =   -5.417575

   izeta = 2
                 rmatch =    3.431921
              splitnorm =    0.150000
                 energy =   -0.867111
                kinetic =    1.300804
    potential(screened) =   -2.167915
       potential(ionic) =   -5.962684

SPLIT: Orbitals with angular momentum L= 1

SPLIT: Basis orbitals for state 2p

SPLIT: PAO cut-off radius determined from an
SPLIT: energy shift=  0.007350 Ry

   izeta = 1
                 lambda =    1.000000
                     rc =    5.658549
                 energy =   -0.381140
                kinetic =    2.399701
    potential(screened) =   -2.780841
       potential(ionic) =   -6.206085

   izeta = 2
                 rmatch =    3.653288
              splitnorm =    0.150000
                 energy =   -0.249149
                kinetic =    3.542762
    potential(screened) =   -3.791911
       potential(ionic) =   -7.581078

POLgen: Perturbative polarization orbital with L=  2

POLgen: Polarization orbital for state 2p

   izeta = 1
                     rc =    5.658549
                 energy =    1.109913
                kinetic =    2.304789
    potential(screened) =   -1.194876
       potential(ionic) =   -4.013592
atom: Total number of Sankey-type orbitals: 13

atm_pop: Valence configuration (for local Pseudopot. screening):
 2s( 2.00)                                                            
 2p( 2.00)                                                            
Vna: chval, zval:    4.00000   4.00000

Vna:  Cut-off radius for the neutral-atom potential:   5.658549
comcore: Pseudo-core radius Rcore=  1.791422

atom: _________________________________________________________________________

prinput: Basis input ----------------------------------------------------------

PAO.BasisType split     

%block ChemicalSpeciesLabel
    1    5 B                       # Species index, atomic number, species label
    2    6 C                       # Species index, atomic number, species label
%endblock ChemicalSpeciesLabel

%block PAO.Basis                 # Define Basis set
B                     2                    # Species label, number of l-shells
 n=2   0   2                         # n, l, Nzeta 
   5.422      4.223   
   1.000      1.000   
 n=2   1   2 P   1                   # n, l, Nzeta, Polarization, NzetaPol
   6.790      4.609   
   1.000      1.000   
C                     2                    # Species label, number of l-shells
 n=2   0   2                         # n, l, Nzeta 
   4.633      3.432   
   1.000      1.000   
 n=2   1   2 P   1                   # n, l, Nzeta, Polarization, NzetaPol
   5.659      3.653   
   1.000      1.000   
%endblock PAO.Basis

prinput: ----------------------------------------------------------------------

coor:   Atomic-coordinates input format  =     Fractional

siesta: Atomic coordinates (Bohr) and species
siesta:      4.63094  34.85847   0.00000  1        1
siesta:     -0.02582  13.34970   0.00000  1        2
siesta:      2.30256  14.69411   0.00000  1        3
siesta:      2.30256  17.38257   0.00000  1        4
siesta:      6.95932  25.44831   0.00000  1        5
siesta:     -2.35420  14.69411   0.00000  1        6
siesta:     -2.35420  17.38257   0.00000  1        7
siesta:     -0.02582  18.72698   0.00000  1        8
siesta:     -0.02582  21.41544   0.00000  1        9
siesta:      2.30256  22.75985   0.00000  1       10
siesta:      2.30256  25.44831   0.00000  1       11
siesta:     -4.68258  21.41544   0.00000  1       12
siesta:     -2.35420  22.75985   0.00000  1       13
siesta:     -2.35420  25.44831   0.00000  1       14
siesta:     -7.01096  22.75985   0.00000  1       15
siesta:     -7.01096  25.44831   0.00000  1       16
siesta:      4.63094  26.79272   0.00000  1       17
siesta:      4.63094  29.48119   0.00000  1       18
siesta:     -0.02582  26.79272   0.00000  1       19
siesta:     -0.02582  29.48119   0.00000  1       20
siesta:     -4.68258  26.79272   0.00000  1       21
siesta:      2.30256  30.82560   0.00000  1       22
siesta:      2.30256  33.51406   0.00000  1       23
siesta:     -0.02582   2.59549   0.00000  2       24
siesta:     -0.02582   5.28395   0.00000  2       25
siesta:     -2.35420  38.89134   0.00000  2       26
siesta:     -2.35420  41.57980   0.00000  2       27
siesta:      2.30256  38.89134   0.00000  2       28
siesta:      2.30256  41.57980   0.00000  2       29
siesta:      4.63094  37.54693   0.00000  2       30
siesta:      6.95932  30.82560   0.00000  2       31
siesta:      6.95932  33.51406   0.00000  2       32
siesta:      9.28770  26.79272   0.00000  2       33
siesta:      9.28770  29.48119   0.00000  2       34
siesta:     -4.68258  34.85847   0.00000  2       35
siesta:     -4.68258  37.54693   0.00000  2       36
siesta:      2.30256   6.62836   0.00000  2       37
siesta:      2.30256   9.31683   0.00000  2       38
siesta:      4.63094  10.66124   0.00000  2       39
siesta:      4.63094  13.34970   0.00000  2       40
siesta:      6.95932  14.69411   0.00000  2       41
siesta:      6.95932  17.38257   0.00000  2       42
siesta:      9.28770  18.72698   0.00000  2       43
siesta:      9.28770  21.41544   0.00000  2       44
siesta:     11.61608  22.75985   0.00000  2       45
siesta:     11.61608  25.44831   0.00000  2       46
siesta:     -2.35420   6.62836   0.00000  2       47
siesta:     -2.35420   9.31683   0.00000  2       48
siesta:     -0.02582  10.66124   0.00000  2       49
siesta:      4.63094  18.72698   0.00000  2       50
siesta:      4.63094  21.41544   0.00000  2       51
siesta:      6.95932  22.75985   0.00000  2       52
siesta:     -4.68258  10.66124   0.00000  2       53
siesta:     -4.68258  13.34970   0.00000  2       54
siesta:     -7.01096  14.69411   0.00000  2       55
siesta:     -7.01096  17.38257   0.00000  2       56
siesta:     -4.68258  18.72698   0.00000  2       57
siesta:     -9.33934  18.72698   0.00000  2       58
siesta:     -9.33934  21.41544   0.00000  2       59
siesta:    -11.66772  22.75985   0.00000  2       60
siesta:    -11.66772  25.44831   0.00000  2       61
siesta:     -9.33934  26.79272   0.00000  2       62
siesta:     -9.33934  29.48119   0.00000  2       63
siesta:     -4.68258  29.48119   0.00000  2       64
siesta:     -2.35420  30.82560   0.00000  2       65
siesta:     -2.35420  33.51406   0.00000  2       66
siesta:     -7.01096  30.82560   0.00000  2       67
siesta:     -7.01096  33.51406   0.00000  2       68
siesta:     -0.02582  34.85847   0.00000  2       69
siesta:     -0.02582  37.54693   0.00000  2       70
siesta:     -0.02582  42.92421   0.00000  2       71
siesta:     -0.02582  45.61267   0.00000  2       72

siesta: System type = slab      

initatomlists: Number of atoms, orbitals, and projectors:     72   936  1152

siesta: ******************** Simulation parameters ****************************
siesta:
siesta: The following are some of the parameters of the simulation.
siesta: A complete list of the parameters used, including default values,
siesta: can be found in file out.fdf
siesta:
redata: Non-Collinear-spin run           =     F
redata: SpinPolarized (Up/Down) run      =     F
redata: Number of spin components        =     1
redata: Long output                      =     F
redata: Number of Atomic Species         =        2
redata: Charge density info will appear in .RHO file
redata: Write Mulliken Pop.              =     NO
redata: Mesh Cutoff                      =   200.0000  Ry
redata: Net charge of the system         =     0.0000 |e|
redata: Max. number of SCF Iter          =      500
redata: SCF convergence failure will abort job
redata: Performing Pulay mixing using    =    10 iterations
redata: Mix DM in first SCF step ?       =     F
redata: Write Pulay info on disk?        =     F
redata: Discard 1st Pulay DM after  kick =     F
redata: New DM Mixing Weight             =     0.0500
redata: New DM Occupancy tolerance       = 0.000000000001
redata: No kicks to SCF
redata: DM Mixing Weight for Kicks       =     0.5000
redata: DM Tolerance for SCF             =     0.000100
redata: Require Energy convergence for SCF =     F
redata: DM Energy tolerance for SCF      =     0.000100 eV
redata: Require Harris convergence for SCF =     F
redata: DM Harris energy tolerance for SCF =     0.000100 eV
redata: Using Saved Data (generic)   =     F
redata: Use continuation files for DM    =     T
redata: Neglect nonoverlap interactions  =     F
redata: Method of Calculation            =     Diagonalization
redata: Divide and Conquer               =     T
redata: Electronic Temperature           =     0.0019  Ry
redata: Fix the spin of the system       =     F
redata: Dynamics option                  =     Verlet MD run
redata: Initial MD time step             =        1
redata:   Final MD time step             =        1
redata: Length of MD time step           =     1.0000  fs
redata: Initial Temperature of MD run    =     0.0000  K
redata: Perform a MD quench              =     F
redata: ***********************************************************************
Total number of electrons:   265.000000
Total ionic charge:   265.000000

* ProcessorY, Blocksize:    2  24

k-point displ. along   1 input, could be:     0.50    0.00
k-point displ. along   2 input, could be:     0.50    0.00
 Kpoints in:          231 . Kpoints trimmed:          231

siesta: k-grid: Number of k-points =   231
siesta: k-grid: Cutoff (effective) =     5.000 Ang
siesta: k-grid: Supercell and displacements
siesta: k-grid:   21   0   0      0.500
siesta: k-grid:    0  21   0      0.500
siesta: k-grid:    0   0   1      0.000
Naive supercell factors:     2    2    2

superc: Internal auxiliary supercell:     2 x     2 x     2  =       8
superc: Number of atoms, orbitals, and projectors:    576   7488   9216

* Maximum dynamic memory allocated =     4 MB

siesta:                 ==============================
                            Begin MD step =      1
                        ==============================

superc: Internal auxiliary supercell:     2 x     2 x     2  =       8
superc: Number of atoms, orbitals, and projectors:    576   7488   9216

outcell: Unit cell vectors (Ang):
       12.804619    7.392750    0.000000
        0.000000   14.785500    0.000000
        0.000000    0.000000   10.000000

outcell: Cell vector modules (Ang)   :   14.785500   14.785500   10.000000
outcell: Cell angles (23,13,12) (deg):     90.0000     90.0000     60.0000
outcell: Cell volume (Ang**3)        :   1893.2269
New_DM. Step:     1
Initializing Density Matrix...

InitMesh: MESH =   120 x   120 x    90 =     1296000
InitMesh: Mesh cutoff (required, used) =   200.000   223.865 Ry

* Maximum dynamic memory allocated =   221 MB

stepf: Fermi-Dirac step function

siesta: Program's energy decomposition (eV):
siesta: Ebs     =     -5471.951850
siesta: Eions   =     15457.706713
siesta: Ena     =      4159.299286
siesta: Ekin    =      5165.204314
siesta: Enl     =       834.463650
siesta: DEna    =        -0.000007
siesta: DUscf   =         0.000000
siesta: DUext   =         0.000000
siesta: Exc     =     -4204.721288
siesta: eta*DQ  =         0.000000
siesta: Emadel  =         0.000000
siesta: Emeta   =         0.000000
siesta: Emolmec =         0.000000
siesta: Ekinion =         0.000000
siesta: Eharris =     -9269.356169
siesta: Etot    =     -9503.460758
siesta: FreeEng =     -9503.460758

siesta: iscf   Eharris(eV)      E_KS(eV)   FreeEng(eV)   dDmax  Ef(eV)
siesta:    1    -9269.3562    -9503.4608    -9503.4608  6.9006 -8.3975
timer: Routine,Calls,Time,% = IterSCF        1    4435.942  99.74
elaps: Routine,Calls,Wall,% = IterSCF        1     555.156  99.74
siesta:    2   -14632.0825    -8449.3183    -8449.3810 21.4144 -3.6654
siesta:    3    -9208.0551    -9386.0313    -9386.0885  3.9840 -6.9050
siesta:    4    -9184.3970    -9260.3624    -9260.3958  1.6685 -6.1084
siesta:    5    -9138.8994    -9165.0089    -9165.1020  1.1280 -5.7010
siesta:    6    -9121.3367    -9131.7945    -9131.8437  1.0385 -5.5170
siesta:    7    -9114.2738    -9112.8853    -9112.9201  0.7220 -5.4627
siesta:    8    -9111.8040    -9105.7957    -9105.8681  0.6812 -5.4732
siesta:    9    -9110.7552    -9092.8879    -9092.9443  0.4978 -5.3130
siesta:   10    -9110.0059    -9087.0872    -9087.1262  0.3986 -5.3002
siesta:   11    -9109.2871    -9081.7035    -9081.7672  0.2656 -5.2565
siesta:   12    -9109.7455    -9078.3976    -9078.4589  0.4028 -5.1874
siesta:   13    -9109.5304    -9078.3196    -9078.3875  0.2020 -5.2243
siesta:   14    -9108.9552    -9083.2328    -9083.2814  0.1860 -5.2735
siesta:   15    -9108.5519    -9091.8322    -9091.8855  0.0904 -5.3255
siesta:   16    -9108.4710    -9097.1859    -9097.2548  0.1115 -5.3553
siesta:   17    -9108.4129    -9100.7335    -9100.7957  0.0400 -5.3607
siesta:   18    -9108.3772    -9103.2434    -9103.3092  0.0493 -5.3626
siesta:   19    -9108.3587    -9105.3101    -9105.3740  0.0370 -5.3575
siesta:   20    -9108.3527    -9106.9550    -9107.0194  0.0565 -5.3588
siesta:   21    -9108.3520    -9108.1167    -9108.1808  0.0490 -5.3514
siesta:   22    -9108.3479    -9109.0631    -9109.1264  0.0159 -5.3396
siesta:   23    -9108.3469    -9109.0187    -9109.0848  0.0106 -5.3397
siesta:   24    -9108.3449    -9109.1732    -9109.2388  0.0069 -5.3374
siesta:   25    -9108.3447    -9109.1293    -9109.1957  0.0058 -5.3372
siesta:   26    -9108.3448    -9108.8908    -9108.9569  0.0029 -5.3371
siesta:   27    -9108.3447    -9108.7564    -9108.8221  0.0022 -5.3365
siesta:   28    -9108.3446    -9108.5665    -9108.6324  0.0018 -5.3362
siesta:   29    -9108.3447    -9108.5060    -9108.5719  0.0007 -5.3364
siesta:   30    -9108.3446    -9108.4417    -9108.5076  0.0010 -5.3369
siesta:   31    -9108.3446    -9108.4132    -9108.4791  0.0004 -5.3371
siesta:   32    -9108.3446    -9108.3847    -9108.4507  0.0003 -5.3371
siesta:   33    -9108.3446    -9108.3713    -9108.4372  0.0003 -5.3371
siesta:   34    -9108.3446    -9108.3514    -9108.4174  0.0002 -5.3372
siesta:   35    -9108.3446    -9108.3493    -9108.4152  0.0001 -5.3372

siesta: E_KS(eV) =            -9108.3464

siesta: E_KS - E_eggbox =     -9108.3464

siesta: Atomic forces (eV/Ang):
----------------------------------------
   Tot   -0.166421   -0.007471    0.000000
----------------------------------------
   Max  558.630684
   Res  139.558115    sqrt( Sum f_i^2 / 3N )
----------------------------------------
   Max  558.630684    constrained

Stress-tensor-Voigt (kbar):     -792.42    -2604.57       -0.73       -5.40        0.00        0.00
(Free)E + p*V (eV/cell)    -7770.1078
Target enthalpy (eV/cell)    -9108.4123

siesta: Stress tensor (static) (eV/Ang**3):
        -0.494585   -0.003371    0.000000
        -0.003371   -1.625630    0.000000
         0.000000    0.000000   -0.000457

siesta: Pressure (static):       1132.57603795  kBar

siesta: Stress tensor (total) (eV/Ang**3):
        -0.494585   -0.003371    0.000000
        -0.003371   -1.625630    0.000000
         0.000000    0.000000   -0.000457

siesta: Pressure (total):       1132.57603795  kBar

siesta: Temp_ion =       0.000 K

* Maximum dynamic memory allocated =   238 MB
Computing bands...

siesta: Program's energy decomposition (eV):
siesta: Ebs     =     -4069.840795
siesta: Eions   =     15457.706713
siesta: Ena     =      4159.299286
siesta: Ekin    =      7994.807088
siesta: Enl     =      -756.206419
siesta: DEna    =      -780.936916
siesta: DUscf   =       105.263876
siesta: DUext   =         0.000000
siesta: Exc     =     -4372.866584
siesta: eta*DQ  =         0.000000
siesta: Emadel  =         0.000000
siesta: Emeta   =         0.000000
siesta: Emolmec =         0.000000
siesta: Ekinion =         0.000000
siesta: Eharris =     -9108.344598
siesta: Etot    =     -9108.346382
siesta: FreeEng =     -9108.412288

siesta: Final energy (eV):
siesta:  Band Struct. =   -4069.840795
siesta:       Kinetic =    7994.807088
siesta:       Hartree =   25840.677916
siesta:    Ext. field =       0.000000
siesta:   Exch.-corr. =   -4372.866584
siesta:  Ion-electron =  -59368.868598
siesta:       Ion-ion =   20797.903796
siesta:       Ekinion =       0.000000
siesta:         Total =   -9108.346382

siesta: Atomic forces (eV/Ang):
siesta:      1   20.947439    0.491673    0.000000
siesta:      2   -0.485703 -103.460978    0.000000
siesta:      3   16.974908  400.758403    0.000000
siesta:      4   19.824815    0.852332    0.000000
siesta:      5    2.857130   -2.579957    0.000000
siesta:      6  -16.554935  397.594168    0.000000
siesta:      7  -20.371388    0.679291    0.000000
siesta:      8    0.728603  411.813666    0.000000
siesta:      9   -0.697406    0.410017    0.000000
siesta:     10    3.872692   -3.058207    0.000000
siesta:     11   -1.102235    1.040134    0.000000
siesta:     12    0.336786   -4.062587    0.000000
siesta:     13    0.262165   -0.044093    0.000000
siesta:     14    0.782660   -1.063465    0.000000
siesta:     15   -3.035486   -2.068636    0.000000
siesta:     16   -3.150396    2.086492    0.000000
siesta:     17   -1.040804   -0.715830    0.000000
siesta:     18    1.557376    3.119784    0.000000
siesta:     19   -0.139676    1.599152    0.000000
siesta:     20    0.491199 -408.816201    0.000000
siesta:     21    0.369081    4.221121    0.000000
siesta:     22   14.887314    0.468621    0.000000
siesta:     23   21.020631 -403.279940    0.000000
siesta:     24   -3.079965  405.204411    0.000000
siesta:     25    5.094103 -126.033269    0.000000
siesta:     26    1.819749  124.276094    0.000000
siesta:     27  -16.144335 -404.547511    0.000000
siesta:     28   -0.420280  122.440417    0.000000
siesta:     29   15.681327 -407.785374    0.000000
siesta:     30   30.260266 -551.352982    0.000000
siesta:     31    7.438933    3.241921    0.000000
siesta:     32   -0.143565   -0.740830    0.000000
siesta:     33    6.141420    4.810750    0.000000
siesta:     34   -1.351893   -0.425332    0.000000
siesta:     35  -26.330905    3.880529    0.000000
siesta:     36  -34.212954 -551.386356    0.000000
siesta:     37   16.383297  407.539529    0.000000
siesta:     38    2.932355 -122.485548    0.000000
siesta:     39   32.478968  556.423709    0.000000
siesta:     40   24.240756    0.250405    0.000000
siesta:     41   -2.096026   -2.237260    0.000000
siesta:     42    2.792077   -0.285484    0.000000
siesta:     43   -1.125574   -0.460451    0.000000
siesta:     44    2.621577   -2.306976    0.000000
siesta:     45    0.202246    6.818611    0.000000
siesta:     46   -0.442670   -7.299078    0.000000
siesta:     47  -19.029380  551.083406    0.000000
siesta:     48    0.234121 -124.796969    0.000000
siesta:     49   -5.255157  541.927524    0.000000
siesta:     50    0.576390    2.114898    0.000000
siesta:     51    3.955552   -1.625603    0.000000
siesta:     52   -0.774872   -3.158932    0.000000
siesta:     53  -29.672674  550.919066    0.000000
siesta:     54  -24.558244    1.113411    0.000000
siesta:     55    2.266031   -2.414431    0.000000
siesta:     56   -3.304710   -0.633606    0.000000
siesta:     57   -0.313223   -1.905811    0.000000
siesta:     58    1.798447   -0.276071    0.000000
siesta:     59   -6.507173   -3.703457    0.000000
siesta:     60    0.084954    5.629052    0.000000
siesta:     61    0.276607   -5.889730    0.000000
siesta:     62   -6.409073    3.694303    0.000000
siesta:     63    1.469655   -0.131749    0.000000
siesta:     64    1.880475    2.410031    0.000000
siesta:     65  -23.603152    3.599625    0.000000
siesta:     66  -25.312835 -558.630684    0.000000
siesta:     67   -2.290738    1.180858    0.000000
siesta:     68    2.826935    1.859356    0.000000
siesta:     69    6.978342  117.599022    0.000000
siesta:     70    3.311371 -550.787658    0.000000
siesta:     71   -0.174962  124.888422    0.000000
siesta:     72    0.307217 -407.596632    0.000000
siesta: ----------------------------------------
siesta:    Tot   -0.166421   -0.007471    0.000000

siesta: Stress tensor (static) (eV/Ang**3):
siesta:    -0.494585   -0.003371    0.000000
siesta:    -0.003371   -1.625630    0.000000
siesta:     0.000000    0.000000   -0.000457

siesta: Cell volume =       1893.226884 Ang**3

siesta: Pressure (static):
siesta:                Solid            Molecule  Units
siesta:           0.00769894          0.10648464  Ry/Bohr**3
siesta:           0.70689072          9.77705717  eV/Ang**3
siesta:        1132.57603795      15664.74185995  kBar
(Free)E+ p_basis*V_orbitals  =       -9070.407743
(Free)Eharris+ p_basis*V_orbitals  =       -9070.403076

siesta: Electric dipole (a.u.)  =    0.000000    0.000000    0.000000
siesta: Electric dipole (Debye) =    0.000000    0.000000    0.000000

* Maximum dynamic memory allocated : Node    0 =   238 MB
* Maximum dynamic memory allocated : Node    1 =    82 MB
* Maximum dynamic memory allocated : Node    2 =    86 MB
* Maximum dynamic memory allocated : Node    3 =   227 MB
* Maximum dynamic memory allocated : Node    4 =   235 MB
* Maximum dynamic memory allocated : Node    5 =    85 MB
* Maximum dynamic memory allocated : Node    6 =    88 MB
* Maximum dynamic memory allocated : Node    7 =   215 MB

* Maximum memory occured during matrixMtoO                    

timer: CPU execution times:
timer:  Routine       Calls   Time/call    Tot.time        %
timer:  siesta            1  153014.703  153014.703   100.00
timer:  Setup             1       3.091       3.091     0.00
timer:  bands             3     268.992     806.976     0.53
timer:  writewave         1       0.021       0.021     0.00
timer:  KSV_init          1       0.001       0.001     0.00
timer:  IterMD            1  152198.787  152198.787    99.47
timer:  hsparse           1       0.399       0.399     0.00
timer:  overlap           1       7.783       7.783     0.01
timer:  IterSCF          35    4341.989  151969.608    99.32
timer:  kinefsm           2       4.044       8.088     0.01
timer:  nlefsm            2      21.207      42.414     0.03
timer:  DHSCF            36     123.108    4431.904     2.90
timer:  DHSCF1            1       0.996       0.996     0.00
timer:  DHSCF2            1      44.644      44.644     0.03
timer:  REORD           290       0.010       2.905     0.00
timer:  POISON           37       2.260      83.629     0.05
timer:  DHSCF3           36     120.536    4339.304     2.84
timer:  rhoofd           36      27.043     973.545     0.64
timer:  cellXC           36       3.520     126.738     0.08
timer:  vmat             36      58.571    2108.566     1.38
timer:  MolMec            2       0.000       0.000     0.00
timer:  diagon           35    4217.752  147621.332    96.48
timer:  c-eigval       8206       6.680   54819.063    35.83
timer:  c-buildHS      8206       0.123    1009.942     0.66
timer:  cdiag         16291       6.886  112178.177    73.31
timer:  cdiag1        16291       0.429    6992.287     4.57
timer:  cdiag2        16291       1.909   31098.794    20.32
timer:  cdiag3        16291       3.944   64254.073    41.99
timer:  cdiag4        16291       0.225    3671.481     2.40
timer:  c-eigvec       8085       7.285   58897.202    38.49
timer:  c-buildD       8085       4.288   34665.026    22.65
timer:  DHSCF4            1      45.080      45.080     0.03
timer:  dfscf             1      42.361      42.361     0.03
timer:  overfsm           1       0.496       0.496     0.00
timer:  optical           1       5.100       5.100     0.00
  

elaps: ELAPSED times:
elaps:  Routine       Calls   Time/call    Tot.time        %
elaps:  siesta            1   19148.062   19148.062   100.00
elaps:  Setup             1       0.386       0.386     0.00
elaps:  bands             3      33.675     101.026     0.53
elaps:  writewave         1       0.002       0.002     0.00
elaps:  KSV_init          1       0.000       0.000     0.00
elaps:  IterMD            1   19045.977   19045.977    99.47
elaps:  hsparse           1       0.048       0.048     0.00
elaps:  overlap           1       0.976       0.976     0.01
elaps:  IterSCF          35     543.352   19017.312    99.32
elaps:  kinefsm           2       0.504       1.009     0.01
elaps:  nlefsm            2       2.740       5.479     0.03
elaps:  DHSCF            36      15.546     559.654     2.92
elaps:  DHSCF1            1       0.125       0.125     0.00
elaps:  DHSCF2            1       5.588       5.588     0.03
elaps:  REORD           290       0.001       0.391     0.00
elaps:  POISON           37       0.283      10.458     0.05
elaps:  DHSCF3           36      15.080     542.864     2.84
elaps:  rhoofd           36       6.871     247.363     1.29
elaps:  cellXC           36       0.440      15.823     0.08
elaps:  vmat             36       7.327     263.774     1.38
elaps:  MolMec            2       0.000       0.000     0.00
elaps:  diagon           35     527.822   18473.754    96.48
elaps:  c-eigval       8206       0.836    6858.936    35.82
elaps:  c-buildHS      8206       0.017     136.708     0.71
elaps:  cdiag         16291       0.855   13931.237    72.76
elaps:  cdiag1        16291       0.053     865.500     4.52
elaps:  cdiag2        16291       0.239    3891.176    20.32
elaps:  cdiag3        16291       0.494    8050.569    42.04
elaps:  cdiag4        16291       0.028     462.553     2.42
elaps:  c-eigvec       8085       0.902    7291.705    38.08
elaps:  c-buildD       8085       0.546    4416.653    23.07
elaps:  DHSCF4            1      10.817      10.817     0.06
elaps:  dfscf             1      10.291      10.291     0.05
elaps:  overfsm           1       0.057       0.057     0.00
elaps:  optical           1       0.000       0.000     0.00
  
>> End of run:  24-APR-2016   9:52:04
