Siesta Version:                                        siesta-3.2-pl-3
Architecture  : x86_64-unknown-linux-gnu--unknown
Compiler flags: mpiifort -g -O2 -fPIC -xSSE4.1 -fp-model source -shared-intel 
PARALLEL version

* Running on    8 nodes in parallel
>> Start of run:  21-APR-2016   8:11:30

                           ***********************       
                           *  WELCOME TO SIESTA  *       
                           ***********************       

reinit: Reading from standard input
************************** Dump of input data file ****************************
#(1) General system descriptors
SystemName            GRP_doping    # Descriptive name of the system
SystemLabel           GRP_doping    # Short name for naming files
%include STRUCT.fdf
%include KPT.fdf
%include BASIS.fdf
#%include TS.fdf # for transiesta calculation
#(4) DFT, Grid, SCF
XC.functional         GGA           # LDA or GGA (default = LDA)
XC.authors            PBE           # CA (Ceperley-Aldr) = PZ
                                    #    (Perdew-Zunger) - LDA - Default
                                    # PW92 (Perdew-Wang-92) - LDA
                                    # PBE (Perdew-Burke-Ernzerhof) - GGA
MeshCutoff            200.000000    Ry      # Default: 50.0 Ry ~ 0.444 Bohr
                                    #         100.0 Ry ~ 0.314 Bohr
MaxSCFIterations      500           # Default: 50
DM.MixingWeight       0.05          # Default: 0.25
DM.NumberPulay        10            # Default: 0
DM.PulayOnFile        F             # SystemLabel.P1, SystemLabel.P2
DM.Tolerance          1.d-4         # Default: 1.d-4
DM.UseSaveDM          .true.        # because of the bug
SCFMustConverge       .true.
NeglNonOverlapInt     F             # Default: F
#(5) Eigenvalue problem: order-N or diagonalization
SolutionMethod        Diagon        # or Transiesta
ElectronicTemperature 300.0 K       # Default: 300.0 K
#(6) Molecular dynamics and relaxations
#MD.TypeOfRun          CG            # Type of dynamics:
#MD.VariableCell       F
#MD.NumCGsteps         0           # 0 for single-point / 100 for gopt
#MD.MaxCGDispl         0.2 Bohr      # Default: 0.2 Bohr
#MD.MaxForceTol        0.02 eV/Ang   # Default: 0.04 eV/Ang
#MD.MaxStressTol       1.0 GPa       # Default: 1.0 GPa
# Geometry Constraints
#%block GeometryConstraints
#	position from 1 to 44
#%endblock GeometryConstraints
BandLinesScale   pi/a
%block BandLines
 1   0.00000000  0.00000000  0.00000000
50   0.00000000  0.07809418  0.00000000
50   0.04509075  0.07809242  0.00000000
20   0.00000000  0.00000000  0.00000000
%endblock BandLines
************************** End of input data file *****************************

reinit: -----------------------------------------------------------------------
reinit: System Name: GRP_doping
reinit: -----------------------------------------------------------------------
reinit: System Label: GRP_doping                                                  
reinit: -----------------------------------------------------------------------

initatom: Reading input for the pseudopotentials and atomic orbitals ----------
 Species number:            1  Label: B Atomic number:           5
 Species number:            2  Label: C Atomic number:           6
Ground state valence configuration:   2s02  2p01
Reading pseudopotential information in formatted form from B.psf

Valence configuration for pseudopotential generation:
2s( 2.00) rc: 1.74
2p( 1.00) rc: 1.74
3d( 0.00) rc: 1.74
4f( 0.00) rc: 1.74
Ground state valence configuration:   2s02  2p02
Reading pseudopotential information in formatted form from C.psf

Valence configuration for pseudopotential generation:
2s( 2.00) rc: 1.54
2p( 2.00) rc: 1.54
3d( 0.00) rc: 1.54
4f( 0.00) rc: 1.54
For B, standard SIESTA heuristics set lmxkb to 3
 (one more than the basis l, including polarization orbitals).
Use PS.lmax or PS.KBprojectors blocks to override.
For C, standard SIESTA heuristics set lmxkb to 3
 (one more than the basis l, including polarization orbitals).
Use PS.lmax or PS.KBprojectors blocks to override.

<basis_specs>
===============================================================================
B                    Z=   5    Mass=  10.810        Charge= 0.17977+309
Lmxo=1 Lmxkb= 3    BasisType=split      Semic=F
L=0  Nsemic=0  Cnfigmx=2
          n=1  nzeta=2  polorb=0
            splnorm:   0.15000    
               vcte:    0.0000    
               rinn:    0.0000    
                rcs:    0.0000      0.0000    
            lambdas:    1.0000      1.0000    
L=1  Nsemic=0  Cnfigmx=2
          n=1  nzeta=2  polorb=1
            splnorm:   0.15000    
               vcte:    0.0000    
               rinn:    0.0000    
                rcs:    0.0000      0.0000    
            lambdas:    1.0000      1.0000    
-------------------------------------------------------------------------------
L=0  Nkbl=1  erefs: 0.17977+309
L=1  Nkbl=1  erefs: 0.17977+309
L=2  Nkbl=1  erefs: 0.17977+309
L=3  Nkbl=1  erefs: 0.17977+309
===============================================================================
</basis_specs>

atom: Called for B                     (Z =   5)

read_vps: Pseudopotential generation method:
read_vps: ATM3      Troullier-Martins                       
Total valence charge:    3.00000

read_vps: Pseudopotential includes a core correction:
read_vps: Pseudo-core for xc-correction

xc_check: Exchange-correlation functional:
xc_check: GGA Perdew, Burke & Ernzerhof 1996
V l=0 = -2*Zval/r beyond r=  1.7165
V l=1 = -2*Zval/r beyond r=  1.7165
V l=2 = -2*Zval/r beyond r=  1.7165
V l=3 = -2*Zval/r beyond r=  1.6951
All V_l potentials equal beyond r=  1.7165
This should be close to max(r_c) in ps generation
All pots = -2*Zval/r beyond r=  1.7165

VLOCAL1: 99.0% of the norm of Vloc inside     14.733 Ry
VLOCAL1: 99.9% of the norm of Vloc inside     33.577 Ry
atom: Maximum radius for 4*pi*r*r*local-pseudopot. charge    2.04484
atom: Maximum radius for r*vlocal+2*Zval:    1.75994
GHOST: No ghost state for L =  0
GHOST: No ghost state for L =  1
GHOST: No ghost state for L =  2
GHOST: No ghost state for L =  3

KBgen: Kleinman-Bylander projectors: 
   l= 0   rc=  1.897051   el= -0.693730   Ekb=  4.595746   kbcos=  0.286105
   l= 1   rc=  1.920920   el= -0.265236   Ekb= -2.350715   kbcos= -0.315747
   l= 2   rc=  2.044840   el=  0.002055   Ekb= -0.690767   kbcos= -0.013822
   l= 3   rc=  2.149707   el=  0.003188   Ekb= -0.315358   kbcos= -0.002055

KBgen: Total number of  Kleinman-Bylander projectors:   16
atom: -------------------------------------------------------------------------

atom: SANKEY-TYPE ORBITALS:
atom: Selected multiple-zeta basis: split     

SPLIT: Orbitals with angular momentum L= 0

SPLIT: Basis orbitals for state 2s

SPLIT: PAO cut-off radius determined from an
SPLIT: energy shift=  0.007350 Ry

   izeta = 1
                 lambda =    1.000000
                     rc =    5.422032
                 energy =   -0.686029
                kinetic =    0.576707
    potential(screened) =   -1.262736
       potential(ionic) =   -3.271094

   izeta = 2
                 rmatch =    4.222573
              splitnorm =    0.150000
                 energy =   -0.602132
                kinetic =    0.858975
    potential(screened) =   -1.461107
       potential(ionic) =   -3.582536

SPLIT: Orbitals with angular momentum L= 1

SPLIT: Basis orbitals for state 2p

SPLIT: PAO cut-off radius determined from an
SPLIT: energy shift=  0.007350 Ry

   izeta = 1
                 lambda =    1.000000
                     rc =    6.790259
                 energy =   -0.258578
                kinetic =    1.481412
    potential(screened) =   -1.739989
       potential(ionic) =   -3.657461

   izeta = 2
                 rmatch =    4.608740
              splitnorm =    0.150000
                 energy =   -0.173757
                kinetic =    2.186690
    potential(screened) =   -2.360447
       potential(ionic) =   -4.464260

POLgen: Perturbative polarization orbital with L=  2

POLgen: Polarization orbital for state 2p

   izeta = 1
                     rc =    6.790259
                 energy =    0.684082
                kinetic =    1.471481
    potential(screened) =   -0.787399
       potential(ionic) =   -2.406985
atom: Total number of Sankey-type orbitals: 13

atm_pop: Valence configuration (for local Pseudopot. screening):
 2s( 2.00)                                                            
 2p( 1.00)                                                            
Vna: chval, zval:    3.00000   3.00000

Vna:  Cut-off radius for the neutral-atom potential:   6.790259
comcore: Pseudo-core radius Rcore=  2.122997

atom: _________________________________________________________________________

<basis_specs>
===============================================================================
C                    Z=   6    Mass=  12.010        Charge= 0.17977+309
Lmxo=1 Lmxkb= 3    BasisType=split      Semic=F
L=0  Nsemic=0  Cnfigmx=2
          n=1  nzeta=2  polorb=0
            splnorm:   0.15000    
               vcte:    0.0000    
               rinn:    0.0000    
                rcs:    0.0000      0.0000    
            lambdas:    1.0000      1.0000    
L=1  Nsemic=0  Cnfigmx=2
          n=1  nzeta=2  polorb=1
            splnorm:   0.15000    
               vcte:    0.0000    
               rinn:    0.0000    
                rcs:    0.0000      0.0000    
            lambdas:    1.0000      1.0000    
-------------------------------------------------------------------------------
L=0  Nkbl=1  erefs: 0.17977+309
L=1  Nkbl=1  erefs: 0.17977+309
L=2  Nkbl=1  erefs: 0.17977+309
L=3  Nkbl=1  erefs: 0.17977+309
===============================================================================
</basis_specs>

atom: Called for C                     (Z =   6)

read_vps: Pseudopotential generation method:
read_vps: ATM3      Troullier-Martins                       
Total valence charge:    4.00000

read_vps: Pseudopotential includes a core correction:
read_vps: Pseudo-core for xc-correction

xc_check: Exchange-correlation functional:
xc_check: GGA Perdew, Burke & Ernzerhof 1996
V l=0 = -2*Zval/r beyond r=  1.5227
V l=1 = -2*Zval/r beyond r=  1.5227
V l=2 = -2*Zval/r beyond r=  1.5227
V l=3 = -2*Zval/r beyond r=  1.5038
All V_l potentials equal beyond r=  1.5227
This should be close to max(r_c) in ps generation
All pots = -2*Zval/r beyond r=  1.5227

VLOCAL1: 99.0% of the norm of Vloc inside     18.722 Ry
VLOCAL1: 99.9% of the norm of Vloc inside     42.668 Ry
atom: Maximum radius for 4*pi*r*r*local-pseudopot. charge    1.83678
atom: Maximum radius for r*vlocal+2*Zval:    1.58088
GHOST: No ghost state for L =  0
GHOST: No ghost state for L =  1
GHOST: No ghost state for L =  2
GHOST: No ghost state for L =  3

KBgen: Kleinman-Bylander projectors: 
   l= 0   rc=  1.704034   el= -1.009801   Ekb=  5.335044   kbcos=  0.316824
   l= 1   rc=  1.704034   el= -0.388707   Ekb= -3.785862   kbcos= -0.366464
   l= 2   rc=  1.791422   el=  0.001971   Ekb= -0.970471   kbcos= -0.009212
   l= 3   rc=  1.859892   el=  0.003065   Ekb= -0.399525   kbcos= -0.001223

KBgen: Total number of  Kleinman-Bylander projectors:   16
atom: -------------------------------------------------------------------------

atom: SANKEY-TYPE ORBITALS:
atom: Selected multiple-zeta basis: split     

SPLIT: Orbitals with angular momentum L= 0

SPLIT: Basis orbitals for state 2s

SPLIT: PAO cut-off radius determined from an
SPLIT: energy shift=  0.007350 Ry

   izeta = 1
                 lambda =    1.000000
                     rc =    4.632753
                 energy =   -1.002270
                kinetic =    0.855760
    potential(screened) =   -1.858031
       potential(ionic) =   -5.417575

   izeta = 2
                 rmatch =    3.431921
              splitnorm =    0.150000
                 energy =   -0.867111
                kinetic =    1.300804
    potential(screened) =   -2.167915
       potential(ionic) =   -5.962684

SPLIT: Orbitals with angular momentum L= 1

SPLIT: Basis orbitals for state 2p

SPLIT: PAO cut-off radius determined from an
SPLIT: energy shift=  0.007350 Ry

   izeta = 1
                 lambda =    1.000000
                     rc =    5.658549
                 energy =   -0.381140
                kinetic =    2.399701
    potential(screened) =   -2.780841
       potential(ionic) =   -6.206085

   izeta = 2
                 rmatch =    3.653288
              splitnorm =    0.150000
                 energy =   -0.249149
                kinetic =    3.542762
    potential(screened) =   -3.791911
       potential(ionic) =   -7.581078

POLgen: Perturbative polarization orbital with L=  2

POLgen: Polarization orbital for state 2p

   izeta = 1
                     rc =    5.658549
                 energy =    1.109913
                kinetic =    2.304789
    potential(screened) =   -1.194876
       potential(ionic) =   -4.013592
atom: Total number of Sankey-type orbitals: 13

atm_pop: Valence configuration (for local Pseudopot. screening):
 2s( 2.00)                                                            
 2p( 2.00)                                                            
Vna: chval, zval:    4.00000   4.00000

Vna:  Cut-off radius for the neutral-atom potential:   5.658549
comcore: Pseudo-core radius Rcore=  1.791422

atom: _________________________________________________________________________

prinput: Basis input ----------------------------------------------------------

PAO.BasisType split     

%block ChemicalSpeciesLabel
    1    5 B                       # Species index, atomic number, species label
    2    6 C                       # Species index, atomic number, species label
%endblock ChemicalSpeciesLabel

%block PAO.Basis                 # Define Basis set
B                     2                    # Species label, number of l-shells
 n=2   0   2                         # n, l, Nzeta 
   5.422      4.223   
   1.000      1.000   
 n=2   1   2 P   1                   # n, l, Nzeta, Polarization, NzetaPol
   6.790      4.609   
   1.000      1.000   
C                     2                    # Species label, number of l-shells
 n=2   0   2                         # n, l, Nzeta 
   4.633      3.432   
   1.000      1.000   
 n=2   1   2 P   1                   # n, l, Nzeta, Polarization, NzetaPol
   5.659      3.653   
   1.000      1.000   
%endblock PAO.Basis

prinput: ----------------------------------------------------------------------

coor:   Atomic-coordinates input format  =     Fractional

siesta: Atomic coordinates (Bohr) and species
siesta:     -0.02582   2.59549   0.00000  1        1
siesta:     -0.02582   5.28395   0.00000  1        2
siesta:     -2.35420  38.89134   0.00000  1        3
siesta:     -2.35420  41.57980   0.00000  1        4
siesta:     -4.68258  34.85847   0.00000  1        5
siesta:     -4.68258  37.54693   0.00000  1        6
siesta:     -2.35420   6.62836   0.00000  1        7
siesta:     -2.35420   9.31683   0.00000  1        8
siesta:      2.30256  14.69411   0.00000  1        9
siesta:      4.63094  18.72698   0.00000  1       10
siesta:      6.95932  22.75985   0.00000  1       11
siesta:     -4.68258  10.66124   0.00000  1       12
siesta:     -4.68258  13.34970   0.00000  1       13
siesta:     -7.01096  14.69411   0.00000  1       14
siesta:     -7.01096  17.38257   0.00000  1       15
siesta:     -9.33934  18.72698   0.00000  1       16
siesta:     -9.33934  21.41544   0.00000  1       17
siesta:    -11.66772  22.75985   0.00000  1       18
siesta:    -11.66772  25.44831   0.00000  1       19
siesta:     -9.33934  26.79272   0.00000  1       20
siesta:     -9.33934  29.48119   0.00000  1       21
siesta:     -7.01096  30.82560   0.00000  1       22
siesta:     -7.01096  33.51406   0.00000  1       23
siesta:     -0.02582  42.92421   0.00000  1       24
siesta:     -0.02582  45.61267   0.00000  1       25
siesta:      2.30256  38.89134   0.00000  2       26
siesta:      2.30256  41.57980   0.00000  2       27
siesta:      4.63094  34.85847   0.00000  2       28
siesta:      4.63094  37.54693   0.00000  2       29
siesta:      6.95932  30.82560   0.00000  2       30
siesta:      6.95932  33.51406   0.00000  2       31
siesta:      9.28770  26.79272   0.00000  2       32
siesta:      9.28770  29.48119   0.00000  2       33
siesta:      2.30256   6.62836   0.00000  2       34
siesta:      2.30256   9.31683   0.00000  2       35
siesta:      4.63094  10.66124   0.00000  2       36
siesta:      4.63094  13.34970   0.00000  2       37
siesta:      6.95932  14.69411   0.00000  2       38
siesta:      6.95932  17.38257   0.00000  2       39
siesta:      9.28770  18.72698   0.00000  2       40
siesta:      9.28770  21.41544   0.00000  2       41
siesta:     11.61608  22.75985   0.00000  2       42
siesta:     11.61608  25.44831   0.00000  2       43
siesta:     -0.02582  10.66124   0.00000  2       44
siesta:     -0.02582  13.34970   0.00000  2       45
siesta:      2.30256  17.38257   0.00000  2       46
siesta:      4.63094  21.41544   0.00000  2       47
siesta:      6.95932  25.44831   0.00000  2       48
siesta:     -2.35420  14.69411   0.00000  2       49
siesta:     -2.35420  17.38257   0.00000  2       50
siesta:     -0.02582  18.72698   0.00000  2       51
siesta:     -0.02582  21.41544   0.00000  2       52
siesta:      2.30256  22.75985   0.00000  2       53
siesta:      2.30256  25.44831   0.00000  2       54
siesta:     -4.68258  18.72698   0.00000  2       55
siesta:     -4.68258  21.41544   0.00000  2       56
siesta:     -2.35420  22.75985   0.00000  2       57
siesta:     -2.35420  25.44831   0.00000  2       58
siesta:     -7.01096  22.75985   0.00000  2       59
siesta:     -7.01096  25.44831   0.00000  2       60
siesta:      4.63094  26.79272   0.00000  2       61
siesta:      4.63094  29.48119   0.00000  2       62
siesta:     -0.02582  26.79272   0.00000  2       63
siesta:     -0.02582  29.48119   0.00000  2       64
siesta:     -4.68258  26.79272   0.00000  2       65
siesta:     -4.68258  29.48119   0.00000  2       66
siesta:      2.30256  30.82560   0.00000  2       67
siesta:      2.30256  33.51406   0.00000  2       68
siesta:     -2.35420  30.82560   0.00000  2       69
siesta:     -2.35420  33.51406   0.00000  2       70
siesta:     -0.02582  34.85847   0.00000  2       71
siesta:     -0.02582  37.54693   0.00000  2       72

siesta: System type = slab      

initatomlists: Number of atoms, orbitals, and projectors:     72   936  1152

siesta: ******************** Simulation parameters ****************************
siesta:
siesta: The following are some of the parameters of the simulation.
siesta: A complete list of the parameters used, including default values,
siesta: can be found in file out.fdf
siesta:
redata: Non-Collinear-spin run           =     F
redata: SpinPolarized (Up/Down) run      =     F
redata: Number of spin components        =     1
redata: Long output                      =     F
redata: Number of Atomic Species         =        2
redata: Charge density info will appear in .RHO file
redata: Write Mulliken Pop.              =     NO
redata: Mesh Cutoff                      =   200.0000  Ry
redata: Net charge of the system         =     0.0000 |e|
redata: Max. number of SCF Iter          =      500
redata: SCF convergence failure will abort job
redata: Performing Pulay mixing using    =    10 iterations
redata: Mix DM in first SCF step ?       =     F
redata: Write Pulay info on disk?        =     F
redata: Discard 1st Pulay DM after  kick =     F
redata: New DM Mixing Weight             =     0.0500
redata: New DM Occupancy tolerance       = 0.000000000001
redata: No kicks to SCF
redata: DM Mixing Weight for Kicks       =     0.5000
redata: DM Tolerance for SCF             =     0.000100
redata: Require Energy convergence for SCF =     F
redata: DM Energy tolerance for SCF      =     0.000100 eV
redata: Require Harris convergence for SCF =     F
redata: DM Harris energy tolerance for SCF =     0.000100 eV
redata: Using Saved Data (generic)   =     F
redata: Use continuation files for DM    =     T
redata: Neglect nonoverlap interactions  =     F
redata: Method of Calculation            =     Diagonalization
redata: Divide and Conquer               =     T
redata: Electronic Temperature           =     0.0019  Ry
redata: Fix the spin of the system       =     F
redata: Dynamics option                  =     Verlet MD run
redata: Initial MD time step             =        1
redata:   Final MD time step             =        1
redata: Length of MD time step           =     1.0000  fs
redata: Initial Temperature of MD run    =     0.0000  K
redata: Perform a MD quench              =     F
redata: ***********************************************************************
Total number of electrons:   263.000000
Total ionic charge:   263.000000

* ProcessorY, Blocksize:    2  24

k-point displ. along   1 input, could be:     0.50    0.00
k-point displ. along   2 input, could be:     0.50    0.00
 Kpoints in:          231 . Kpoints trimmed:          231

siesta: k-grid: Number of k-points =   231
siesta: k-grid: Cutoff (effective) =     5.000 Ang
siesta: k-grid: Supercell and displacements
siesta: k-grid:   21   0   0      0.500
siesta: k-grid:    0  21   0      0.500
siesta: k-grid:    0   0   1      0.000
Naive supercell factors:     2    2    2

superc: Internal auxiliary supercell:     2 x     2 x     2  =       8
superc: Number of atoms, orbitals, and projectors:    576   7488   9216

* Maximum dynamic memory allocated =     4 MB

siesta:                 ==============================
                            Begin MD step =      1
                        ==============================

superc: Internal auxiliary supercell:     2 x     2 x     2  =       8
superc: Number of atoms, orbitals, and projectors:    576   7488   9216

outcell: Unit cell vectors (Ang):
       12.804619    7.392750    0.000000
        0.000000   14.785500    0.000000
        0.000000    0.000000   10.000000

outcell: Cell vector modules (Ang)   :   14.785500   14.785500   10.000000
outcell: Cell angles (23,13,12) (deg):     90.0000     90.0000     60.0000
outcell: Cell volume (Ang**3)        :   1893.2269
New_DM. Step:     1
Initializing Density Matrix...

InitMesh: MESH =   120 x   120 x    90 =     1296000
InitMesh: Mesh cutoff (required, used) =   200.000   223.865 Ry

* Maximum dynamic memory allocated =   235 MB

stepf: Fermi-Dirac step function

siesta: Program's energy decomposition (eV):
siesta: Ebs     =     -5390.735491
siesta: Eions   =     15201.593291
siesta: Ena     =      4115.574370
siesta: Ekin    =      5059.728642
siesta: Enl     =       852.702945
siesta: DEna    =        -0.000006
siesta: DUscf   =         0.000000
siesta: DUext   =         0.000000
siesta: Exc     =     -4196.707896
siesta: eta*DQ  =         0.000000
siesta: Emadel  =         0.000000
siesta: Emeta   =         0.000000
siesta: Emolmec =         0.000000
siesta: Ekinion =         0.000000
siesta: Eharris =     -9197.998340
siesta: Etot    =     -9370.295236
siesta: FreeEng =     -9370.295236

siesta: iscf   Eharris(eV)      E_KS(eV)   FreeEng(eV)   dDmax  Ef(eV)
siesta:    1    -9197.9983    -9370.2952    -9370.2952  7.5823 -8.5426
timer: Routine,Calls,Time,% = IterSCF        1    4543.695  99.73
elaps: Routine,Calls,Wall,% = IterSCF        1     568.753  99.72
siesta:    2   -14971.5639    -8252.9278    -8252.9844 17.1918 -6.5120
siesta:    3    -9351.6882    -9165.8763    -9165.9245  1.6650 -5.2201
siesta:    4    -9215.0898    -9125.0983    -9125.1412  1.5823 -5.1563
siesta:    5    -9159.4208    -9086.1073    -9086.1651  1.5704 -5.0487
siesta:    6    -9107.0945    -9059.9036    -9059.9593  1.5000 -5.0096
siesta:    7    -9075.9120    -9041.4938    -9041.5341  1.4137 -4.8899
siesta:    8    -9047.3047    -9027.5004    -9027.5422  0.9814 -5.0604
siesta:    9    -9045.9996    -9020.6090    -9020.6450  1.0023 -4.9940
siesta:   10    -9043.8610    -9020.9155    -9020.9706  0.7600 -5.0159
siesta:   11    -9042.6101    -9020.7330    -9020.7949  0.4754 -5.0224
siesta:   12    -9043.4011    -9016.3421    -9016.3984  0.7031 -4.8240
siesta:   13    -9042.7420    -9018.5401    -9018.5894  0.5086 -4.9584
siesta:   14    -9041.4270    -9023.1329    -9023.1819  0.3137 -4.9522
siesta:   15    -9041.1235    -9025.3560    -9025.4118  0.2258 -4.9974
siesta:   16    -9040.9364    -9027.0391    -9027.0755  0.3186 -5.0236
siesta:   17    -9040.6295    -9029.4236    -9029.4801  0.2410 -4.9808
siesta:   18    -9040.5426    -9029.7757    -9029.8433  0.2412 -4.9886
siesta:   19    -9040.5695    -9031.5859    -9031.6471  0.3171 -4.9628
siesta:   20    -9040.3225    -9033.4076    -9033.4663  0.3120 -5.0021
siesta:   21    -9040.3471    -9033.5094    -9033.5813  0.1886 -5.0224
siesta:   22    -9040.3207    -9035.6665    -9035.7212  0.2692 -5.0219
siesta:   23    -9040.2875    -9038.1849    -9038.2633  0.1977 -5.0422
siesta:   24    -9040.2090    -9038.8510    -9038.9238  0.0775 -5.0559
siesta:   25    -9040.1842    -9039.0456    -9039.1244  0.0559 -5.0533
siesta:   26    -9040.1707    -9039.1877    -9039.2598  0.0639 -5.0492
siesta:   27    -9040.1686    -9038.9380    -9039.0146  0.0240 -5.0398
siesta:   28    -9040.1678    -9039.0829    -9039.1569  0.0336 -5.0353
siesta:   29    -9040.1621    -9039.2354    -9039.3100  0.0137 -5.0353
siesta:   30    -9040.1622    -9039.2628    -9039.3364  0.0175 -5.0353
siesta:   31    -9040.1611    -9039.4411    -9039.5142  0.0082 -5.0377
siesta:   32    -9040.1625    -9039.7130    -9039.7870  0.0175 -5.0397
siesta:   33    -9040.1615    -9040.0572    -9040.1296  0.0144 -5.0410
siesta:   34    -9040.1602    -9040.1696    -9040.2427  0.0037 -5.0418
siesta:   35    -9040.1592    -9040.2145    -9040.2887  0.0088 -5.0414
siesta:   36    -9040.1595    -9040.1655    -9040.2403  0.0067 -5.0415
siesta:   37    -9040.1599    -9040.1362    -9040.2107  0.0033 -5.0407
siesta:   38    -9040.1598    -9040.1500    -9040.2240  0.0028 -5.0399
siesta:   39    -9040.1598    -9040.1539    -9040.2279  0.0023 -5.0399
siesta:   40    -9040.1597    -9040.1648    -9040.2389  0.0017 -5.0405
siesta:   41    -9040.1599    -9040.1573    -9040.2315  0.0012 -5.0405
siesta:   42    -9040.1598    -9040.1687    -9040.2427  0.0005 -5.0406
siesta:   43    -9040.1598    -9040.1633    -9040.2374  0.0005 -5.0405
siesta:   44    -9040.1598    -9040.1647    -9040.2387  0.0003 -5.0405
siesta:   45    -9040.1598    -9040.1636    -9040.2376  0.0002 -5.0404
siesta:   46    -9040.1598    -9040.1650    -9040.2391  0.0003 -5.0405
siesta:   47    -9040.1598    -9040.1640    -9040.2380  0.0001 -5.0404

siesta: E_KS(eV) =            -9040.1618

siesta: E_KS - E_eggbox =     -9040.1618

siesta: Atomic forces (eV/Ang):
----------------------------------------
   Tot    0.007729   -0.097021    0.000000
----------------------------------------
   Max  561.965178
   Res  132.258114    sqrt( Sum f_i^2 / 3N )
----------------------------------------
   Max  561.965178    constrained

Stress-tensor-Voigt (kbar):     -699.49    -2414.76       -0.71        1.93        0.00        0.00
(Free)E + p*V (eV/cell)    -7813.3106
Target enthalpy (eV/cell)    -9040.2359

siesta: Stress tensor (static) (eV/Ang**3):
        -0.436579    0.001202    0.000000
         0.001202   -1.507156    0.000000
         0.000000    0.000000   -0.000446

siesta: Pressure (static):       1038.31841310  kBar

siesta: Stress tensor (total) (eV/Ang**3):
        -0.436579    0.001202    0.000000
         0.001202   -1.507156    0.000000
         0.000000    0.000000   -0.000446

siesta: Pressure (total):       1038.31841310  kBar

siesta: Temp_ion =       0.000 K

* Maximum dynamic memory allocated =   253 MB
Computing bands...

siesta: Program's energy decomposition (eV):
siesta: Ebs     =     -4030.021079
siesta: Eions   =     15201.593291
siesta: Ena     =      4115.574370
siesta: Ekin    =      7806.043769
siesta: Enl     =      -765.068433
siesta: DEna    =      -734.309567
siesta: DUscf   =        98.628211
siesta: DUext   =         0.000000
siesta: Exc     =     -4359.436896
siesta: eta*DQ  =         0.000000
siesta: Emadel  =         0.000000
siesta: Emeta   =         0.000000
siesta: Emolmec =         0.000000
siesta: Ekinion =         0.000000
siesta: Eharris =     -9040.159790
siesta: Etot    =     -9040.161838
siesta: FreeEng =     -9040.235893

siesta: Final energy (eV):
siesta:  Band Struct. =   -4030.021079
siesta:       Kinetic =    7806.043769
siesta:       Hartree =   25504.603730
siesta:    Ext. field =       0.000000
siesta:   Exch.-corr. =   -4359.436896
siesta:  Ion-electron =  -58535.803669
siesta:       Ion-ion =   20544.431229
siesta:       Ekinion =       0.000000
siesta:         Total =   -9040.161838

siesta: Atomic forces (eV/Ang):
siesta:      1    0.855636  410.055753    0.000000
siesta:      2   -4.244585 -107.611266    0.000000
siesta:      3   -1.489772  103.320040    0.000000
siesta:      4    3.740829 -404.321628    0.000000
siesta:      5  -16.796768   -0.741896    0.000000
siesta:      6  -20.775371 -289.310084    0.000000
siesta:      7    2.121483  401.504451    0.000000
siesta:      8   -1.843493 -103.405831    0.000000
siesta:      9   19.261547  403.151034    0.000000
siesta:     10   -1.291041    0.441607    0.000000
siesta:     11   -1.100273    0.704212    0.000000
siesta:     12  -21.212836  289.376314    0.000000
siesta:     13  -16.810225    0.466579    0.000000
siesta:     14   -3.734495   -2.569422    0.000000
siesta:     15    0.506989   -1.935037    0.000000
siesta:     16   -4.912521   -1.863633    0.000000
siesta:     17   -0.335076    0.960814    0.000000
siesta:     18   -6.143880   -2.546738    0.000000
siesta:     19   -6.052584    2.407616    0.000000
siesta:     20   -0.579731   -0.771953    0.000000
siesta:     21   -4.421214    1.614717    0.000000
siesta:     22    0.201823    2.061359    0.000000
siesta:     23   -3.514326    2.571836    0.000000
siesta:     24   -7.175006  111.254536    0.000000
siesta:     25   -0.951544 -408.512030    0.000000
siesta:     26    0.264967  127.044918    0.000000
siesta:     27   12.345355 -400.809097    0.000000
siesta:     28   26.467394    3.669770    0.000000
siesta:     29   32.513944 -551.080011    0.000000
siesta:     30    1.612386   -0.299318    0.000000
siesta:     31   -2.210572    2.195543    0.000000
siesta:     32    2.045608    2.437819    0.000000
siesta:     33   -0.638841    0.652617    0.000000
siesta:     34    9.255136  545.341384    0.000000
siesta:     35    1.215228 -128.166995    0.000000
siesta:     36   30.656089  551.375970    0.000000
siesta:     37   25.501032   -0.151431    0.000000
siesta:     38   -2.330608   -2.013107    0.000000
siesta:     39    6.469497   -2.292461    0.000000
siesta:     40   -2.253513   -0.425102    0.000000
siesta:     41    6.439644   -4.265541    0.000000
siesta:     42   -0.544407    5.319235    0.000000
siesta:     43    0.367483   -4.915448    0.000000
siesta:     44   -7.534248  542.000744    0.000000
siesta:     45   -0.144007 -119.435376    0.000000
siesta:     46   19.276951   -3.688564    0.000000
siesta:     47   -2.681519    2.124112    0.000000
siesta:     48   -0.596827    2.851538    0.000000
siesta:     49  -29.774043  416.716609    0.000000
siesta:     50  -22.806786   -2.153822    0.000000
siesta:     51    0.996507  416.761089    0.000000
siesta:     52   -0.449277    3.270615    0.000000
siesta:     53   -0.251313   -0.806631    0.000000
siesta:     54   -1.353361    0.772516    0.000000
siesta:     55    4.180352    2.636215    0.000000
siesta:     56   -0.471980    0.740961    0.000000
siesta:     57    1.135855   -0.564150    0.000000
siesta:     58    0.995546    0.491917    0.000000
siesta:     59    4.015485    0.914590    0.000000
siesta:     60    4.180111   -0.879094    0.000000
siesta:     61    1.127036    0.237376    0.000000
siesta:     62   -0.968852   -1.055400    0.000000
siesta:     63    0.290338   -3.436627    0.000000
siesta:     64   -1.501390 -421.217298    0.000000
siesta:     65   -0.402017   -0.973820    0.000000
siesta:     66    4.293665   -2.133742    0.000000
siesta:     67   21.061935    5.359847    0.000000
siesta:     68   33.630777 -561.965178    0.000000
siesta:     69  -21.543766    0.616432    0.000000
siesta:     70  -34.129330 -414.052132    0.000000
siesta:     71   -9.814787  131.255165    0.000000
siesta:     72  -11.232714 -544.405004    0.000000
siesta: ----------------------------------------
siesta:    Tot    0.007729   -0.097021    0.000000

siesta: Stress tensor (static) (eV/Ang**3):
siesta:    -0.436579    0.001202    0.000000
siesta:     0.001202   -1.507156    0.000000
siesta:     0.000000    0.000000   -0.000446

siesta: Cell volume =       1893.226884 Ang**3

siesta: Pressure (static):
siesta:                Solid            Molecule  Units
siesta:           0.00705820          0.09974985  Ry/Bohr**3
siesta:           0.64806037          9.15869159  eV/Ang**3
siesta:        1038.31841310      14674.00026786  kBar
(Free)E+ p_basis*V_orbitals  =       -9001.599442
(Free)Eharris+ p_basis*V_orbitals  =       -9001.595281

siesta: Electric dipole (a.u.)  =    0.000000    0.000000    0.000000
siesta: Electric dipole (Debye) =    0.000000    0.000000    0.000000

* Maximum dynamic memory allocated : Node    0 =   253 MB
* Maximum dynamic memory allocated : Node    1 =    88 MB
* Maximum dynamic memory allocated : Node    2 =    92 MB
* Maximum dynamic memory allocated : Node    3 =   239 MB
* Maximum dynamic memory allocated : Node    4 =   232 MB
* Maximum dynamic memory allocated : Node    5 =    85 MB
* Maximum dynamic memory allocated : Node    6 =    87 MB
* Maximum dynamic memory allocated : Node    7 =   212 MB

* Maximum memory occured during matrixMtoO                    

timer: CPU execution times:
timer:  Routine       Calls   Time/call    Tot.time        %
timer:  siesta            1  210930.636  210930.636   100.00
timer:  Setup             1       3.805       3.805     0.00
timer:  bands             3     271.144     813.433     0.39
timer:  writewave         1       0.041       0.041     0.00
timer:  KSV_init          1       0.008       0.008     0.00
timer:  IterMD            1  210107.702  210107.702    99.61
timer:  hsparse           1       0.397       0.397     0.00
timer:  overlap           1       7.795       7.795     0.00
timer:  IterSCF          47    4465.045  209857.137    99.49
timer:  kinefsm           2       4.052       8.104     0.00
timer:  nlefsm            2      22.314      44.627     0.02
timer:  DHSCF            48     137.418    6596.056     3.13
timer:  DHSCF1            1       0.996       0.996     0.00
timer:  DHSCF2            1      46.483      46.483     0.02
timer:  REORD           386       0.010       3.915     0.00
timer:  POISON           49       2.239     109.731     0.05
timer:  DHSCF3           48     135.425    6500.389     3.08
timer:  rhoofd           48      27.645    1326.936     0.63
timer:  cellXC           48       3.523     169.098     0.08
timer:  vmat             48      65.402    3139.319     1.49
timer:  MolMec            2       0.000       0.000     0.00
timer:  diagon           47    4325.919  203318.209    96.39
timer:  c-eigval      10978       6.718   73750.913    34.96
timer:  c-buildHS     10978       0.125    1373.329     0.65
timer:  cdiag         21835       6.905  150770.551    71.48
timer:  cdiag1        21835       0.431    9412.555     4.46
timer:  cdiag2        21835       1.931   42172.520    19.99
timer:  cdiag3        21835       3.953   86318.307    40.92
timer:  cdiag4        21835       0.221    4817.699     2.28
timer:  c-eigvec      10857       7.298   79231.848    37.56
timer:  c-buildD      10857       4.705   51086.743    24.22
timer:  DHSCF4            1      45.646      45.646     0.02
timer:  dfscf             1      42.887      42.887     0.02
timer:  overfsm           1       0.492       0.492     0.00
timer:  optical           1       5.000       5.000     0.00
  

elaps: ELAPSED times:
elaps:  Routine       Calls   Time/call    Tot.time        %
elaps:  siesta            1   26397.561   26397.561   100.00
elaps:  Setup             1       0.491       0.491     0.00
elaps:  bands             3      33.945     101.836     0.39
elaps:  writewave         1       0.005       0.005     0.00
elaps:  KSV_init          1       0.001       0.001     0.00
elaps:  IterMD            1   26294.574   26294.574    99.61
elaps:  hsparse           1       0.050       0.050     0.00
elaps:  overlap           1       0.975       0.975     0.00
elaps:  IterSCF          47     558.795   26263.368    99.49
elaps:  kinefsm           2       0.505       1.011     0.00
elaps:  nlefsm            2       2.756       5.512     0.02
elaps:  DHSCF            48      17.314     831.082     3.15
elaps:  DHSCF1            1       0.124       0.124     0.00
elaps:  DHSCF2            1       5.814       5.814     0.02
elaps:  REORD           386       0.001       0.519     0.00
elaps:  POISON           49       0.280      13.725     0.05
elaps:  DHSCF3           48      16.942     813.204     3.08
elaps:  rhoofd           48       7.981     383.087     1.45
elaps:  cellXC           48       0.440      21.123     0.08
elaps:  vmat             48       8.181     392.712     1.49
elaps:  MolMec            2       0.000       0.000     0.00
elaps:  diagon           47     541.399   25445.731    96.39
elaps:  c-eigval      10978       0.841    9227.686    34.96
elaps:  c-buildHS     10978       0.017     186.618     0.71
elaps:  cdiag         21835       0.852   18607.654    70.49
elaps:  cdiag1        21835       0.053    1165.285     4.41
elaps:  cdiag2        21835       0.242    5276.775    19.99
elaps:  cdiag3        21835       0.495   10814.806    40.97
elaps:  cdiag4        21835       0.028     603.300     2.29
elaps:  c-eigvec      10857       0.893    9691.470    36.71
elaps:  c-buildD      10857       0.610    6619.700    25.08
elaps:  DHSCF4            1      11.594      11.594     0.04
elaps:  dfscf             1      11.015      11.015     0.04
elaps:  overfsm           1       0.062       0.062     0.00
elaps:  optical           1       0.001       0.001     0.00
  
>> End of run:  21-APR-2016  15:31:28
