Siesta Version:                                        siesta-3.2-pl-3
Architecture  : x86_64-unknown-linux-gnu--unknown
Compiler flags: mpiifort -g -O2 -fPIC -xSSE4.1 -fp-model source -shared-intel 
PARALLEL version

* Running on    8 nodes in parallel
>> Start of run:  15-APR-2016  15:06:58

                           ***********************       
                           *  WELCOME TO SIESTA  *       
                           ***********************       

reinit: Reading from standard input
************************** Dump of input data file ****************************
#(1) General system descriptors
SystemName            GRP_doping    # Descriptive name of the system
SystemLabel           GRP_doping    # Short name for naming files
%include STRUCT.fdf
%include KPT.fdf
%include BASIS.fdf
#%include TS.fdf # for transiesta calculation
#(4) DFT, Grid, SCF
XC.functional         GGA           # LDA or GGA (default = LDA)
XC.authors            PBE           # CA (Ceperley-Aldr) = PZ
                                    #    (Perdew-Zunger) - LDA - Default
                                    # PW92 (Perdew-Wang-92) - LDA
                                    # PBE (Perdew-Burke-Ernzerhof) - GGA
MeshCutoff            200.000000    Ry      # Default: 50.0 Ry ~ 0.444 Bohr
                                    #         100.0 Ry ~ 0.314 Bohr
MaxSCFIterations      500           # Default: 50
DM.MixingWeight       0.05          # Default: 0.25
DM.NumberPulay        10            # Default: 0
DM.PulayOnFile        F             # SystemLabel.P1, SystemLabel.P2
DM.Tolerance          1.d-4         # Default: 1.d-4
DM.UseSaveDM          .true.        # because of the bug
SCFMustConverge       .true.
NeglNonOverlapInt     F             # Default: F
#(5) Eigenvalue problem: order-N or diagonalization
SolutionMethod        Diagon        # or Transiesta
ElectronicTemperature 300.0 K       # Default: 300.0 K
#(6) Molecular dynamics and relaxations
#MD.TypeOfRun          CG            # Type of dynamics:
#MD.VariableCell       F
#MD.NumCGsteps         0           # 0 for single-point / 100 for gopt
#MD.MaxCGDispl         0.2 Bohr      # Default: 0.2 Bohr
#MD.MaxForceTol        0.02 eV/Ang   # Default: 0.04 eV/Ang
#MD.MaxStressTol       1.0 GPa       # Default: 1.0 GPa
# Geometry Constraints
#%block GeometryConstraints
#	position from 1 to 44
#%endblock GeometryConstraints
BandLinesScale   pi/a
%block BandLines
 1   0.00000000  0.00000000  0.00000000
50   0.00000000  0.07809418  0.00000000
50   0.04509075  0.07809242  0.00000000
20   0.00000000  0.00000000  0.00000000
%endblock BandLines
************************** End of input data file *****************************

reinit: -----------------------------------------------------------------------
reinit: System Name: GRP_doping
reinit: -----------------------------------------------------------------------
reinit: System Label: GRP_doping                                                  
reinit: -----------------------------------------------------------------------

initatom: Reading input for the pseudopotentials and atomic orbitals ----------
 Species number:            1  Label: N Atomic number:           7
 Species number:            2  Label: C Atomic number:           6
Ground state valence configuration:   2s02  2p03
Reading pseudopotential information in formatted form from N.psf

Valence configuration for pseudopotential generation:
2s( 2.00) rc: 1.48
2p( 3.00) rc: 1.48
3d( 0.00) rc: 1.48
4f( 0.00) rc: 1.48
Ground state valence configuration:   2s02  2p02
Reading pseudopotential information in formatted form from C.psf

Valence configuration for pseudopotential generation:
2s( 2.00) rc: 1.54
2p( 2.00) rc: 1.54
3d( 0.00) rc: 1.54
4f( 0.00) rc: 1.54
For N, standard SIESTA heuristics set lmxkb to 3
 (one more than the basis l, including polarization orbitals).
Use PS.lmax or PS.KBprojectors blocks to override.
For C, standard SIESTA heuristics set lmxkb to 3
 (one more than the basis l, including polarization orbitals).
Use PS.lmax or PS.KBprojectors blocks to override.

<basis_specs>
===============================================================================
N                    Z=   7    Mass=  14.010        Charge= 0.17977+309
Lmxo=1 Lmxkb= 3    BasisType=split      Semic=F
L=0  Nsemic=0  Cnfigmx=2
          n=1  nzeta=2  polorb=0
            splnorm:   0.15000    
               vcte:    0.0000    
               rinn:    0.0000    
                rcs:    0.0000      0.0000    
            lambdas:    1.0000      1.0000    
L=1  Nsemic=0  Cnfigmx=2
          n=1  nzeta=2  polorb=1
            splnorm:   0.15000    
               vcte:    0.0000    
               rinn:    0.0000    
                rcs:    0.0000      0.0000    
            lambdas:    1.0000      1.0000    
-------------------------------------------------------------------------------
L=0  Nkbl=1  erefs: 0.17977+309
L=1  Nkbl=1  erefs: 0.17977+309
L=2  Nkbl=1  erefs: 0.17977+309
L=3  Nkbl=1  erefs: 0.17977+309
===============================================================================
</basis_specs>

atom: Called for N                     (Z =   7)

read_vps: Pseudopotential generation method:
read_vps: ATM3      Troullier-Martins                       
Total valence charge:    5.00000

read_vps: Pseudopotential includes a core correction:
read_vps: Pseudo-core for xc-correction

xc_check: Exchange-correlation functional:
xc_check: GGA Perdew, Burke & Ernzerhof 1996
V l=0 = -2*Zval/r beyond r=  1.4606
V l=1 = -2*Zval/r beyond r=  1.4606
V l=2 = -2*Zval/r beyond r=  1.4606
V l=3 = -2*Zval/r beyond r=  1.4606
All V_l potentials equal beyond r=  1.4606
This should be close to max(r_c) in ps generation
All pots = -2*Zval/r beyond r=  1.4606

VLOCAL1: 99.0% of the norm of Vloc inside     20.347 Ry
VLOCAL1: 99.9% of the norm of Vloc inside     46.372 Ry
atom: Maximum radius for 4*pi*r*r*local-pseudopot. charge    1.76189
atom: Maximum radius for r*vlocal+2*Zval:    1.53550
GHOST: No ghost state for L =  0
GHOST: No ghost state for L =  1
GHOST: No ghost state for L =  2
GHOST: No ghost state for L =  3

KBgen: Kleinman-Bylander projectors: 
   l= 0   rc=  1.634559   el= -1.363963   Ekb=  5.296955   kbcos=  0.335621
   l= 1   rc=  1.614250   el= -0.521451   Ekb= -5.259161   kbcos= -0.433408
   l= 2   rc=  1.718383   el=  0.001991   Ekb= -1.271464   kbcos= -0.007566
   l= 3   rc=  1.761893   el=  0.003093   Ekb= -0.494769   kbcos= -0.001015

KBgen: Total number of  Kleinman-Bylander projectors:   16
atom: -------------------------------------------------------------------------

atom: SANKEY-TYPE ORBITALS:
atom: Selected multiple-zeta basis: split     

SPLIT: Orbitals with angular momentum L= 0

SPLIT: Basis orbitals for state 2s

SPLIT: PAO cut-off radius determined from an
SPLIT: energy shift=  0.007350 Ry

   izeta = 1
                 lambda =    1.000000
                     rc =    4.071465
                 energy =   -1.356470
                kinetic =    1.176977
    potential(screened) =   -2.533447
       potential(ionic) =   -8.057990

   izeta = 2
                 rmatch =    2.905100
              splitnorm =    0.150000
                 energy =   -1.158343
                kinetic =    1.813009
    potential(screened) =   -2.971352
       potential(ionic) =   -8.901931

SPLIT: Orbitals with angular momentum L= 1

SPLIT: Basis orbitals for state 2p

SPLIT: PAO cut-off radius determined from an
SPLIT: energy shift=  0.007350 Ry

   izeta = 1
                 lambda =    1.000000
                     rc =    4.972977
                 energy =   -0.513884
                kinetic =    3.441732
    potential(screened) =   -3.955616
       potential(ionic) =   -9.287901

   izeta = 2
                 rmatch =    3.054066
              splitnorm =    0.150000
                 energy =   -0.318226
                kinetic =    5.125348
    potential(screened) =   -5.443573
       potential(ionic) =  -11.380999

POLgen: Perturbative polarization orbital with L=  2

POLgen: Polarization orbital for state 2p

   izeta = 1
                     rc =    4.972977
                 energy =    1.607437
                kinetic =    3.268125
    potential(screened) =   -1.660688
       potential(ionic) =   -5.973652
atom: Total number of Sankey-type orbitals: 13

atm_pop: Valence configuration (for local Pseudopot. screening):
 2s( 2.00)                                                            
 2p( 3.00)                                                            
Vna: chval, zval:    5.00000   5.00000

Vna:  Cut-off radius for the neutral-atom potential:   4.972977
comcore: Pseudo-core radius Rcore=  1.554824

atom: _________________________________________________________________________

<basis_specs>
===============================================================================
C                    Z=   6    Mass=  12.010        Charge= 0.17977+309
Lmxo=1 Lmxkb= 3    BasisType=split      Semic=F
L=0  Nsemic=0  Cnfigmx=2
          n=1  nzeta=2  polorb=0
            splnorm:   0.15000    
               vcte:    0.0000    
               rinn:    0.0000    
                rcs:    0.0000      0.0000    
            lambdas:    1.0000      1.0000    
L=1  Nsemic=0  Cnfigmx=2
          n=1  nzeta=2  polorb=1
            splnorm:   0.15000    
               vcte:    0.0000    
               rinn:    0.0000    
                rcs:    0.0000      0.0000    
            lambdas:    1.0000      1.0000    
-------------------------------------------------------------------------------
L=0  Nkbl=1  erefs: 0.17977+309
L=1  Nkbl=1  erefs: 0.17977+309
L=2  Nkbl=1  erefs: 0.17977+309
L=3  Nkbl=1  erefs: 0.17977+309
===============================================================================
</basis_specs>

atom: Called for C                     (Z =   6)

read_vps: Pseudopotential generation method:
read_vps: ATM3      Troullier-Martins                       
Total valence charge:    4.00000

read_vps: Pseudopotential includes a core correction:
read_vps: Pseudo-core for xc-correction

xc_check: Exchange-correlation functional:
xc_check: GGA Perdew, Burke & Ernzerhof 1996
V l=0 = -2*Zval/r beyond r=  1.5227
V l=1 = -2*Zval/r beyond r=  1.5227
V l=2 = -2*Zval/r beyond r=  1.5227
V l=3 = -2*Zval/r beyond r=  1.5038
All V_l potentials equal beyond r=  1.5227
This should be close to max(r_c) in ps generation
All pots = -2*Zval/r beyond r=  1.5227

VLOCAL1: 99.0% of the norm of Vloc inside     18.722 Ry
VLOCAL1: 99.9% of the norm of Vloc inside     42.668 Ry
atom: Maximum radius for 4*pi*r*r*local-pseudopot. charge    1.83678
atom: Maximum radius for r*vlocal+2*Zval:    1.58088
GHOST: No ghost state for L =  0
GHOST: No ghost state for L =  1
GHOST: No ghost state for L =  2
GHOST: No ghost state for L =  3

KBgen: Kleinman-Bylander projectors: 
   l= 0   rc=  1.704034   el= -1.009801   Ekb=  5.335044   kbcos=  0.316824
   l= 1   rc=  1.704034   el= -0.388707   Ekb= -3.785862   kbcos= -0.366464
   l= 2   rc=  1.791422   el=  0.001971   Ekb= -0.970471   kbcos= -0.009212
   l= 3   rc=  1.859892   el=  0.003065   Ekb= -0.399525   kbcos= -0.001223

KBgen: Total number of  Kleinman-Bylander projectors:   16
atom: -------------------------------------------------------------------------

atom: SANKEY-TYPE ORBITALS:
atom: Selected multiple-zeta basis: split     

SPLIT: Orbitals with angular momentum L= 0

SPLIT: Basis orbitals for state 2s

SPLIT: PAO cut-off radius determined from an
SPLIT: energy shift=  0.007350 Ry

   izeta = 1
                 lambda =    1.000000
                     rc =    4.632753
                 energy =   -1.002270
                kinetic =    0.855760
    potential(screened) =   -1.858031
       potential(ionic) =   -5.417575

   izeta = 2
                 rmatch =    3.431921
              splitnorm =    0.150000
                 energy =   -0.867111
                kinetic =    1.300804
    potential(screened) =   -2.167915
       potential(ionic) =   -5.962684

SPLIT: Orbitals with angular momentum L= 1

SPLIT: Basis orbitals for state 2p

SPLIT: PAO cut-off radius determined from an
SPLIT: energy shift=  0.007350 Ry

   izeta = 1
                 lambda =    1.000000
                     rc =    5.658549
                 energy =   -0.381140
                kinetic =    2.399701
    potential(screened) =   -2.780841
       potential(ionic) =   -6.206085

   izeta = 2
                 rmatch =    3.653288
              splitnorm =    0.150000
                 energy =   -0.249149
                kinetic =    3.542762
    potential(screened) =   -3.791911
       potential(ionic) =   -7.581078

POLgen: Perturbative polarization orbital with L=  2

POLgen: Polarization orbital for state 2p

   izeta = 1
                     rc =    5.658549
                 energy =    1.109913
                kinetic =    2.304789
    potential(screened) =   -1.194876
       potential(ionic) =   -4.013592
atom: Total number of Sankey-type orbitals: 13

atm_pop: Valence configuration (for local Pseudopot. screening):
 2s( 2.00)                                                            
 2p( 2.00)                                                            
Vna: chval, zval:    4.00000   4.00000

Vna:  Cut-off radius for the neutral-atom potential:   5.658549
comcore: Pseudo-core radius Rcore=  1.791422

atom: _________________________________________________________________________

prinput: Basis input ----------------------------------------------------------

PAO.BasisType split     

%block ChemicalSpeciesLabel
    1    7 N                       # Species index, atomic number, species label
    2    6 C                       # Species index, atomic number, species label
%endblock ChemicalSpeciesLabel

%block PAO.Basis                 # Define Basis set
N                     2                    # Species label, number of l-shells
 n=2   0   2                         # n, l, Nzeta 
   4.071      2.905   
   1.000      1.000   
 n=2   1   2 P   1                   # n, l, Nzeta, Polarization, NzetaPol
   4.973      3.054   
   1.000      1.000   
C                     2                    # Species label, number of l-shells
 n=2   0   2                         # n, l, Nzeta 
   4.633      3.432   
   1.000      1.000   
 n=2   1   2 P   1                   # n, l, Nzeta, Polarization, NzetaPol
   5.659      3.653   
   1.000      1.000   
%endblock PAO.Basis

prinput: ----------------------------------------------------------------------

coor:   Atomic-coordinates input format  =     Fractional

siesta: Atomic coordinates (Bohr) and species
siesta:     -0.02582  21.41544   0.00000  1        1
siesta:      2.30256  22.75985   0.00000  1        2
siesta:      2.30256  25.44831   0.00000  1        3
siesta:     -2.35420  22.75985   0.00000  1        4
siesta:     -2.35420  25.44831   0.00000  1        5
siesta:     -0.02582  26.79272   0.00000  1        6
siesta:     -0.02582  45.61267   0.00000  1        7
siesta:     -0.02582   2.59549   0.00000  2        8
siesta:     -0.02582   5.28395   0.00000  2        9
siesta:     -2.35420  38.89134   0.00000  2       10
siesta:     -2.35420  41.57980   0.00000  2       11
siesta:      2.30256  38.89134   0.00000  2       12
siesta:      2.30256  41.57980   0.00000  2       13
siesta:      4.63094  34.85847   0.00000  2       14
siesta:      4.63094  37.54693   0.00000  2       15
siesta:      6.95932  30.82560   0.00000  2       16
siesta:      6.95932  33.51406   0.00000  2       17
siesta:      9.28770  26.79272   0.00000  2       18
siesta:      9.28770  29.48119   0.00000  2       19
siesta:     -4.68258  34.85847   0.00000  2       20
siesta:     -4.68258  37.54693   0.00000  2       21
siesta:      2.30256   6.62836   0.00000  2       22
siesta:      2.30256   9.31683   0.00000  2       23
siesta:      4.63094  10.66124   0.00000  2       24
siesta:      4.63094  13.34970   0.00000  2       25
siesta:      6.95932  14.69411   0.00000  2       26
siesta:      6.95932  17.38257   0.00000  2       27
siesta:      9.28770  18.72698   0.00000  2       28
siesta:      9.28770  21.41544   0.00000  2       29
siesta:     11.61608  22.75985   0.00000  2       30
siesta:     11.61608  25.44831   0.00000  2       31
siesta:     -2.35420   6.62836   0.00000  2       32
siesta:     -2.35420   9.31683   0.00000  2       33
siesta:     -0.02582  10.66124   0.00000  2       34
siesta:     -0.02582  13.34970   0.00000  2       35
siesta:      2.30256  14.69411   0.00000  2       36
siesta:      2.30256  17.38257   0.00000  2       37
siesta:      4.63094  18.72698   0.00000  2       38
siesta:      4.63094  21.41544   0.00000  2       39
siesta:      6.95932  22.75985   0.00000  2       40
siesta:      6.95932  25.44831   0.00000  2       41
siesta:     -4.68258  10.66124   0.00000  2       42
siesta:     -4.68258  13.34970   0.00000  2       43
siesta:     -2.35420  14.69411   0.00000  2       44
siesta:     -2.35420  17.38257   0.00000  2       45
siesta:     -0.02582  18.72698   0.00000  2       46
siesta:     -7.01096  14.69411   0.00000  2       47
siesta:     -7.01096  17.38257   0.00000  2       48
siesta:     -4.68258  18.72698   0.00000  2       49
siesta:     -4.68258  21.41544   0.00000  2       50
siesta:     -9.33934  18.72698   0.00000  2       51
siesta:     -9.33934  21.41544   0.00000  2       52
siesta:     -7.01096  22.75985   0.00000  2       53
siesta:     -7.01096  25.44831   0.00000  2       54
siesta:    -11.66772  22.75985   0.00000  2       55
siesta:    -11.66772  25.44831   0.00000  2       56
siesta:     -9.33934  26.79272   0.00000  2       57
siesta:     -9.33934  29.48119   0.00000  2       58
siesta:      4.63094  26.79272   0.00000  2       59
siesta:      4.63094  29.48119   0.00000  2       60
siesta:     -0.02582  29.48119   0.00000  2       61
siesta:     -4.68258  26.79272   0.00000  2       62
siesta:     -4.68258  29.48119   0.00000  2       63
siesta:      2.30256  30.82560   0.00000  2       64
siesta:      2.30256  33.51406   0.00000  2       65
siesta:     -2.35420  30.82560   0.00000  2       66
siesta:     -2.35420  33.51406   0.00000  2       67
siesta:     -7.01096  30.82560   0.00000  2       68
siesta:     -7.01096  33.51406   0.00000  2       69
siesta:     -0.02582  34.85847   0.00000  2       70
siesta:     -0.02582  37.54693   0.00000  2       71
siesta:     -0.02582  42.92421   0.00000  2       72

siesta: System type = slab      

initatomlists: Number of atoms, orbitals, and projectors:     72   936  1152

siesta: ******************** Simulation parameters ****************************
siesta:
siesta: The following are some of the parameters of the simulation.
siesta: A complete list of the parameters used, including default values,
siesta: can be found in file out.fdf
siesta:
redata: Non-Collinear-spin run           =     F
redata: SpinPolarized (Up/Down) run      =     F
redata: Number of spin components        =     1
redata: Long output                      =     F
redata: Number of Atomic Species         =        2
redata: Charge density info will appear in .RHO file
redata: Write Mulliken Pop.              =     NO
redata: Mesh Cutoff                      =   200.0000  Ry
redata: Net charge of the system         =     0.0000 |e|
redata: Max. number of SCF Iter          =      500
redata: SCF convergence failure will abort job
redata: Performing Pulay mixing using    =    10 iterations
redata: Mix DM in first SCF step ?       =     F
redata: Write Pulay info on disk?        =     F
redata: Discard 1st Pulay DM after  kick =     F
redata: New DM Mixing Weight             =     0.0500
redata: New DM Occupancy tolerance       = 0.000000000001
redata: No kicks to SCF
redata: DM Mixing Weight for Kicks       =     0.5000
redata: DM Tolerance for SCF             =     0.000100
redata: Require Energy convergence for SCF =     F
redata: DM Energy tolerance for SCF      =     0.000100 eV
redata: Require Harris convergence for SCF =     F
redata: DM Harris energy tolerance for SCF =     0.000100 eV
redata: Using Saved Data (generic)   =     F
redata: Use continuation files for DM    =     T
redata: Neglect nonoverlap interactions  =     F
redata: Method of Calculation            =     Diagonalization
redata: Divide and Conquer               =     T
redata: Electronic Temperature           =     0.0019  Ry
redata: Fix the spin of the system       =     F
redata: Dynamics option                  =     Verlet MD run
redata: Initial MD time step             =        1
redata:   Final MD time step             =        1
redata: Length of MD time step           =     1.0000  fs
redata: Initial Temperature of MD run    =     0.0000  K
redata: Perform a MD quench              =     F
redata: ***********************************************************************
Total number of electrons:   295.000000
Total ionic charge:   295.000000

* ProcessorY, Blocksize:    2  24

k-point displ. along   1 input, could be:     0.50    0.00
k-point displ. along   2 input, could be:     0.50    0.00
 Kpoints in:          231 . Kpoints trimmed:          231

siesta: k-grid: Number of k-points =   231
siesta: k-grid: Cutoff (effective) =     5.000 Ang
siesta: k-grid: Supercell and displacements
siesta: k-grid:   21   0   0      0.500
siesta: k-grid:    0  21   0      0.500
siesta: k-grid:    0   0   1      0.000
Naive supercell factors:     2    2    2

superc: Internal auxiliary supercell:     2 x     2 x     2  =       8
superc: Number of atoms, orbitals, and projectors:    576   7488   9216

* Maximum dynamic memory allocated =     4 MB

siesta:                 ==============================
                            Begin MD step =      1
                        ==============================

superc: Internal auxiliary supercell:     2 x     2 x     2  =       8
superc: Number of atoms, orbitals, and projectors:    576   7488   9216

outcell: Unit cell vectors (Ang):
       12.804619    7.392750    0.000000
        0.000000   14.785500    0.000000
        0.000000    0.000000   10.000000

outcell: Cell vector modules (Ang)   :   14.785500   14.785500   10.000000
outcell: Cell angles (23,13,12) (deg):     90.0000     90.0000     60.0000
outcell: Cell volume (Ang**3)        :   1893.2269
New_DM. Step:     1
Initializing Density Matrix...

InitMesh: MESH =   120 x   120 x    90 =     1296000
InitMesh: Mesh cutoff (required, used) =   200.000   223.865 Ry

* Maximum dynamic memory allocated =   195 MB

stepf: Fermi-Dirac step function

siesta: Program's energy decomposition (eV):
siesta: Ebs     =     -5998.634439
siesta: Eions   =     19528.238980
siesta: Ena     =      4788.942532
siesta: Ekin    =      6965.634232
siesta: Enl     =       428.332212
siesta: DEna    =        -0.000015
siesta: DUscf   =         0.000000
siesta: DUext   =         0.000000
siesta: Exc     =     -4340.505146
siesta: eta*DQ  =         0.000000
siesta: Emadel  =         0.000000
siesta: Emeta   =         0.000000
siesta: Emolmec =         0.000000
siesta: Ekinion =         0.000000
siesta: Eharris =    -11355.020692
siesta: Etot    =    -11685.835166
siesta: FreeEng =    -11685.835166

siesta: iscf   Eharris(eV)      E_KS(eV)   FreeEng(eV)   dDmax  Ef(eV)
siesta:    1   -11355.0207   -11685.8352   -11685.8352  6.2720 -7.3319
timer: Routine,Calls,Time,% = IterSCF        1    4254.764  99.71
elaps: Routine,Calls,Wall,% = IterSCF        1     532.527  99.71
siesta:    2   -16950.9096   -10584.1786   -10584.2086 16.4507 -5.7114
siesta:    3   -11311.7765   -11501.9170   -11501.9537  2.6251 -5.2955
siesta:    4   -11260.2816   -11378.0424   -11378.0814  1.4344 -4.8157
siesta:    5   -11208.8384   -11277.4935   -11277.5466  0.8178 -4.2208
siesta:    6   -11204.5247   -11250.2226   -11250.2869  0.7704 -4.0266
siesta:    7   -11196.7625   -11230.9661   -11231.0197  0.6525 -4.0175
siesta:    8   -11195.1866   -11219.3539   -11219.4078  0.5602 -4.0685
siesta:    9   -11195.2572   -11201.8247   -11201.8638  0.3652 -4.1087
siesta:   10   -11194.8745   -11192.7979   -11192.8765  0.3140 -4.0653
siesta:   11   -11194.4028   -11180.7445   -11180.7893  0.1804 -4.0914
siesta:   12   -11194.5205   -11176.1835   -11176.2372  0.1963 -4.0582
siesta:   13   -11194.0115   -11175.2557   -11175.2920  0.1708 -4.0458
siesta:   14   -11193.4139   -11180.7106   -11180.7606  0.0974 -4.0484
siesta:   15   -11193.2858   -11183.2533   -11183.3127  0.0718 -4.0670
siesta:   16   -11193.2359   -11186.0950   -11186.1518  0.0604 -4.0943
siesta:   17   -11193.1985   -11189.4398   -11189.4972  0.0393 -4.1194
siesta:   18   -11193.1886   -11191.3114   -11191.3669  0.0398 -4.1176
siesta:   19   -11193.1841   -11192.1388   -11192.1924  0.0378 -4.1135
siesta:   20   -11193.1781   -11193.0800   -11193.1336  0.0334 -4.1050
siesta:   21   -11193.1761   -11193.3936   -11193.4478  0.0266 -4.1009
siesta:   22   -11193.1738   -11193.9775   -11194.0309  0.0207 -4.0960
siesta:   23   -11193.1732   -11194.7580   -11194.8123  0.0169 -4.0904
siesta:   24   -11193.1721   -11194.0543   -11194.1092  0.0057 -4.0851
siesta:   25   -11193.1719   -11193.9616   -11194.0151  0.0035 -4.0821
siesta:   26   -11193.1718   -11193.8250   -11193.8784  0.0038 -4.0811
siesta:   27   -11193.1715   -11193.5806   -11193.6340  0.0032 -4.0806
siesta:   28   -11193.1716   -11193.4029   -11193.4564  0.0033 -4.0807
siesta:   29   -11193.1715   -11193.2072   -11193.2606  0.0028 -4.0822
siesta:   30   -11193.1716   -11193.1485   -11193.2021  0.0025 -4.0824
siesta:   31   -11193.1717   -11193.1180   -11193.1714  0.0015 -4.0830
siesta:   32   -11193.1718   -11193.1173   -11193.1707  0.0008 -4.0826
siesta:   33   -11193.1718   -11193.1182   -11193.1714  0.0005 -4.0825
siesta:   34   -11193.1717   -11193.1436   -11193.1968  0.0004 -4.0825
siesta:   35   -11193.1717   -11193.1457   -11193.1989  0.0002 -4.0825
siesta:   36   -11193.1717   -11193.1454   -11193.1987  0.0002 -4.0825
siesta:   37   -11193.1717   -11193.1457   -11193.1990  0.0001 -4.0825
siesta:   38   -11193.1717   -11193.1526   -11193.2059  0.0001 -4.0825
siesta:   39   -11193.1717   -11193.1639   -11193.2172  0.0001 -4.0826

siesta: E_KS(eV) =           -11193.1690

siesta: E_KS - E_eggbox =    -11193.1690

siesta: Atomic forces (eV/Ang):
----------------------------------------
   Tot   -0.129084   -0.140811    0.000000
----------------------------------------
   Max  683.325289
   Res  165.355053    sqrt( Sum f_i^2 / 3N )
----------------------------------------
   Max  683.325289    constrained

Stress-tensor-Voigt (kbar):     -703.65    -2892.02       -0.17       -0.01        0.00        0.00
(Free)E + p*V (eV/cell)    -9776.8847
Target enthalpy (eV/cell)   -11193.2224

siesta: Stress tensor (static) (eV/Ang**3):
        -0.439181   -0.000005    0.000000
        -0.000005   -1.805035    0.000000
         0.000000    0.000000   -0.000107

siesta: Pressure (static):       1198.61368281  kBar

siesta: Stress tensor (total) (eV/Ang**3):
        -0.439181   -0.000005    0.000000
        -0.000005   -1.805035    0.000000
         0.000000    0.000000   -0.000107

siesta: Pressure (total):       1198.61368281  kBar

siesta: Temp_ion =       0.000 K

* Maximum dynamic memory allocated =   212 MB
Computing bands...

siesta: Program's energy decomposition (eV):
siesta: Ebs     =     -4782.507810
siesta: Eions   =     19528.238980
siesta: Ena     =      4788.942532
siesta: Ekin    =      9964.758508
siesta: Enl     =     -1250.133981
siesta: DEna    =      -765.105836
siesta: DUscf   =       104.165222
siesta: DUext   =         0.000000
siesta: Exc     =     -4507.556493
siesta: eta*DQ  =         0.000000
siesta: Emadel  =         0.000000
siesta: Emeta   =         0.000000
siesta: Emolmec =         0.000000
siesta: Ekinion =         0.000000
siesta: Eharris =    -11193.171679
siesta: Etot    =    -11193.169029
siesta: FreeEng =    -11193.222351

siesta: Final energy (eV):
siesta:  Band Struct. =   -4782.507810
siesta:       Kinetic =    9964.758508
siesta:       Hartree =   32458.073881
siesta:    Ext. field =       0.000000
siesta:   Exch.-corr. =   -4507.556493
siesta:  Ion-electron =  -74548.663672
siesta:       Ion-ion =   25440.218747
siesta:       Ekinion =       0.000000
siesta:         Total =  -11193.169029

siesta: Atomic forces (eV/Ang):
siesta:      1   -0.015392   -1.055051    0.000000
siesta:      2    0.703793   -0.094297    0.000000
siesta:      3    0.350836    0.641622    0.000000
siesta:      4   -0.649775   -0.140362    0.000000
siesta:      5   -0.308938    0.679671    0.000000
siesta:      6   -0.004809    0.714073    0.000000
siesta:      7   -0.010321 -651.626027    0.000000
siesta:      8   -0.012932  545.435494    0.000000
siesta:      9    0.008571 -128.902828    0.000000
siesta:     10    1.769104  127.847071    0.000000
siesta:     11  -17.298364 -550.638908    0.000000
siesta:     12   -1.809048  127.870534    0.000000
siesta:     13   17.266896 -550.605482    0.000000
siesta:     14   26.340011    6.490905    0.000000
siesta:     15   33.920344 -549.248978    0.000000
siesta:     16    2.451892    0.063217    0.000000
siesta:     17   -2.501818    1.646727    0.000000
siesta:     18    2.008989    2.043510    0.000000
siesta:     19   -1.162092    0.609157    0.000000
siesta:     20  -26.355469    6.485494    0.000000
siesta:     21  -33.944024 -549.233213    0.000000
siesta:     22   16.180480  548.906222    0.000000
siesta:     23   -1.339319 -127.174518    0.000000
siesta:     24   34.367806  549.343363    0.000000
siesta:     25   26.375856   -6.630514    0.000000
siesta:     26   -2.438732   -1.588796    0.000000
siesta:     27    2.528368   -0.342751    0.000000
siesta:     28   -1.334011   -0.519634    0.000000
siesta:     29    1.980996   -1.988111    0.000000
siesta:     30   -0.293967    7.342844    0.000000
siesta:     31   -0.297208   -7.380008    0.000000
siesta:     32  -16.206434  548.949900    0.000000
siesta:     33    1.312934 -127.166180    0.000000
siesta:     34    0.034739  543.500597    0.000000
siesta:     35    0.042026 -128.231791    0.000000
siesta:     36   15.727588  559.318131    0.000000
siesta:     37   24.041539   -5.921942    0.000000
siesta:     38   -1.644645    4.233464    0.000000
siesta:     39   -0.349303   -0.816569    0.000000
siesta:     40   -0.354029    1.039248    0.000000
siesta:     41   -0.410301   -1.035500    0.000000
siesta:     42  -34.375438  549.352769    0.000000
siesta:     43  -26.411498   -6.594418    0.000000
siesta:     44  -15.729534  559.314658    0.000000
siesta:     45  -24.088680   -5.901661    0.000000
siesta:     46   -0.004419  683.325289    0.000000
siesta:     47    2.441653   -1.595201    0.000000
siesta:     48   -2.516465   -0.351747    0.000000
siesta:     49    1.624862    4.268293    0.000000
siesta:     50    0.335887   -0.823259    0.000000
siesta:     51    1.335791   -0.514992    0.000000
siesta:     52   -1.981120   -1.975469    0.000000
siesta:     53    0.352026    1.042980    0.000000
siesta:     54    0.390409   -1.047402    0.000000
siesta:     55    0.307110    7.343790    0.000000
siesta:     56    0.300877   -7.384236    0.000000
siesta:     57   -1.998308    2.034751    0.000000
siesta:     58    1.167151    0.602332    0.000000
siesta:     59   -0.376398    0.832309    0.000000
siesta:     60   -2.313956   -3.514470    0.000000
siesta:     61    0.007553 -563.351094    0.000000
siesta:     62    0.369918    0.829574    0.000000
siesta:     63    2.281738   -3.543668    0.000000
siesta:     64   22.944756    6.168371    0.000000
siesta:     65   20.303057 -558.323936    0.000000
siesta:     66  -22.974257    6.148874    0.000000
siesta:     67  -20.304635 -558.318922    0.000000
siesta:     68   -2.413461    0.075154    0.000000
siesta:     69    2.501900    1.658559    0.000000
siesta:     70    0.011238  128.646870    0.000000
siesta:     71    0.018305 -546.272831    0.000000
siesta:     72   -0.006984  114.908139    0.000000
siesta: ----------------------------------------
siesta:    Tot   -0.129084   -0.140811    0.000000

siesta: Stress tensor (static) (eV/Ang**3):
siesta:    -0.439181   -0.000005    0.000000
siesta:    -0.000005   -1.805035    0.000000
siesta:     0.000000    0.000000   -0.000107

siesta: Cell volume =       1893.226884 Ang**3

siesta: Pressure (static):
siesta:                Solid            Molecule  Units
siesta:           0.00814785          0.12906083  Ry/Bohr**3
siesta:           0.74810773         11.84992676  eV/Ang**3
siesta:        1198.61368281      18985.88097892  kBar
(Free)E+ p_basis*V_orbitals  =      -11163.485478
(Free)Eharris+ p_basis*V_orbitals  =      -11163.493242

siesta: Electric dipole (a.u.)  =    0.000000    0.000000    0.000000
siesta: Electric dipole (Debye) =    0.000000    0.000000    0.000000

* Maximum dynamic memory allocated : Node    0 =   212 MB
* Maximum dynamic memory allocated : Node    1 =    73 MB
* Maximum dynamic memory allocated : Node    2 =    76 MB
* Maximum dynamic memory allocated : Node    3 =   201 MB
* Maximum dynamic memory allocated : Node    4 =   192 MB
* Maximum dynamic memory allocated : Node    5 =    71 MB
* Maximum dynamic memory allocated : Node    6 =    73 MB
* Maximum dynamic memory allocated : Node    7 =   176 MB

* Maximum memory occured during matrixMtoO                    

timer: CPU execution times:
timer:  Routine       Calls   Time/call    Tot.time        %
timer:  siesta            1  164257.024  164257.024   100.00
timer:  Setup             1       3.782       3.782     0.00
timer:  bands             3     268.400     805.200     0.49
timer:  writewave         1       0.043       0.043     0.00
timer:  KSV_init          1       0.007       0.007     0.00
timer:  IterMD            1  163442.266  163442.266    99.50
timer:  hsparse           1       0.235       0.235     0.00
timer:  overlap           1       5.918       5.918     0.00
timer:  IterSCF          39    4186.135  163259.260    99.39
timer:  kinefsm           2       3.069       6.137     0.00
timer:  nlefsm            2      19.140      38.279     0.02
timer:  DHSCF            40      95.436    3817.435     2.32
timer:  DHSCF1            1       0.766       0.766     0.00
timer:  DHSCF2            1      34.654      34.654     0.02
timer:  REORD           322       0.010       3.192     0.00
timer:  POISON           41       2.242      91.905     0.06
timer:  DHSCF3           40      93.690    3747.611     2.28
timer:  rhoofd           40      18.541     741.636     0.45
timer:  cellXC           40       3.504     140.169     0.09
timer:  vmat             40      45.185    1807.393     1.10
timer:  MolMec            2       0.001       0.001     0.00
timer:  diagon           39    4089.039  159472.504    97.09
timer:  c-eigval       9130       6.667   60868.214    37.06
timer:  c-buildHS      9130       0.115    1045.544     0.64
timer:  cdiag         18139       6.868  124582.966    75.85
timer:  cdiag1        18139       0.427    7746.191     4.72
timer:  cdiag2        18139       1.906   34569.273    21.05
timer:  cdiag3        18139       3.940   71469.764    43.51
timer:  cdiag4        18139       0.203    3685.965     2.24
timer:  c-eigvec       9009       7.257   65377.897    39.80
timer:  c-buildD       9009       3.772   33981.000    20.69
timer:  DHSCF4            1      32.266      32.266     0.02
timer:  dfscf             1      30.393      30.393     0.02
timer:  overfsm           1       0.410       0.410     0.00
timer:  optical           1       5.072       5.072     0.00
  

elaps: ELAPSED times:
elaps:  Routine       Calls   Time/call    Tot.time        %
elaps:  siesta            1   20556.630   20556.630   100.00
elaps:  Setup             1       0.489       0.489     0.00
elaps:  bands             3      33.606     100.819     0.49
elaps:  writewave         1       0.006       0.006     0.00
elaps:  KSV_init          1       0.001       0.001     0.00
elaps:  IterMD            1   20454.662   20454.662    99.50
elaps:  hsparse           1       0.028       0.028     0.00
elaps:  overlap           1       0.970       0.970     0.00
elaps:  IterSCF          39     523.895   20431.887    99.39
elaps:  kinefsm           2       0.500       1.000     0.00
elaps:  nlefsm            2       2.390       4.780     0.02
elaps:  DHSCF            40      12.049     481.977     2.34
elaps:  DHSCF1            1       0.097       0.097     0.00
elaps:  DHSCF2            1       4.335       4.335     0.02
elaps:  REORD           322       0.001       0.425     0.00
elaps:  POISON           41       0.281      11.508     0.06
elaps:  DHSCF3           40      11.721     468.839     2.28
elaps:  rhoofd           40       5.261     210.429     1.02
elaps:  cellXC           40       0.438      17.509     0.09
elaps:  vmat             40       5.653     226.102     1.10
elaps:  MolMec            2       0.000       0.000     0.00
elaps:  diagon           39     511.755   19958.464    97.09
elaps:  c-eigval       9130       0.834    7615.762    37.05
elaps:  c-buildHS      9130       0.016     143.730     0.70
elaps:  cdiag         18139       0.847   15356.719    74.70
elaps:  cdiag1        18139       0.053     963.308     4.69
elaps:  cdiag2        18139       0.238    4325.325    21.04
elaps:  cdiag3        18139       0.494    8954.535    43.56
elaps:  cdiag4        18139       0.026     464.196     2.26
elaps:  c-eigvec       9009       0.889    8008.727    38.96
elaps:  c-buildD       9009       0.490    4414.185    21.47
elaps:  DHSCF4            1       8.417       8.417     0.04
elaps:  dfscf             1       8.018       8.018     0.04
elaps:  overfsm           1       0.052       0.052     0.00
elaps:  optical           1       0.001       0.001     0.00
  
>> End of run:  15-APR-2016  20:49:34
