Siesta Version:                                        siesta-3.2-pl-3
Architecture  : x86_64-unknown-linux-gnu--unknown
Compiler flags: mpiifort -g -O2 -fPIC -xSSE4.1 -fp-model source -shared-intel 
PARALLEL version

* Running on    8 nodes in parallel
>> Start of run:  27-APR-2016  23:55:20

                           ***********************       
                           *  WELCOME TO SIESTA  *       
                           ***********************       

reinit: Reading from standard input
************************** Dump of input data file ****************************
#(1) General system descriptors
SystemName            GRP_doping    # Descriptive name of the system
SystemLabel           GRP_doping    # Short name for naming files
%include STRUCT.fdf
%include KPT.fdf
%include BASIS.fdf
#%include TS.fdf # for transiesta calculation
#(4) DFT, Grid, SCF
XC.functional         GGA           # LDA or GGA (default = LDA)
XC.authors            PBE           # CA (Ceperley-Aldr) = PZ
                                    #    (Perdew-Zunger) - LDA - Default
                                    # PW92 (Perdew-Wang-92) - LDA
                                    # PBE (Perdew-Burke-Ernzerhof) - GGA
MeshCutoff            200.000000    Ry      # Default: 50.0 Ry ~ 0.444 Bohr
                                    #         100.0 Ry ~ 0.314 Bohr
MaxSCFIterations      500           # Default: 50
DM.MixingWeight       0.05          # Default: 0.25
DM.NumberPulay        10            # Default: 0
DM.PulayOnFile        F             # SystemLabel.P1, SystemLabel.P2
DM.Tolerance          1.d-4         # Default: 1.d-4
DM.UseSaveDM          .true.        # because of the bug
SCFMustConverge       .true.
NeglNonOverlapInt     F             # Default: F
#(5) Eigenvalue problem: order-N or diagonalization
SolutionMethod        Diagon        # or Transiesta
ElectronicTemperature 300.0 K       # Default: 300.0 K
#(6) Molecular dynamics and relaxations
#MD.TypeOfRun          CG            # Type of dynamics:
#MD.VariableCell       F
#MD.NumCGsteps         0           # 0 for single-point / 100 for gopt
#MD.MaxCGDispl         0.2 Bohr      # Default: 0.2 Bohr
#MD.MaxForceTol        0.02 eV/Ang   # Default: 0.04 eV/Ang
#MD.MaxStressTol       1.0 GPa       # Default: 1.0 GPa
# Geometry Constraints
#%block GeometryConstraints
#	position from 1 to 44
#%endblock GeometryConstraints
BandLinesScale   pi/a
%block BandLines
 1   0.00000000  0.00000000  0.00000000
50   0.00000000  0.07809418  0.00000000
50   0.04509075  0.07809242  0.00000000
20   0.00000000  0.00000000  0.00000000
%endblock BandLines
************************** End of input data file *****************************

reinit: -----------------------------------------------------------------------
reinit: System Name: GRP_doping
reinit: -----------------------------------------------------------------------
reinit: System Label: GRP_doping                                                  
reinit: -----------------------------------------------------------------------

initatom: Reading input for the pseudopotentials and atomic orbitals ----------
 Species number:            1  Label: B Atomic number:           5
 Species number:            2  Label: C Atomic number:           6
Ground state valence configuration:   2s02  2p01
Reading pseudopotential information in formatted form from B.psf

Valence configuration for pseudopotential generation:
2s( 2.00) rc: 1.74
2p( 1.00) rc: 1.74
3d( 0.00) rc: 1.74
4f( 0.00) rc: 1.74
Ground state valence configuration:   2s02  2p02
Reading pseudopotential information in formatted form from C.psf

Valence configuration for pseudopotential generation:
2s( 2.00) rc: 1.54
2p( 2.00) rc: 1.54
3d( 0.00) rc: 1.54
4f( 0.00) rc: 1.54
For B, standard SIESTA heuristics set lmxkb to 3
 (one more than the basis l, including polarization orbitals).
Use PS.lmax or PS.KBprojectors blocks to override.
For C, standard SIESTA heuristics set lmxkb to 3
 (one more than the basis l, including polarization orbitals).
Use PS.lmax or PS.KBprojectors blocks to override.

<basis_specs>
===============================================================================
B                    Z=   5    Mass=  10.810        Charge= 0.17977+309
Lmxo=1 Lmxkb= 3    BasisType=split      Semic=F
L=0  Nsemic=0  Cnfigmx=2
          n=1  nzeta=2  polorb=0
            splnorm:   0.15000    
               vcte:    0.0000    
               rinn:    0.0000    
                rcs:    0.0000      0.0000    
            lambdas:    1.0000      1.0000    
L=1  Nsemic=0  Cnfigmx=2
          n=1  nzeta=2  polorb=1
            splnorm:   0.15000    
               vcte:    0.0000    
               rinn:    0.0000    
                rcs:    0.0000      0.0000    
            lambdas:    1.0000      1.0000    
-------------------------------------------------------------------------------
L=0  Nkbl=1  erefs: 0.17977+309
L=1  Nkbl=1  erefs: 0.17977+309
L=2  Nkbl=1  erefs: 0.17977+309
L=3  Nkbl=1  erefs: 0.17977+309
===============================================================================
</basis_specs>

atom: Called for B                     (Z =   5)

read_vps: Pseudopotential generation method:
read_vps: ATM3      Troullier-Martins                       
Total valence charge:    3.00000

read_vps: Pseudopotential includes a core correction:
read_vps: Pseudo-core for xc-correction

xc_check: Exchange-correlation functional:
xc_check: GGA Perdew, Burke & Ernzerhof 1996
V l=0 = -2*Zval/r beyond r=  1.7165
V l=1 = -2*Zval/r beyond r=  1.7165
V l=2 = -2*Zval/r beyond r=  1.7165
V l=3 = -2*Zval/r beyond r=  1.6951
All V_l potentials equal beyond r=  1.7165
This should be close to max(r_c) in ps generation
All pots = -2*Zval/r beyond r=  1.7165

VLOCAL1: 99.0% of the norm of Vloc inside     14.733 Ry
VLOCAL1: 99.9% of the norm of Vloc inside     33.577 Ry
atom: Maximum radius for 4*pi*r*r*local-pseudopot. charge    2.04484
atom: Maximum radius for r*vlocal+2*Zval:    1.75994
GHOST: No ghost state for L =  0
GHOST: No ghost state for L =  1
GHOST: No ghost state for L =  2
GHOST: No ghost state for L =  3

KBgen: Kleinman-Bylander projectors: 
   l= 0   rc=  1.897051   el= -0.693730   Ekb=  4.595746   kbcos=  0.286105
   l= 1   rc=  1.920920   el= -0.265236   Ekb= -2.350715   kbcos= -0.315747
   l= 2   rc=  2.044840   el=  0.002055   Ekb= -0.690767   kbcos= -0.013822
   l= 3   rc=  2.149707   el=  0.003188   Ekb= -0.315358   kbcos= -0.002055

KBgen: Total number of  Kleinman-Bylander projectors:   16
atom: -------------------------------------------------------------------------

atom: SANKEY-TYPE ORBITALS:
atom: Selected multiple-zeta basis: split     

SPLIT: Orbitals with angular momentum L= 0

SPLIT: Basis orbitals for state 2s

SPLIT: PAO cut-off radius determined from an
SPLIT: energy shift=  0.007350 Ry

   izeta = 1
                 lambda =    1.000000
                     rc =    5.422032
                 energy =   -0.686029
                kinetic =    0.576707
    potential(screened) =   -1.262736
       potential(ionic) =   -3.271094

   izeta = 2
                 rmatch =    4.222573
              splitnorm =    0.150000
                 energy =   -0.602132
                kinetic =    0.858975
    potential(screened) =   -1.461107
       potential(ionic) =   -3.582536

SPLIT: Orbitals with angular momentum L= 1

SPLIT: Basis orbitals for state 2p

SPLIT: PAO cut-off radius determined from an
SPLIT: energy shift=  0.007350 Ry

   izeta = 1
                 lambda =    1.000000
                     rc =    6.790259
                 energy =   -0.258578
                kinetic =    1.481412
    potential(screened) =   -1.739989
       potential(ionic) =   -3.657461

   izeta = 2
                 rmatch =    4.608740
              splitnorm =    0.150000
                 energy =   -0.173757
                kinetic =    2.186690
    potential(screened) =   -2.360447
       potential(ionic) =   -4.464260

POLgen: Perturbative polarization orbital with L=  2

POLgen: Polarization orbital for state 2p

   izeta = 1
                     rc =    6.790259
                 energy =    0.684082
                kinetic =    1.471481
    potential(screened) =   -0.787399
       potential(ionic) =   -2.406985
atom: Total number of Sankey-type orbitals: 13

atm_pop: Valence configuration (for local Pseudopot. screening):
 2s( 2.00)                                                            
 2p( 1.00)                                                            
Vna: chval, zval:    3.00000   3.00000

Vna:  Cut-off radius for the neutral-atom potential:   6.790259
comcore: Pseudo-core radius Rcore=  2.122997

atom: _________________________________________________________________________

<basis_specs>
===============================================================================
C                    Z=   6    Mass=  12.010        Charge= 0.17977+309
Lmxo=1 Lmxkb= 3    BasisType=split      Semic=F
L=0  Nsemic=0  Cnfigmx=2
          n=1  nzeta=2  polorb=0
            splnorm:   0.15000    
               vcte:    0.0000    
               rinn:    0.0000    
                rcs:    0.0000      0.0000    
            lambdas:    1.0000      1.0000    
L=1  Nsemic=0  Cnfigmx=2
          n=1  nzeta=2  polorb=1
            splnorm:   0.15000    
               vcte:    0.0000    
               rinn:    0.0000    
                rcs:    0.0000      0.0000    
            lambdas:    1.0000      1.0000    
-------------------------------------------------------------------------------
L=0  Nkbl=1  erefs: 0.17977+309
L=1  Nkbl=1  erefs: 0.17977+309
L=2  Nkbl=1  erefs: 0.17977+309
L=3  Nkbl=1  erefs: 0.17977+309
===============================================================================
</basis_specs>

atom: Called for C                     (Z =   6)

read_vps: Pseudopotential generation method:
read_vps: ATM3      Troullier-Martins                       
Total valence charge:    4.00000

read_vps: Pseudopotential includes a core correction:
read_vps: Pseudo-core for xc-correction

xc_check: Exchange-correlation functional:
xc_check: GGA Perdew, Burke & Ernzerhof 1996
V l=0 = -2*Zval/r beyond r=  1.5227
V l=1 = -2*Zval/r beyond r=  1.5227
V l=2 = -2*Zval/r beyond r=  1.5227
V l=3 = -2*Zval/r beyond r=  1.5038
All V_l potentials equal beyond r=  1.5227
This should be close to max(r_c) in ps generation
All pots = -2*Zval/r beyond r=  1.5227

VLOCAL1: 99.0% of the norm of Vloc inside     18.722 Ry
VLOCAL1: 99.9% of the norm of Vloc inside     42.668 Ry
atom: Maximum radius for 4*pi*r*r*local-pseudopot. charge    1.83678
atom: Maximum radius for r*vlocal+2*Zval:    1.58088
GHOST: No ghost state for L =  0
GHOST: No ghost state for L =  1
GHOST: No ghost state for L =  2
GHOST: No ghost state for L =  3

KBgen: Kleinman-Bylander projectors: 
   l= 0   rc=  1.704034   el= -1.009801   Ekb=  5.335044   kbcos=  0.316824
   l= 1   rc=  1.704034   el= -0.388707   Ekb= -3.785862   kbcos= -0.366464
   l= 2   rc=  1.791422   el=  0.001971   Ekb= -0.970471   kbcos= -0.009212
   l= 3   rc=  1.859892   el=  0.003065   Ekb= -0.399525   kbcos= -0.001223

KBgen: Total number of  Kleinman-Bylander projectors:   16
atom: -------------------------------------------------------------------------

atom: SANKEY-TYPE ORBITALS:
atom: Selected multiple-zeta basis: split     

SPLIT: Orbitals with angular momentum L= 0

SPLIT: Basis orbitals for state 2s

SPLIT: PAO cut-off radius determined from an
SPLIT: energy shift=  0.007350 Ry

   izeta = 1
                 lambda =    1.000000
                     rc =    4.632753
                 energy =   -1.002270
                kinetic =    0.855760
    potential(screened) =   -1.858031
       potential(ionic) =   -5.417575

   izeta = 2
                 rmatch =    3.431921
              splitnorm =    0.150000
                 energy =   -0.867111
                kinetic =    1.300804
    potential(screened) =   -2.167915
       potential(ionic) =   -5.962684

SPLIT: Orbitals with angular momentum L= 1

SPLIT: Basis orbitals for state 2p

SPLIT: PAO cut-off radius determined from an
SPLIT: energy shift=  0.007350 Ry

   izeta = 1
                 lambda =    1.000000
                     rc =    5.658549
                 energy =   -0.381140
                kinetic =    2.399701
    potential(screened) =   -2.780841
       potential(ionic) =   -6.206085

   izeta = 2
                 rmatch =    3.653288
              splitnorm =    0.150000
                 energy =   -0.249149
                kinetic =    3.542762
    potential(screened) =   -3.791911
       potential(ionic) =   -7.581078

POLgen: Perturbative polarization orbital with L=  2

POLgen: Polarization orbital for state 2p

   izeta = 1
                     rc =    5.658549
                 energy =    1.109913
                kinetic =    2.304789
    potential(screened) =   -1.194876
       potential(ionic) =   -4.013592
atom: Total number of Sankey-type orbitals: 13

atm_pop: Valence configuration (for local Pseudopot. screening):
 2s( 2.00)                                                            
 2p( 2.00)                                                            
Vna: chval, zval:    4.00000   4.00000

Vna:  Cut-off radius for the neutral-atom potential:   5.658549
comcore: Pseudo-core radius Rcore=  1.791422

atom: _________________________________________________________________________

prinput: Basis input ----------------------------------------------------------

PAO.BasisType split     

%block ChemicalSpeciesLabel
    1    5 B                       # Species index, atomic number, species label
    2    6 C                       # Species index, atomic number, species label
%endblock ChemicalSpeciesLabel

%block PAO.Basis                 # Define Basis set
B                     2                    # Species label, number of l-shells
 n=2   0   2                         # n, l, Nzeta 
   5.422      4.223   
   1.000      1.000   
 n=2   1   2 P   1                   # n, l, Nzeta, Polarization, NzetaPol
   6.790      4.609   
   1.000      1.000   
C                     2                    # Species label, number of l-shells
 n=2   0   2                         # n, l, Nzeta 
   4.633      3.432   
   1.000      1.000   
 n=2   1   2 P   1                   # n, l, Nzeta, Polarization, NzetaPol
   5.659      3.653   
   1.000      1.000   
%endblock PAO.Basis

prinput: ----------------------------------------------------------------------

coor:   Atomic-coordinates input format  =     Fractional

siesta: Atomic coordinates (Bohr) and species
siesta:     -0.02582   2.59549   0.00000  1        1
siesta:     -0.02582   5.28395   0.00000  1        2
siesta:     -0.02582  10.66124   0.00000  1        3
siesta:     -0.02582  13.34970   0.00000  1        4
siesta:     -0.02582  18.72698   0.00000  1        5
siesta:     -0.02582  21.41544   0.00000  1        6
siesta:      2.30256  22.75985   0.00000  1        7
siesta:      2.30256  25.44831   0.00000  1        8
siesta:     -7.01096  17.38257   0.00000  1        9
siesta:     -4.68258  21.41544   0.00000  1       10
siesta:     -2.35420  22.75985   0.00000  1       11
siesta:     -2.35420  25.44831   0.00000  1       12
siesta:     -9.33934  18.72698   0.00000  1       13
siesta:     -9.33934  21.41544   0.00000  1       14
siesta:     -7.01096  22.75985   0.00000  1       15
siesta:     -7.01096  25.44831   0.00000  1       16
siesta:    -11.66772  22.75985   0.00000  1       17
siesta:    -11.66772  25.44831   0.00000  1       18
siesta:     -9.33934  26.79272   0.00000  1       19
siesta:     -0.02582  26.79272   0.00000  1       20
siesta:     -4.68258  26.79272   0.00000  1       21
siesta:     -2.35420  38.89134   0.00000  2       22
siesta:     -2.35420  41.57980   0.00000  2       23
siesta:      2.30256  38.89134   0.00000  2       24
siesta:      2.30256  41.57980   0.00000  2       25
siesta:      4.63094  34.85847   0.00000  2       26
siesta:      4.63094  37.54693   0.00000  2       27
siesta:      6.95932  30.82560   0.00000  2       28
siesta:      6.95932  33.51406   0.00000  2       29
siesta:      9.28770  26.79272   0.00000  2       30
siesta:      9.28770  29.48119   0.00000  2       31
siesta:     -4.68258  34.85847   0.00000  2       32
siesta:     -4.68258  37.54693   0.00000  2       33
siesta:      2.30256   6.62836   0.00000  2       34
siesta:      2.30256   9.31683   0.00000  2       35
siesta:      4.63094  10.66124   0.00000  2       36
siesta:      4.63094  13.34970   0.00000  2       37
siesta:      6.95932  14.69411   0.00000  2       38
siesta:      6.95932  17.38257   0.00000  2       39
siesta:      9.28770  18.72698   0.00000  2       40
siesta:      9.28770  21.41544   0.00000  2       41
siesta:     11.61608  22.75985   0.00000  2       42
siesta:     11.61608  25.44831   0.00000  2       43
siesta:     -2.35420   6.62836   0.00000  2       44
siesta:     -2.35420   9.31683   0.00000  2       45
siesta:      2.30256  14.69411   0.00000  2       46
siesta:      2.30256  17.38257   0.00000  2       47
siesta:      4.63094  18.72698   0.00000  2       48
siesta:      4.63094  21.41544   0.00000  2       49
siesta:      6.95932  22.75985   0.00000  2       50
siesta:      6.95932  25.44831   0.00000  2       51
siesta:     -4.68258  10.66124   0.00000  2       52
siesta:     -4.68258  13.34970   0.00000  2       53
siesta:     -2.35420  14.69411   0.00000  2       54
siesta:     -2.35420  17.38257   0.00000  2       55
siesta:     -7.01096  14.69411   0.00000  2       56
siesta:     -4.68258  18.72698   0.00000  2       57
siesta:     -9.33934  29.48119   0.00000  2       58
siesta:      4.63094  26.79272   0.00000  2       59
siesta:      4.63094  29.48119   0.00000  2       60
siesta:     -0.02582  29.48119   0.00000  2       61
siesta:     -4.68258  29.48119   0.00000  2       62
siesta:      2.30256  30.82560   0.00000  2       63
siesta:      2.30256  33.51406   0.00000  2       64
siesta:     -2.35420  30.82560   0.00000  2       65
siesta:     -2.35420  33.51406   0.00000  2       66
siesta:     -7.01096  30.82560   0.00000  2       67
siesta:     -7.01096  33.51406   0.00000  2       68
siesta:     -0.02582  34.85847   0.00000  2       69
siesta:     -0.02582  37.54693   0.00000  2       70
siesta:     -0.02582  42.92421   0.00000  2       71
siesta:     -0.02582  45.61267   0.00000  2       72

siesta: System type = slab      

initatomlists: Number of atoms, orbitals, and projectors:     72   936  1152

siesta: ******************** Simulation parameters ****************************
siesta:
siesta: The following are some of the parameters of the simulation.
siesta: A complete list of the parameters used, including default values,
siesta: can be found in file out.fdf
siesta:
redata: Non-Collinear-spin run           =     F
redata: SpinPolarized (Up/Down) run      =     F
redata: Number of spin components        =     1
redata: Long output                      =     F
redata: Number of Atomic Species         =        2
redata: Charge density info will appear in .RHO file
redata: Write Mulliken Pop.              =     NO
redata: Mesh Cutoff                      =   200.0000  Ry
redata: Net charge of the system         =     0.0000 |e|
redata: Max. number of SCF Iter          =      500
redata: SCF convergence failure will abort job
redata: Performing Pulay mixing using    =    10 iterations
redata: Mix DM in first SCF step ?       =     F
redata: Write Pulay info on disk?        =     F
redata: Discard 1st Pulay DM after  kick =     F
redata: New DM Mixing Weight             =     0.0500
redata: New DM Occupancy tolerance       = 0.000000000001
redata: No kicks to SCF
redata: DM Mixing Weight for Kicks       =     0.5000
redata: DM Tolerance for SCF             =     0.000100
redata: Require Energy convergence for SCF =     F
redata: DM Energy tolerance for SCF      =     0.000100 eV
redata: Require Harris convergence for SCF =     F
redata: DM Harris energy tolerance for SCF =     0.000100 eV
redata: Using Saved Data (generic)   =     F
redata: Use continuation files for DM    =     T
redata: Neglect nonoverlap interactions  =     F
redata: Method of Calculation            =     Diagonalization
redata: Divide and Conquer               =     T
redata: Electronic Temperature           =     0.0019  Ry
redata: Fix the spin of the system       =     F
redata: Dynamics option                  =     Verlet MD run
redata: Initial MD time step             =        1
redata:   Final MD time step             =        1
redata: Length of MD time step           =     1.0000  fs
redata: Initial Temperature of MD run    =     0.0000  K
redata: Perform a MD quench              =     F
redata: ***********************************************************************
Total number of electrons:   267.000000
Total ionic charge:   267.000000

* ProcessorY, Blocksize:    2  24

k-point displ. along   1 input, could be:     0.50    0.00
k-point displ. along   2 input, could be:     0.50    0.00
 Kpoints in:          231 . Kpoints trimmed:          231

siesta: k-grid: Number of k-points =   231
siesta: k-grid: Cutoff (effective) =     5.000 Ang
siesta: k-grid: Supercell and displacements
siesta: k-grid:   21   0   0      0.500
siesta: k-grid:    0  21   0      0.500
siesta: k-grid:    0   0   1      0.000
Naive supercell factors:     2    2    2

superc: Internal auxiliary supercell:     2 x     2 x     2  =       8
superc: Number of atoms, orbitals, and projectors:    576   7488   9216

* Maximum dynamic memory allocated =     4 MB

siesta:                 ==============================
                            Begin MD step =      1
                        ==============================

superc: Internal auxiliary supercell:     2 x     2 x     2  =       8
superc: Number of atoms, orbitals, and projectors:    576   7488   9216

outcell: Unit cell vectors (Ang):
       12.804619    7.392750    0.000000
        0.000000   14.785500    0.000000
        0.000000    0.000000   10.000000

outcell: Cell vector modules (Ang)   :   14.785500   14.785500   10.000000
outcell: Cell angles (23,13,12) (deg):     90.0000     90.0000     60.0000
outcell: Cell volume (Ang**3)        :   1893.2269
New_DM. Step:     1
Initializing Density Matrix...

InitMesh: MESH =   120 x   120 x    90 =     1296000
InitMesh: Mesh cutoff (required, used) =   200.000   223.865 Ry

* Maximum dynamic memory allocated =   224 MB

stepf: Fermi-Dirac step function

siesta: Program's energy decomposition (eV):
siesta: Ebs     =     -5511.602026
siesta: Eions   =     15713.820136
siesta: Ena     =      4223.454241
siesta: Ekin    =      5270.679987
siesta: Enl     =       816.085035
siesta: DEna    =        -0.000008
siesta: DUscf   =         0.000000
siesta: DUext   =         0.000000
siesta: Exc     =     -4203.586412
siesta: eta*DQ  =         0.000000
siesta: Emadel  =         0.000000
siesta: Emeta   =         0.000000
siesta: Emolmec =         0.000000
siesta: Ekinion =         0.000000
siesta: Eharris =     -9346.160015
siesta: Etot    =     -9607.187294
siesta: FreeEng =     -9607.187294

siesta: iscf   Eharris(eV)      E_KS(eV)   FreeEng(eV)   dDmax  Ef(eV)
siesta:    1    -9346.1600    -9607.1873    -9607.1873  8.0947 -8.4588
timer: Routine,Calls,Time,% = IterSCF        1    3567.338  99.70
elaps: Routine,Calls,Wall,% = IterSCF        1     446.759  99.70
siesta:    2   -13845.4702    -8607.3658    -8607.4206 22.7131 -2.9683
siesta:    3    -9275.4323    -9463.4506    -9463.4895  4.0045 -6.6456
siesta:    4    -9274.9816    -9319.2461    -9319.2729  1.4923 -5.1791
siesta:    5    -9226.3562    -9275.7696    -9275.8205  1.2056 -5.2609
siesta:    6    -9199.8442    -9230.4933    -9230.5243  0.8226 -5.3361
siesta:    7    -9195.2200    -9201.6049    -9201.6466  0.7118 -5.2625
siesta:    8    -9190.3062    -9186.9528    -9187.0049  0.5906 -5.1566
siesta:    9    -9189.0244    -9178.6224    -9178.6734  0.5074 -5.1894
siesta:   10    -9191.2465    -9165.9773    -9166.0227  0.3536 -5.0165
siesta:   11    -9189.4566    -9163.1960    -9163.2779  0.2934 -5.0549
siesta:   12    -9188.7139    -9157.7243    -9157.7851  0.2097 -5.0385
siesta:   13    -9188.2743    -9156.2199    -9156.2721  0.1593 -5.0421
siesta:   14    -9187.3779    -9162.1188    -9162.1683  0.2638 -5.0409
siesta:   15    -9187.0322    -9164.7137    -9164.7636  0.1113 -5.0619
siesta:   16    -9186.7962    -9173.6265    -9173.6802  0.1008 -5.0958
siesta:   17    -9186.7189    -9180.3152    -9180.3723  0.0608 -5.1316
siesta:   18    -9186.6767    -9183.1733    -9183.2288  0.0527 -5.1338
siesta:   19    -9186.6389    -9184.1371    -9184.1943  0.0372 -5.1245
siesta:   20    -9186.6296    -9185.7883    -9185.8440  0.0530 -5.1042
siesta:   21    -9186.6177    -9187.1939    -9187.2537  0.0300 -5.1044
siesta:   22    -9186.6149    -9186.9163    -9186.9756  0.0173 -5.0965
siesta:   23    -9186.6113    -9186.7781    -9186.8377  0.0159 -5.0878
siesta:   24    -9186.6098    -9186.5673    -9186.6282  0.0131 -5.0872
siesta:   25    -9186.6094    -9186.5939    -9186.6548  0.0115 -5.0878
siesta:   26    -9186.6101    -9186.3986    -9186.4593  0.0096 -5.0896
siesta:   27    -9186.6099    -9186.4180    -9186.4780  0.0034 -5.0911
siesta:   28    -9186.6098    -9186.4224    -9186.4823  0.0022 -5.0920
siesta:   29    -9186.6096    -9186.4565    -9186.5164  0.0013 -5.0922
siesta:   30    -9186.6095    -9186.5333    -9186.5933  0.0011 -5.0923
siesta:   31    -9186.6095    -9186.5777    -9186.6377  0.0009 -5.0924
siesta:   32    -9186.6095    -9186.5993    -9186.6594  0.0004 -5.0926
siesta:   33    -9186.6095    -9186.5964    -9186.6565  0.0003 -5.0926
siesta:   34    -9186.6095    -9186.5949    -9186.6550  0.0002 -5.0926
siesta:   35    -9186.6095    -9186.6002    -9186.6603  0.0002 -5.0926
siesta:   36    -9186.6095    -9186.6060    -9186.6661  0.0001 -5.0925

siesta: E_KS(eV) =            -9186.6067

siesta: E_KS - E_eggbox =     -9186.6067

siesta: Atomic forces (eV/Ang):
----------------------------------------
   Tot   -0.168216    0.005497    0.000000
----------------------------------------
   Max  558.018221
   Res  148.564186    sqrt( Sum f_i^2 / 3N )
----------------------------------------
   Max  558.018221    constrained

Stress-tensor-Voigt (kbar):     -819.45    -2702.49       -0.64        0.02        0.00        0.00
(Free)E + p*V (eV/cell)    -7799.1845
Target enthalpy (eV/cell)    -9186.6668

siesta: Stress tensor (static) (eV/Ang**3):
        -0.511455    0.000013    0.000000
         0.000013   -1.686743    0.000000
         0.000000    0.000000   -0.000400

siesta: Pressure (static):       1174.19405422  kBar

siesta: Stress tensor (total) (eV/Ang**3):
        -0.511455    0.000013    0.000000
         0.000013   -1.686743    0.000000
         0.000000    0.000000   -0.000400

siesta: Pressure (total):       1174.19405422  kBar

siesta: Temp_ion =       0.000 K

* Maximum dynamic memory allocated =   240 MB
Computing bands...

siesta: Program's energy decomposition (eV):
siesta: Ebs     =     -4118.025247
siesta: Eions   =     15713.820136
siesta: Ena     =      4223.454241
siesta: Ekin    =      8154.515774
siesta: Enl     =      -785.694860
siesta: DEna    =      -797.452279
siesta: DUscf   =       109.337736
siesta: DUext   =         0.000000
siesta: Exc     =     -4376.947139
siesta: eta*DQ  =         0.000000
siesta: Emadel  =         0.000000
siesta: Emeta   =         0.000000
siesta: Emolmec =         0.000000
siesta: Ekinion =         0.000000
siesta: Eharris =     -9186.609462
siesta: Etot    =     -9186.606664
siesta: FreeEng =     -9186.666762

siesta: Final energy (eV):
siesta:  Band Struct. =   -4118.025247
siesta:       Kinetic =    8154.515774
siesta:       Hartree =   26934.210606
siesta:    Ext. field =       0.000000
siesta:   Exch.-corr. =   -4376.947139
siesta:  Ion-electron =  -61707.672661
siesta:       Ion-ion =   21809.286756
siesta:       Ekinion =       0.000000
siesta:         Total =   -9186.606664

siesta: Atomic forces (eV/Ang):
siesta:      1    0.014837  411.024501    0.000000
siesta:      2   -0.820194 -112.905352    0.000000
siesta:      3    0.089677  394.738605    0.000000
siesta:      4    0.023965 -113.782045    0.000000
siesta:      5    0.159410  411.807795    0.000000
siesta:      6   -0.786833   -1.107798    0.000000
siesta:      7    3.452813   -3.082637    0.000000
siesta:      8    3.481693    3.359673    0.000000
siesta:      9    0.537971   -3.612541    0.000000
siesta:     10    0.947166   -4.811839    0.000000
siesta:     11    0.562236   -0.143599    0.000000
siesta:     12   -0.505611    0.145078    0.000000
siesta:     13   -4.821156   -1.544883    0.000000
siesta:     14   -4.323232   -0.885941    0.000000
siesta:     15   -0.330861    0.107344    0.000000
siesta:     16    1.044465   -0.170878    0.000000
siesta:     17   -5.802778   -3.726506    0.000000
siesta:     18   -5.950456    2.220735    0.000000
siesta:     19   -4.270194    6.670495    0.000000
siesta:     20   -0.437409    2.846963    0.000000
siesta:     21    0.782700    5.001451    0.000000
siesta:     22    3.555068  128.818249    0.000000
siesta:     23  -25.056807 -550.286473    0.000000
siesta:     24   -3.672417  129.161568    0.000000
siesta:     25   24.340034 -549.496468    0.000000
siesta:     26   26.388749    3.338225    0.000000
siesta:     27   34.129800 -547.435678    0.000000
siesta:     28    2.641697   -0.113290    0.000000
siesta:     29   -2.403124    2.350066    0.000000
siesta:     30    2.058933    1.612325    0.000000
siesta:     31   -0.908857    0.928114    0.000000
siesta:     32  -26.586079    3.162254    0.000000
siesta:     33  -34.306152 -547.678495    0.000000
siesta:     34    8.715837  545.104912    0.000000
siesta:     35   -6.639607 -117.449411    0.000000
siesta:     36   35.193990  546.679508    0.000000
siesta:     37   26.662789   -5.225315    0.000000
siesta:     38   -2.393903   -2.129627    0.000000
siesta:     39    2.430550   -0.150426    0.000000
siesta:     40   -0.998163   -0.826225    0.000000
siesta:     41    2.448571   -1.498651    0.000000
siesta:     42   -0.437877    6.546167    0.000000
siesta:     43   -0.220865   -6.633270    0.000000
siesta:     44   -8.438197  545.038848    0.000000
siesta:     45    6.607789 -117.223596    0.000000
siesta:     46   17.056213  551.284743    0.000000
siesta:     47   21.431263   -2.341910    0.000000
siesta:     48   -0.879773    1.171116    0.000000
siesta:     49    2.647053   -1.400129    0.000000
siesta:     50   -0.046057    0.252463    0.000000
siesta:     51    0.038582   -0.291030    0.000000
siesta:     52  -34.699194  546.570553    0.000000
siesta:     53  -27.174526   -5.718344    0.000000
siesta:     54  -15.961074  552.476891    0.000000
siesta:     55  -21.874971   -2.094129    0.000000
siesta:     56    3.403033   -5.588353    0.000000
siesta:     57    4.758149   -1.421950    0.000000
siesta:     58    2.633327    2.019207    0.000000
siesta:     59    2.653753    1.398363    0.000000
siesta:     60   -0.970501   -1.024605    0.000000
siesta:     61   -0.028826 -420.226617    0.000000
siesta:     62    1.504540    1.840413    0.000000
siesta:     63   20.606971    4.330881    0.000000
siesta:     64   32.133747 -558.018221    0.000000
siesta:     65  -20.683714    5.003363    0.000000
siesta:     66  -32.226287 -557.889934    0.000000
siesta:     67   -3.011184    1.681390    0.000000
siesta:     68    2.402786    2.255100    0.000000
siesta:     69    0.353025  122.024703    0.000000
siesta:     70   -0.111473 -410.304410    0.000000
siesta:     71   -0.343827  125.934783    0.000000
siesta:     72    0.060777 -410.660775    0.000000
siesta: ----------------------------------------
siesta:    Tot   -0.168216    0.005497    0.000000

siesta: Stress tensor (static) (eV/Ang**3):
siesta:    -0.511455    0.000013    0.000000
siesta:     0.000013   -1.686743    0.000000
siesta:     0.000000    0.000000   -0.000400

siesta: Cell volume =       1893.226884 Ang**3

siesta: Pressure (static):
siesta:                Solid            Molecule  Units
siesta:           0.00798185          0.11432305  Ry/Bohr**3
siesta:           0.73286636         10.49675386  eV/Ang**3
siesta:        1174.19405422      16817.83555435  kBar
(Free)E+ p_basis*V_orbitals  =       -9149.294124
(Free)Eharris+ p_basis*V_orbitals  =       -9149.297597

siesta: Electric dipole (a.u.)  =    0.000000    0.000000    0.000000
siesta: Electric dipole (Debye) =    0.000000    0.000000    0.000000

* Maximum dynamic memory allocated : Node    0 =   240 MB
* Maximum dynamic memory allocated : Node    1 =    85 MB
* Maximum dynamic memory allocated : Node    2 =    87 MB
* Maximum dynamic memory allocated : Node    3 =   228 MB
* Maximum dynamic memory allocated : Node    4 =   230 MB
* Maximum dynamic memory allocated : Node    5 =    83 MB
* Maximum dynamic memory allocated : Node    6 =    85 MB
* Maximum dynamic memory allocated : Node    7 =   211 MB

* Maximum memory occured during matrixMtoO                    

timer: CPU execution times:
timer:  Routine       Calls   Time/call    Tot.time        %
timer:  siesta            1  123500.594  123500.594   100.00
timer:  Setup             1       2.742       2.742     0.00
timer:  bands             3     243.972     731.915     0.59
timer:  writewave         1       0.024       0.024     0.00
timer:  KSV_init          1       0.000       0.000     0.00
timer:  IterMD            1  122760.665  122760.665    99.40
timer:  hsparse           1       0.513       0.513     0.00
timer:  overlap           1       7.223       7.223     0.01
timer:  IterSCF          36    3404.224  122552.071    99.23
timer:  kinefsm           2       3.752       7.505     0.01
timer:  nlefsm            2      20.261      40.523     0.03
timer:  DHSCF            37     106.099    3925.676     3.18
timer:  DHSCF1            1       0.990       0.990     0.00
timer:  DHSCF2            1      42.287      42.287     0.03
timer:  REORD           298       0.005       1.491     0.00
timer:  POISON           38       0.876      33.295     0.03
timer:  DHSCF3           37     103.793    3840.355     3.11
timer:  rhoofd           37      24.025     888.935     0.72
timer:  cellXC           37       3.291     121.782     0.10
timer:  vmat             37      49.100    1816.688     1.47
timer:  MolMec            2       0.000       0.000     0.00
timer:  diagon           36    3297.606  118713.806    96.12
timer:  c-eigval       8437       6.044   50989.405    41.29
timer:  c-buildHS      8437       0.052     438.405     0.35
timer:  cdiag         16753       6.163  103243.802    83.60
timer:  cdiag1        16753       0.386    6463.771     5.23
timer:  cdiag2        16753       1.769   29638.152    24.00
timer:  cdiag3        16753       3.740   62659.504    50.74
timer:  cdiag4        16753       0.157    2633.705     2.13
timer:  c-eigvec       8316       6.382   53071.259    42.97
timer:  c-buildD       8316       1.845   15342.905    12.42
timer:  DHSCF4            1      41.357      41.357     0.03
timer:  dfscf             1      38.566      38.566     0.03
timer:  overfsm           1       0.455       0.455     0.00
timer:  optical           1       4.603       4.603     0.00
  

elaps: ELAPSED times:
elaps:  Routine       Calls   Time/call    Tot.time        %
elaps:  siesta            1   15466.170   15466.170   100.00
elaps:  Setup             1       0.344       0.344     0.00
elaps:  bands             3      30.570      91.711     0.59
elaps:  writewave         1       0.002       0.002     0.00
elaps:  KSV_init          1       0.000       0.000     0.00
elaps:  IterMD            1   15373.508   15373.508    99.40
elaps:  hsparse           1       0.067       0.067     0.00
elaps:  overlap           1       0.913       0.913     0.01
elaps:  IterSCF          36     426.316   15347.388    99.23
elaps:  kinefsm           2       0.470       0.941     0.01
elaps:  nlefsm            2       2.680       5.359     0.03
elaps:  DHSCF            37      13.420     496.533     3.21
elaps:  DHSCF1            1       0.126       0.126     0.00
elaps:  DHSCF2            1       5.294       5.294     0.03
elaps:  REORD           298       0.001       0.196     0.00
elaps:  POISON           38       0.110       4.194     0.03
elaps:  DHSCF3           37      12.999     480.962     3.11
elaps:  rhoofd           37       6.298     233.039     1.51
elaps:  cellXC           37       0.412      15.243     0.10
elaps:  vmat             37       6.149     227.523     1.47
elaps:  MolMec            2       0.000       0.000     0.00
elaps:  diagon           36     412.967   14866.795    96.12
elaps:  c-eigval       8437       0.757    6385.430    41.29
elaps:  c-buildHS      8437       0.007      59.257     0.38
elaps:  cdiag         16753       0.770   12907.476    83.46
elaps:  cdiag1        16753       0.048     804.482     5.20
elaps:  cdiag2        16753       0.222    3712.645    24.00
elaps:  cdiag3        16753       0.469    7857.539    50.80
elaps:  cdiag4        16753       0.020     328.418     2.12
elaps:  c-eigvec       8316       0.797    6628.475    42.86
elaps:  c-buildD       8316       0.233    1938.882    12.54
elaps:  DHSCF4            1      10.064      10.064     0.07
elaps:  dfscf             1       9.513       9.513     0.06
elaps:  overfsm           1       0.058       0.058     0.00
elaps:  optical           1       0.000       0.000     0.00
  
>> End of run:  28-APR-2016   4:13:06
