Siesta Version:                                        siesta-3.2-pl-3
Architecture  : x86_64-unknown-linux-gnu--unknown
Compiler flags: mpiifort -g -O2 -fPIC -xSSE4.1 -fp-model source -shared-intel 
PARALLEL version

* Running on   12 nodes in parallel
>> Start of run:   4-MAY-2016   9:38:59

                           ***********************       
                           *  WELCOME TO SIESTA  *       
                           ***********************       

reinit: Reading from standard input
************************** Dump of input data file ****************************
#(1) General system descriptors
SystemName            GRP_doping    # Descriptive name of the system
SystemLabel           GRP_doping    # Short name for naming files
%include STRUCT.fdf
%include KPT.fdf
%include BASIS.fdf
#%include TS.fdf # for transiesta calculation
#(4) DFT, Grid, SCF
XC.functional         GGA           # LDA or GGA (default = LDA)
XC.authors            PBE           # CA (Ceperley-Aldr) = PZ
                                    #    (Perdew-Zunger) - LDA - Default
                                    # PW92 (Perdew-Wang-92) - LDA
                                    # PBE (Perdew-Burke-Ernzerhof) - GGA
MeshCutoff            200.000000    Ry      # Default: 50.0 Ry ~ 0.444 Bohr
                                    #         100.0 Ry ~ 0.314 Bohr
MaxSCFIterations      500           # Default: 50
DM.MixingWeight       0.05          # Default: 0.25
DM.NumberPulay        10            # Default: 0
DM.PulayOnFile        F             # SystemLabel.P1, SystemLabel.P2
DM.Tolerance          1.d-4         # Default: 1.d-4
DM.UseSaveDM          .true.        # because of the bug
SCFMustConverge       .true.
NeglNonOverlapInt     F             # Default: F
#(5) Eigenvalue problem: order-N or diagonalization
SolutionMethod        Diagon        # or Transiesta
ElectronicTemperature 300.0 K       # Default: 300.0 K
#(6) Molecular dynamics and relaxations
#MD.TypeOfRun          CG            # Type of dynamics:
#MD.VariableCell       F
#MD.NumCGsteps         0           # 0 for single-point / 100 for gopt
#MD.MaxCGDispl         0.2 Bohr      # Default: 0.2 Bohr
#MD.MaxForceTol        0.02 eV/Ang   # Default: 0.04 eV/Ang
#MD.MaxStressTol       1.0 GPa       # Default: 1.0 GPa
# Geometry Constraints
#%block GeometryConstraints
#	position from 1 to 44
#%endblock GeometryConstraints
BandLinesScale   pi/a
%block BandLines
 1   0.00000000  0.00000000  0.00000000
50   0.00000000  0.07809418  0.00000000
50   0.04509075  0.07809242  0.00000000
20   0.00000000  0.00000000  0.00000000
%endblock BandLines
************************** End of input data file *****************************

reinit: -----------------------------------------------------------------------
reinit: System Name: GRP_doping
reinit: -----------------------------------------------------------------------
reinit: System Label: GRP_doping                                                  
reinit: -----------------------------------------------------------------------

initatom: Reading input for the pseudopotentials and atomic orbitals ----------
 Species number:            1  Label: B Atomic number:           5
 Species number:            2  Label: C Atomic number:           6
Ground state valence configuration:   2s02  2p01
Reading pseudopotential information in formatted form from B.psf

Valence configuration for pseudopotential generation:
2s( 2.00) rc: 1.74
2p( 1.00) rc: 1.74
3d( 0.00) rc: 1.74
4f( 0.00) rc: 1.74
Ground state valence configuration:   2s02  2p02
Reading pseudopotential information in formatted form from C.psf

Valence configuration for pseudopotential generation:
2s( 2.00) rc: 1.54
2p( 2.00) rc: 1.54
3d( 0.00) rc: 1.54
4f( 0.00) rc: 1.54
For B, standard SIESTA heuristics set lmxkb to 3
 (one more than the basis l, including polarization orbitals).
Use PS.lmax or PS.KBprojectors blocks to override.
For C, standard SIESTA heuristics set lmxkb to 3
 (one more than the basis l, including polarization orbitals).
Use PS.lmax or PS.KBprojectors blocks to override.

<basis_specs>
===============================================================================
B                    Z=   5    Mass=  10.810        Charge= 0.17977+309
Lmxo=1 Lmxkb= 3    BasisType=split      Semic=F
L=0  Nsemic=0  Cnfigmx=2
          n=1  nzeta=2  polorb=0
            splnorm:   0.15000    
               vcte:    0.0000    
               rinn:    0.0000    
                rcs:    0.0000      0.0000    
            lambdas:    1.0000      1.0000    
L=1  Nsemic=0  Cnfigmx=2
          n=1  nzeta=2  polorb=1
            splnorm:   0.15000    
               vcte:    0.0000    
               rinn:    0.0000    
                rcs:    0.0000      0.0000    
            lambdas:    1.0000      1.0000    
-------------------------------------------------------------------------------
L=0  Nkbl=1  erefs: 0.17977+309
L=1  Nkbl=1  erefs: 0.17977+309
L=2  Nkbl=1  erefs: 0.17977+309
L=3  Nkbl=1  erefs: 0.17977+309
===============================================================================
</basis_specs>

atom: Called for B                     (Z =   5)

read_vps: Pseudopotential generation method:
read_vps: ATM3      Troullier-Martins                       
Total valence charge:    3.00000

read_vps: Pseudopotential includes a core correction:
read_vps: Pseudo-core for xc-correction

xc_check: Exchange-correlation functional:
xc_check: GGA Perdew, Burke & Ernzerhof 1996
V l=0 = -2*Zval/r beyond r=  1.7165
V l=1 = -2*Zval/r beyond r=  1.7165
V l=2 = -2*Zval/r beyond r=  1.7165
V l=3 = -2*Zval/r beyond r=  1.6951
All V_l potentials equal beyond r=  1.7165
This should be close to max(r_c) in ps generation
All pots = -2*Zval/r beyond r=  1.7165

VLOCAL1: 99.0% of the norm of Vloc inside     14.733 Ry
VLOCAL1: 99.9% of the norm of Vloc inside     33.577 Ry
atom: Maximum radius for 4*pi*r*r*local-pseudopot. charge    2.04484
atom: Maximum radius for r*vlocal+2*Zval:    1.75994
GHOST: No ghost state for L =  0
GHOST: No ghost state for L =  1
GHOST: No ghost state for L =  2
GHOST: No ghost state for L =  3

KBgen: Kleinman-Bylander projectors: 
   l= 0   rc=  1.897051   el= -0.693730   Ekb=  4.595746   kbcos=  0.286105
   l= 1   rc=  1.920920   el= -0.265236   Ekb= -2.350715   kbcos= -0.315747
   l= 2   rc=  2.044840   el=  0.002055   Ekb= -0.690767   kbcos= -0.013822
   l= 3   rc=  2.149707   el=  0.003188   Ekb= -0.315358   kbcos= -0.002055

KBgen: Total number of  Kleinman-Bylander projectors:   16
atom: -------------------------------------------------------------------------

atom: SANKEY-TYPE ORBITALS:
atom: Selected multiple-zeta basis: split     

SPLIT: Orbitals with angular momentum L= 0

SPLIT: Basis orbitals for state 2s

SPLIT: PAO cut-off radius determined from an
SPLIT: energy shift=  0.007350 Ry

   izeta = 1
                 lambda =    1.000000
                     rc =    5.422032
                 energy =   -0.686029
                kinetic =    0.576707
    potential(screened) =   -1.262736
       potential(ionic) =   -3.271094

   izeta = 2
                 rmatch =    4.222573
              splitnorm =    0.150000
                 energy =   -0.602132
                kinetic =    0.858975
    potential(screened) =   -1.461107
       potential(ionic) =   -3.582536

SPLIT: Orbitals with angular momentum L= 1

SPLIT: Basis orbitals for state 2p

SPLIT: PAO cut-off radius determined from an
SPLIT: energy shift=  0.007350 Ry

   izeta = 1
                 lambda =    1.000000
                     rc =    6.790259
                 energy =   -0.258578
                kinetic =    1.481412
    potential(screened) =   -1.739989
       potential(ionic) =   -3.657461

   izeta = 2
                 rmatch =    4.608740
              splitnorm =    0.150000
                 energy =   -0.173757
                kinetic =    2.186690
    potential(screened) =   -2.360447
       potential(ionic) =   -4.464260

POLgen: Perturbative polarization orbital with L=  2

POLgen: Polarization orbital for state 2p

   izeta = 1
                     rc =    6.790259
                 energy =    0.684082
                kinetic =    1.471481
    potential(screened) =   -0.787399
       potential(ionic) =   -2.406985
atom: Total number of Sankey-type orbitals: 13

atm_pop: Valence configuration (for local Pseudopot. screening):
 2s( 2.00)                                                            
 2p( 1.00)                                                            
Vna: chval, zval:    3.00000   3.00000

Vna:  Cut-off radius for the neutral-atom potential:   6.790259
comcore: Pseudo-core radius Rcore=  2.122997

atom: _________________________________________________________________________

<basis_specs>
===============================================================================
C                    Z=   6    Mass=  12.010        Charge= 0.17977+309
Lmxo=1 Lmxkb= 3    BasisType=split      Semic=F
L=0  Nsemic=0  Cnfigmx=2
          n=1  nzeta=2  polorb=0
            splnorm:   0.15000    
               vcte:    0.0000    
               rinn:    0.0000    
                rcs:    0.0000      0.0000    
            lambdas:    1.0000      1.0000    
L=1  Nsemic=0  Cnfigmx=2
          n=1  nzeta=2  polorb=1
            splnorm:   0.15000    
               vcte:    0.0000    
               rinn:    0.0000    
                rcs:    0.0000      0.0000    
            lambdas:    1.0000      1.0000    
-------------------------------------------------------------------------------
L=0  Nkbl=1  erefs: 0.17977+309
L=1  Nkbl=1  erefs: 0.17977+309
L=2  Nkbl=1  erefs: 0.17977+309
L=3  Nkbl=1  erefs: 0.17977+309
===============================================================================
</basis_specs>

atom: Called for C                     (Z =   6)

read_vps: Pseudopotential generation method:
read_vps: ATM3      Troullier-Martins                       
Total valence charge:    4.00000

read_vps: Pseudopotential includes a core correction:
read_vps: Pseudo-core for xc-correction

xc_check: Exchange-correlation functional:
xc_check: GGA Perdew, Burke & Ernzerhof 1996
V l=0 = -2*Zval/r beyond r=  1.5227
V l=1 = -2*Zval/r beyond r=  1.5227
V l=2 = -2*Zval/r beyond r=  1.5227
V l=3 = -2*Zval/r beyond r=  1.5038
All V_l potentials equal beyond r=  1.5227
This should be close to max(r_c) in ps generation
All pots = -2*Zval/r beyond r=  1.5227

VLOCAL1: 99.0% of the norm of Vloc inside     18.722 Ry
VLOCAL1: 99.9% of the norm of Vloc inside     42.668 Ry
atom: Maximum radius for 4*pi*r*r*local-pseudopot. charge    1.83678
atom: Maximum radius for r*vlocal+2*Zval:    1.58088
GHOST: No ghost state for L =  0
GHOST: No ghost state for L =  1
GHOST: No ghost state for L =  2
GHOST: No ghost state for L =  3

KBgen: Kleinman-Bylander projectors: 
   l= 0   rc=  1.704034   el= -1.009801   Ekb=  5.335044   kbcos=  0.316824
   l= 1   rc=  1.704034   el= -0.388707   Ekb= -3.785862   kbcos= -0.366464
   l= 2   rc=  1.791422   el=  0.001971   Ekb= -0.970471   kbcos= -0.009212
   l= 3   rc=  1.859892   el=  0.003065   Ekb= -0.399525   kbcos= -0.001223

KBgen: Total number of  Kleinman-Bylander projectors:   16
atom: -------------------------------------------------------------------------

atom: SANKEY-TYPE ORBITALS:
atom: Selected multiple-zeta basis: split     

SPLIT: Orbitals with angular momentum L= 0

SPLIT: Basis orbitals for state 2s

SPLIT: PAO cut-off radius determined from an
SPLIT: energy shift=  0.007350 Ry

   izeta = 1
                 lambda =    1.000000
                     rc =    4.632753
                 energy =   -1.002270
                kinetic =    0.855760
    potential(screened) =   -1.858031
       potential(ionic) =   -5.417575

   izeta = 2
                 rmatch =    3.431921
              splitnorm =    0.150000
                 energy =   -0.867111
                kinetic =    1.300804
    potential(screened) =   -2.167915
       potential(ionic) =   -5.962684

SPLIT: Orbitals with angular momentum L= 1

SPLIT: Basis orbitals for state 2p

SPLIT: PAO cut-off radius determined from an
SPLIT: energy shift=  0.007350 Ry

   izeta = 1
                 lambda =    1.000000
                     rc =    5.658549
                 energy =   -0.381140
                kinetic =    2.399701
    potential(screened) =   -2.780841
       potential(ionic) =   -6.206085

   izeta = 2
                 rmatch =    3.653288
              splitnorm =    0.150000
                 energy =   -0.249149
                kinetic =    3.542762
    potential(screened) =   -3.791911
       potential(ionic) =   -7.581078

POLgen: Perturbative polarization orbital with L=  2

POLgen: Polarization orbital for state 2p

   izeta = 1
                     rc =    5.658549
                 energy =    1.109913
                kinetic =    2.304789
    potential(screened) =   -1.194876
       potential(ionic) =   -4.013592
atom: Total number of Sankey-type orbitals: 13

atm_pop: Valence configuration (for local Pseudopot. screening):
 2s( 2.00)                                                            
 2p( 2.00)                                                            
Vna: chval, zval:    4.00000   4.00000

Vna:  Cut-off radius for the neutral-atom potential:   5.658549
comcore: Pseudo-core radius Rcore=  1.791422

atom: _________________________________________________________________________

prinput: Basis input ----------------------------------------------------------

PAO.BasisType split     

%block ChemicalSpeciesLabel
    1    5 B                       # Species index, atomic number, species label
    2    6 C                       # Species index, atomic number, species label
%endblock ChemicalSpeciesLabel

%block PAO.Basis                 # Define Basis set
B                     2                    # Species label, number of l-shells
 n=2   0   2                         # n, l, Nzeta 
   5.422      4.223   
   1.000      1.000   
 n=2   1   2 P   1                   # n, l, Nzeta, Polarization, NzetaPol
   6.790      4.609   
   1.000      1.000   
C                     2                    # Species label, number of l-shells
 n=2   0   2                         # n, l, Nzeta 
   4.633      3.432   
   1.000      1.000   
 n=2   1   2 P   1                   # n, l, Nzeta, Polarization, NzetaPol
   5.659      3.653   
   1.000      1.000   
%endblock PAO.Basis

prinput: ----------------------------------------------------------------------

coor:   Atomic-coordinates input format  =     Fractional

siesta: Atomic coordinates (Bohr) and species
siesta:     -0.02582   5.28395   0.00000  1        1
siesta:      9.28770  26.79272   0.00000  1        2
siesta:     -0.02582  18.72698   0.00000  1        3
siesta:     -7.01096  17.38257   0.00000  1        4
siesta:    -11.66772  25.44831   0.00000  1        5
siesta:     -4.68258  29.48119   0.00000  1        6
siesta:     -0.02582  34.85847   0.00000  1        7
siesta:     -0.02582   2.59549   0.00000  2        8
siesta:     -2.35420  38.89134   0.00000  2        9
siesta:     -2.35420  41.57980   0.00000  2       10
siesta:      2.30256  38.89134   0.00000  2       11
siesta:      2.30256  41.57980   0.00000  2       12
siesta:      4.63094  34.85847   0.00000  2       13
siesta:      4.63094  37.54693   0.00000  2       14
siesta:      6.95932  30.82560   0.00000  2       15
siesta:      6.95932  33.51406   0.00000  2       16
siesta:      9.28770  29.48119   0.00000  2       17
siesta:     -4.68258  34.85847   0.00000  2       18
siesta:     -4.68258  37.54693   0.00000  2       19
siesta:      2.30256   6.62836   0.00000  2       20
siesta:      2.30256   9.31683   0.00000  2       21
siesta:      4.63094  10.66124   0.00000  2       22
siesta:      4.63094  13.34970   0.00000  2       23
siesta:      6.95932  14.69411   0.00000  2       24
siesta:      6.95932  17.38257   0.00000  2       25
siesta:      9.28770  18.72698   0.00000  2       26
siesta:      9.28770  21.41544   0.00000  2       27
siesta:     11.61608  22.75985   0.00000  2       28
siesta:     11.61608  25.44831   0.00000  2       29
siesta:     -2.35420   6.62836   0.00000  2       30
siesta:     -2.35420   9.31683   0.00000  2       31
siesta:     -0.02582  10.66124   0.00000  2       32
siesta:     -0.02582  13.34970   0.00000  2       33
siesta:      2.30256  14.69411   0.00000  2       34
siesta:      2.30256  17.38257   0.00000  2       35
siesta:      4.63094  18.72698   0.00000  2       36
siesta:      4.63094  21.41544   0.00000  2       37
siesta:      6.95932  22.75985   0.00000  2       38
siesta:      6.95932  25.44831   0.00000  2       39
siesta:     -4.68258  10.66124   0.00000  2       40
siesta:     -4.68258  13.34970   0.00000  2       41
siesta:     -2.35420  14.69411   0.00000  2       42
siesta:     -2.35420  17.38257   0.00000  2       43
siesta:     -0.02582  21.41544   0.00000  2       44
siesta:      2.30256  22.75985   0.00000  2       45
siesta:      2.30256  25.44831   0.00000  2       46
siesta:     -7.01096  14.69411   0.00000  2       47
siesta:     -4.68258  18.72698   0.00000  2       48
siesta:     -4.68258  21.41544   0.00000  2       49
siesta:     -2.35420  22.75985   0.00000  2       50
siesta:     -2.35420  25.44831   0.00000  2       51
siesta:     -9.33934  18.72698   0.00000  2       52
siesta:     -9.33934  21.41544   0.00000  2       53
siesta:     -7.01096  22.75985   0.00000  2       54
siesta:     -7.01096  25.44831   0.00000  2       55
siesta:    -11.66772  22.75985   0.00000  2       56
siesta:     -9.33934  26.79272   0.00000  2       57
siesta:     -9.33934  29.48119   0.00000  2       58
siesta:      4.63094  26.79272   0.00000  2       59
siesta:      4.63094  29.48119   0.00000  2       60
siesta:     -0.02582  26.79272   0.00000  2       61
siesta:     -0.02582  29.48119   0.00000  2       62
siesta:     -4.68258  26.79272   0.00000  2       63
siesta:      2.30256  30.82560   0.00000  2       64
siesta:      2.30256  33.51406   0.00000  2       65
siesta:     -2.35420  30.82560   0.00000  2       66
siesta:     -2.35420  33.51406   0.00000  2       67
siesta:     -7.01096  30.82560   0.00000  2       68
siesta:     -7.01096  33.51406   0.00000  2       69
siesta:     -0.02582  37.54693   0.00000  2       70
siesta:     -0.02582  42.92421   0.00000  2       71
siesta:     -0.02582  45.61267   0.00000  2       72

siesta: System type = slab      

initatomlists: Number of atoms, orbitals, and projectors:     72   936  1152

siesta: ******************** Simulation parameters ****************************
siesta:
siesta: The following are some of the parameters of the simulation.
siesta: A complete list of the parameters used, including default values,
siesta: can be found in file out.fdf
siesta:
redata: Non-Collinear-spin run           =     F
redata: SpinPolarized (Up/Down) run      =     F
redata: Number of spin components        =     1
redata: Long output                      =     F
redata: Number of Atomic Species         =        2
redata: Charge density info will appear in .RHO file
redata: Write Mulliken Pop.              =     NO
redata: Mesh Cutoff                      =   200.0000  Ry
redata: Net charge of the system         =     0.0000 |e|
redata: Max. number of SCF Iter          =      500
redata: SCF convergence failure will abort job
redata: Performing Pulay mixing using    =    10 iterations
redata: Mix DM in first SCF step ?       =     F
redata: Write Pulay info on disk?        =     F
redata: Discard 1st Pulay DM after  kick =     F
redata: New DM Mixing Weight             =     0.0500
redata: New DM Occupancy tolerance       = 0.000000000001
redata: No kicks to SCF
redata: DM Mixing Weight for Kicks       =     0.5000
redata: DM Tolerance for SCF             =     0.000100
redata: Require Energy convergence for SCF =     F
redata: DM Energy tolerance for SCF      =     0.000100 eV
redata: Require Harris convergence for SCF =     F
redata: DM Harris energy tolerance for SCF =     0.000100 eV
redata: Using Saved Data (generic)   =     F
redata: Use continuation files for DM    =     T
redata: Neglect nonoverlap interactions  =     F
redata: Method of Calculation            =     Diagonalization
redata: Divide and Conquer               =     T
redata: Electronic Temperature           =     0.0019  Ry
redata: Fix the spin of the system       =     F
redata: Dynamics option                  =     Verlet MD run
redata: Initial MD time step             =        1
redata:   Final MD time step             =        1
redata: Length of MD time step           =     1.0000  fs
redata: Initial Temperature of MD run    =     0.0000  K
redata: Perform a MD quench              =     F
redata: ***********************************************************************
Total number of electrons:   281.000000
Total ionic charge:   281.000000

* ProcessorY, Blocksize:    3  24

k-point displ. along   1 input, could be:     0.50    0.00
k-point displ. along   2 input, could be:     0.50    0.00
 Kpoints in:          231 . Kpoints trimmed:          231

siesta: k-grid: Number of k-points =   231
siesta: k-grid: Cutoff (effective) =     5.000 Ang
siesta: k-grid: Supercell and displacements
siesta: k-grid:   21   0   0      0.500
siesta: k-grid:    0  21   0      0.500
siesta: k-grid:    0   0   1      0.000
Naive supercell factors:     2    2    2

superc: Internal auxiliary supercell:     2 x     2 x     2  =       8
superc: Number of atoms, orbitals, and projectors:    576   7488   9216

* Maximum dynamic memory allocated =     4 MB

siesta:                 ==============================
                            Begin MD step =      1
                        ==============================

superc: Internal auxiliary supercell:     2 x     2 x     2  =       8
superc: Number of atoms, orbitals, and projectors:    576   7488   9216

outcell: Unit cell vectors (Ang):
       12.804619    7.392750    0.000000
        0.000000   14.785500    0.000000
        0.000000    0.000000   10.000000

outcell: Cell vector modules (Ang)   :   14.785500   14.785500   10.000000
outcell: Cell angles (23,13,12) (deg):     90.0000     90.0000     60.0000
outcell: Cell volume (Ang**3)        :   1893.2269
New_DM. Step:     1
Initializing Density Matrix...

InitMesh: MESH =   120 x   120 x    90 =     1296000
InitMesh: Mesh cutoff (required, used) =   200.000   223.865 Ry

* Maximum dynamic memory allocated =   149 MB

stepf: Fermi-Dirac step function

siesta: Program's energy decomposition (eV):
siesta: Ebs     =     -5758.925495
siesta: Eions   =     17506.614093
siesta: Ena     =      4554.999429
siesta: Ekin    =      6009.009694
siesta: Enl     =       689.088148
siesta: DEna    =        -0.000013
siesta: DUscf   =         0.000000
siesta: DUext   =         0.000000
siesta: Exc     =     -4175.619724
siesta: eta*DQ  =         0.000000
siesta: Emadel  =         0.000000
siesta: Emeta   =         0.000000
siesta: Emolmec =         0.000000
siesta: Ekinion =         0.000000
siesta: Eharris =    -10144.887784
siesta: Etot    =    -10429.136558
siesta: FreeEng =    -10429.136558

siesta: iscf   Eharris(eV)      E_KS(eV)   FreeEng(eV)   dDmax  Ef(eV)
siesta:    1   -10144.8878   -10429.1366   -10429.1366  6.1464 -7.9703
timer: Routine,Calls,Time,% = IterSCF        1    3036.706  99.59
elaps: Routine,Calls,Wall,% = IterSCF        1     253.660  99.59
siesta:    2   -13955.1480    -9515.5423    -9515.6285 13.0421 -2.9128
siesta:    3   -10153.9311   -10218.0113   -10218.0525  1.7014 -4.7883
siesta:    4   -10073.9054   -10156.5341   -10156.5580  1.4634 -5.3255
siesta:    5   -10056.2586   -10097.0987   -10097.1353  0.9707 -5.0745
siesta:    6   -10011.5895   -10040.5525   -10040.5748  0.8540 -4.4011
siesta:    7   -10007.8614   -10034.8770   -10034.9419  0.8328 -4.4164
siesta:    8   -10006.6892   -10033.6999   -10033.7644  0.8311 -4.4013
siesta:    9   -10004.4122   -10027.5473   -10027.6170  0.7437 -4.4603
siesta:   10   -10003.6653   -10024.7453   -10024.8007  0.6849 -4.4871
siesta:   11   -10002.5719   -10005.6453   -10005.6983  0.3776 -4.4863
siesta:   12   -10002.9230    -9996.4335    -9996.4911  0.3570 -4.5214
siesta:   13   -10002.0895    -9991.3929    -9991.4545  0.2288 -4.5097
siesta:   14   -10002.5423    -9994.4763    -9994.5433  0.3572 -4.4849
siesta:   15   -10001.7109    -9994.9123    -9994.9641  0.3003 -4.4963
siesta:   16   -10001.4784    -9994.6768    -9994.7367  0.2976 -4.5669
siesta:   17   -10001.1204    -9998.6226    -9998.6757  0.2517 -4.5750
siesta:   18   -10001.1504    -9999.8425    -9999.9031  0.3239 -4.5849
siesta:   19   -10000.9522    -9999.7233    -9999.7710  0.2441 -4.5956
siesta:   20   -10000.8546    -9998.8148    -9998.8751  0.0411 -4.6233
siesta:   21   -10000.8628    -9999.1014    -9999.1748  0.1588 -4.6076
siesta:   22   -10000.8510    -9999.1312    -9999.2039  0.1348 -4.6063
siesta:   23   -10000.8183    -9999.2450    -9999.3169  0.0944 -4.6048
siesta:   24   -10000.8167    -9999.6394    -9999.7178  0.0796 -4.6079
siesta:   25   -10000.8071   -10000.0785   -10000.1576  0.0167 -4.6160
siesta:   26   -10000.8087   -10000.4329   -10000.5120  0.0642 -4.6102
siesta:   27   -10000.8088   -10000.7130   -10000.7919  0.0835 -4.6089
siesta:   28   -10000.8036   -10000.6564   -10000.7355  0.0361 -4.6145
siesta:   29   -10000.8032   -10000.4862   -10000.5649  0.0077 -4.6181
siesta:   30   -10000.8034   -10000.4601   -10000.5385  0.0071 -4.6174
siesta:   31   -10000.8030   -10000.5900   -10000.6681  0.0040 -4.6162
siesta:   32   -10000.8029   -10000.6659   -10000.7442  0.0039 -4.6162
siesta:   33   -10000.8030   -10000.7165   -10000.7948  0.0026 -4.6177
siesta:   34   -10000.8028   -10000.7700   -10000.8483  0.0031 -4.6177
siesta:   35   -10000.8028   -10000.7984   -10000.8768  0.0016 -4.6177
siesta:   36   -10000.8029   -10000.8105   -10000.8889  0.0017 -4.6177
siesta:   37   -10000.8029   -10000.8268   -10000.9051  0.0007 -4.6175
siesta:   38   -10000.8029   -10000.8305   -10000.9089  0.0004 -4.6174
siesta:   39   -10000.8029   -10000.8278   -10000.9061  0.0003 -4.6174
siesta:   40   -10000.8029   -10000.8220   -10000.9003  0.0002 -4.6173
siesta:   41   -10000.8029   -10000.8158   -10000.8942  0.0003 -4.6173
siesta:   42   -10000.8029   -10000.8097   -10000.8881  0.0001 -4.6172

siesta: E_KS(eV) =           -10000.8061

siesta: E_KS - E_eggbox =    -10000.8061

siesta: Atomic forces (eV/Ang):
----------------------------------------
   Tot   -0.147117   -0.012644    0.000000
----------------------------------------
   Max  567.341022
   Res  157.447164    sqrt( Sum f_i^2 / 3N )
----------------------------------------
   Max  567.341022    constrained

Stress-tensor-Voigt (kbar):     -714.73    -2755.85       -0.35       -2.70        0.00        0.00
(Free)E + p*V (eV/cell)    -8633.7444
Target enthalpy (eV/cell)   -10000.8844

siesta: Stress tensor (static) (eV/Ang**3):
        -0.446094   -0.001685    0.000000
        -0.001685   -1.720050    0.000000
         0.000000    0.000000   -0.000220

siesta: Pressure (static):       1156.97882373  kBar

siesta: Stress tensor (total) (eV/Ang**3):
        -0.446094   -0.001685    0.000000
        -0.001685   -1.720050    0.000000
         0.000000    0.000000   -0.000220

siesta: Pressure (total):       1156.97882373  kBar

siesta: Temp_ion =       0.000 K

* Maximum dynamic memory allocated =   162 MB
Computing bands...

siesta: Program's energy decomposition (eV):
siesta: Ebs     =     -4473.142288
siesta: Eions   =     17506.614093
siesta: Ena     =      4554.999429
siesta: Ekin    =      8926.999721
siesta: Enl     =      -964.731645
siesta: DEna    =      -768.266321
siesta: DUscf   =       100.227420
siesta: DUext   =         0.000000
siesta: Exc     =     -4343.420565
siesta: eta*DQ  =         0.000000
siesta: Emadel  =         0.000000
siesta: Emeta   =         0.000000
siesta: Emolmec =         0.000000
siesta: Ekinion =         0.000000
siesta: Eharris =    -10000.802861
siesta: Etot    =    -10000.806052
siesta: FreeEng =    -10000.884406

siesta: Final energy (eV):
siesta:  Band Struct. =   -4473.142288
siesta:       Kinetic =    8926.999721
siesta:       Hartree =   29210.184767
siesta:    Ext. field =       0.000000
siesta:   Exch.-corr. =   -4343.420565
siesta:  Ion-electron =  -67074.121312
siesta:       Ion-ion =   23279.551336
siesta:       Ekinion =       0.000000
siesta:         Total =  -10000.806052

siesta: Atomic forces (eV/Ang):
siesta:      1   -0.559077 -112.981540    0.000000
siesta:      2    3.203716    1.817967    0.000000
siesta:      3   -0.078322  411.885503    0.000000
siesta:      4   -3.030759   -1.106384    0.000000
siesta:      5   -2.025935   -2.106366    0.000000
siesta:      6    0.388797   -0.854946    0.000000
siesta:      7   -0.038971  112.978752    0.000000
siesta:      8    2.045006  552.603274    0.000000
siesta:      9    1.707981  128.490734    0.000000
siesta:     10  -17.343375 -548.536708    0.000000
siesta:     11   -2.244452  128.332042    0.000000
siesta:     12   17.168250 -549.308281    0.000000
siesta:     13   27.091564    4.961988    0.000000
siesta:     14   32.622147 -548.308783    0.000000
siesta:     15    2.170753    0.634799    0.000000
siesta:     16   -2.603611    2.061208    0.000000
siesta:     17   -1.840250    4.126565    0.000000
siesta:     18  -26.514614    5.029413    0.000000
siesta:     19  -32.877093 -548.243526    0.000000
siesta:     20   12.735296  548.279088    0.000000
siesta:     21   -3.363092 -130.546124    0.000000
siesta:     22   33.858117  548.414051    0.000000
siesta:     23   26.509096   -5.539280    0.000000
siesta:     24   -2.164811   -1.894118    0.000000
siesta:     25    1.767115   -0.104933    0.000000
siesta:     26   -0.812648   -0.398129    0.000000
siesta:     27    2.668543   -1.965608    0.000000
siesta:     28   -0.206722    7.437834    0.000000
siesta:     29    2.736062   -9.792074    0.000000
siesta:     30  -13.525448  546.904965    0.000000
siesta:     31    2.890373 -130.130636    0.000000
siesta:     32   -0.148009  554.163506    0.000000
siesta:     33    0.049313 -130.658764    0.000000
siesta:     34   22.527485  557.891148    0.000000
siesta:     35   22.357530   -3.243875    0.000000
siesta:     36   -1.049951    2.143937    0.000000
siesta:     37    1.146344   -0.842309    0.000000
siesta:     38   -1.118833    0.399942    0.000000
siesta:     39   -3.363248   -1.843050    0.000000
siesta:     40  -32.550600  547.452994    0.000000
siesta:     41  -26.751042   -4.848542    0.000000
siesta:     42  -22.838845  558.323271    0.000000
siesta:     43  -22.670746   -2.174392    0.000000
siesta:     44    0.151747    3.212191    0.000000
siesta:     45   -1.469870    0.119094    0.000000
siesta:     46   -1.094245    0.404300    0.000000
siesta:     47    3.719541   -5.875539    0.000000
siesta:     48    3.918481    2.552119    0.000000
siesta:     49   -0.823708    0.655288    0.000000
siesta:     50    1.159592   -0.208004    0.000000
siesta:     51    0.284309    0.537671    0.000000
siesta:     52   -1.371666    2.160496    0.000000
siesta:     53   -3.934276   -1.059524    0.000000
siesta:     54    1.469696    0.066221    0.000000
siesta:     55    1.353293   -0.191696    0.000000
siesta:     56    0.216311   -0.140553    0.000000
siesta:     57   -0.033348    3.908766    0.000000
siesta:     58    1.378758   -0.856126    0.000000
siesta:     59    0.695433    0.556405    0.000000
siesta:     60   -0.415776   -2.550003    0.000000
siesta:     61    0.157578   -2.053957    0.000000
siesta:     62   -1.084222 -567.341022    0.000000
siesta:     63   -0.622156   -3.440568    0.000000
siesta:     64   19.124592    8.427185    0.000000
siesta:     65   19.467510 -556.824499    0.000000
siesta:     66  -17.297467    8.119538    0.000000
siesta:     67  -18.202607 -556.045992    0.000000
siesta:     68   -5.584232    3.109687    0.000000
siesta:     69    2.677590    1.403255    0.000000
siesta:     70    0.051098 -548.886392    0.000000
siesta:     71    0.038348  127.431960    0.000000
siesta:     72   -0.000457 -406.107559    0.000000
siesta: ----------------------------------------
siesta:    Tot   -0.147117   -0.012644    0.000000

siesta: Stress tensor (static) (eV/Ang**3):
siesta:    -0.446094   -0.001685    0.000000
siesta:    -0.001685   -1.720050    0.000000
siesta:     0.000000    0.000000   -0.000220

siesta: Cell volume =       1893.226884 Ang**3

siesta: Pressure (static):
siesta:                Solid            Molecule  Units
siesta:           0.00786483          0.12210162  Ry/Bohr**3
siesta:           0.72212158         11.21095546  eV/Ang**3
siesta:        1156.97882373      17962.12503661  kBar
(Free)E+ p_basis*V_orbitals  =       -9967.935114
(Free)Eharris+ p_basis*V_orbitals  =       -9967.928226

siesta: Electric dipole (a.u.)  =    0.000000    0.000000    0.000000
siesta: Electric dipole (Debye) =    0.000000    0.000000    0.000000

* Maximum dynamic memory allocated : Node    0 =   162 MB
* Maximum dynamic memory allocated : Node    1 =    65 MB
* Maximum dynamic memory allocated : Node    2 =    66 MB
* Maximum dynamic memory allocated : Node    3 =   149 MB
* Maximum dynamic memory allocated : Node    4 =   158 MB
* Maximum dynamic memory allocated : Node    5 =    58 MB
* Maximum dynamic memory allocated : Node    6 =    59 MB
* Maximum dynamic memory allocated : Node    7 =   150 MB
* Maximum dynamic memory allocated : Node    8 =   143 MB
* Maximum dynamic memory allocated : Node    9 =    58 MB
* Maximum dynamic memory allocated : Node   10 =    60 MB
* Maximum dynamic memory allocated : Node   11 =   138 MB

* Maximum memory occured during matrixMtoO                    

timer: CPU execution times:
timer:  Routine       Calls   Time/call    Tot.time        %
timer:  siesta            1  124454.179  124454.179   100.00
timer:  Setup             1       3.350       3.350     0.00
timer:  bands             3     225.497     676.492     0.54
timer:  writewave         1       0.023       0.023     0.00
timer:  KSV_init          1       0.004       0.004     0.00
timer:  IterMD            1  123767.459  123767.459    99.45
timer:  hsparse           1       0.281       0.281     0.00
timer:  overlap           1       5.767       5.767     0.00
timer:  IterSCF          42    2943.416  123623.487    99.33
timer:  kinefsm           2       2.938       5.877     0.00
timer:  nlefsm            2      19.957      39.914     0.03
timer:  DHSCF            43      77.776    3344.378     2.69
timer:  DHSCF1            1       1.197       1.197     0.00
timer:  DHSCF2            1      31.754      31.754     0.03
timer:  REORD           346       0.002       0.757     0.00
timer:  POISON           44       0.447      19.674     0.02
timer:  DHSCF3           43      76.413    3285.767     2.64
timer:  rhoofd           43      15.216     654.284     0.53
timer:  cellXC           43       2.487     106.937     0.09
timer:  vmat             43      39.160    1683.860     1.35
timer:  MolMec            2       0.000       0.000     0.00
timer:  diagon           42    2864.399  120304.751    96.67
timer:  c-eigval       9823       5.590   54913.284    44.12
timer:  c-buildHS      9823       0.035     346.277     0.28
timer:  cdiag         19525       5.686  111018.338    89.20
timer:  cdiag1        19525       0.259    5056.233     4.06
timer:  cdiag2        19525       1.837   35863.201    28.82
timer:  cdiag3        19525       3.384   66072.993    53.09
timer:  cdiag4        19525       0.088    1726.255     1.39
timer:  c-eigvec       9702       5.848   56739.979    45.59
timer:  c-buildD       9702       0.956    9274.907     7.45
timer:  DHSCF4            1      25.397      25.397     0.02
timer:  dfscf             1      23.352      23.352     0.02
timer:  overfsm           1       0.312       0.312     0.00
timer:  optical           1       6.278       6.278     0.01
  

elaps: ELAPSED times:
elaps:  Routine       Calls   Time/call    Tot.time        %
elaps:  siesta            1   10395.617   10395.617   100.00
elaps:  Setup             1       0.279       0.279     0.00
elaps:  bands             3      18.851      56.553     0.54
elaps:  writewave         1       0.002       0.002     0.00
elaps:  KSV_init          1       0.000       0.000     0.00
elaps:  IterMD            1   10338.255   10338.255    99.45
elaps:  hsparse           1       0.027       0.027     0.00
elaps:  overlap           1       0.714       0.714     0.01
elaps:  IterSCF          42     245.863   10326.230    99.33
elaps:  kinefsm           2       0.366       0.732     0.01
elaps:  nlefsm            2       1.801       3.602     0.03
elaps:  DHSCF            43       6.546     281.461     2.71
elaps:  DHSCF1            1       0.102       0.102     0.00
elaps:  DHSCF2            1       2.651       2.651     0.03
elaps:  REORD           346       0.000       0.101     0.00
elaps:  POISON           44       0.038       1.662     0.02
elaps:  DHSCF3           43       6.384     274.502     2.64
elaps:  rhoofd           43       2.704     116.273     1.12
elaps:  cellXC           43       0.207       8.911     0.09
elaps:  vmat             43       3.272     140.693     1.35
elaps:  MolMec            2       0.000       0.000     0.00
elaps:  diagon           42     239.268   10049.275    96.67
elaps:  c-eigval       9823       0.467    4586.831    44.12
elaps:  c-buildHS      9823       0.004      36.711     0.35
elaps:  cdiag         19525       0.470    9181.562    88.32
elaps:  cdiag1        19525       0.021     413.123     3.97
elaps:  cdiag2        19525       0.154    2998.316    28.84
elaps:  cdiag3        19525       0.283    5527.393    53.17
elaps:  cdiag4        19525       0.007     138.297     1.33
elaps:  c-eigvec       9702       0.481    4663.175    44.86
elaps:  c-buildD       9702       0.088     850.843     8.18
elaps:  DHSCF4            1       4.163       4.163     0.04
elaps:  dfscf             1       3.912       3.912     0.04
elaps:  overfsm           1       0.033       0.033     0.00
elaps:  optical           1       0.000       0.000     0.00
  
>> End of run:   4-MAY-2016  12:32:15
