Siesta Version:                                        siesta-3.2-pl-3
Architecture  : x86_64-unknown-linux-gnu--unknown
Compiler flags: mpiifort -g -O2 -fPIC -xSSE4.1 -fp-model source -shared-intel 
PARALLEL version

* Running on   12 nodes in parallel
>> Start of run:   4-MAY-2016  21:08:36

                           ***********************       
                           *  WELCOME TO SIESTA  *       
                           ***********************       

reinit: Reading from standard input
************************** Dump of input data file ****************************
#(1) General system descriptors
SystemName            GRP_doping    # Descriptive name of the system
SystemLabel           GRP_doping    # Short name for naming files
%include STRUCT.fdf
%include KPT.fdf
%include BASIS.fdf
#%include TS.fdf # for transiesta calculation
#(4) DFT, Grid, SCF
XC.functional         GGA           # LDA or GGA (default = LDA)
XC.authors            PBE           # CA (Ceperley-Aldr) = PZ
                                    #    (Perdew-Zunger) - LDA - Default
                                    # PW92 (Perdew-Wang-92) - LDA
                                    # PBE (Perdew-Burke-Ernzerhof) - GGA
MeshCutoff            200.000000    Ry      # Default: 50.0 Ry ~ 0.444 Bohr
                                    #         100.0 Ry ~ 0.314 Bohr
MaxSCFIterations      500           # Default: 50
DM.MixingWeight       0.05          # Default: 0.25
DM.NumberPulay        10            # Default: 0
DM.PulayOnFile        F             # SystemLabel.P1, SystemLabel.P2
DM.Tolerance          1.d-4         # Default: 1.d-4
DM.UseSaveDM          .true.        # because of the bug
SCFMustConverge       .true.
NeglNonOverlapInt     F             # Default: F
#(5) Eigenvalue problem: order-N or diagonalization
SolutionMethod        Diagon        # or Transiesta
ElectronicTemperature 300.0 K       # Default: 300.0 K
#(6) Molecular dynamics and relaxations
#MD.TypeOfRun          CG            # Type of dynamics:
#MD.VariableCell       F
#MD.NumCGsteps         0           # 0 for single-point / 100 for gopt
#MD.MaxCGDispl         0.2 Bohr      # Default: 0.2 Bohr
#MD.MaxForceTol        0.02 eV/Ang   # Default: 0.04 eV/Ang
#MD.MaxStressTol       1.0 GPa       # Default: 1.0 GPa
# Geometry Constraints
#%block GeometryConstraints
#	position from 1 to 44
#%endblock GeometryConstraints
BandLinesScale   pi/a
%block BandLines
 1   0.00000000  0.00000000  0.00000000
50   0.00000000  0.07809418  0.00000000
50   0.04509075  0.07809242  0.00000000
20   0.00000000  0.00000000  0.00000000
%endblock BandLines
************************** End of input data file *****************************

reinit: -----------------------------------------------------------------------
reinit: System Name: GRP_doping
reinit: -----------------------------------------------------------------------
reinit: System Label: GRP_doping                                                  
reinit: -----------------------------------------------------------------------

initatom: Reading input for the pseudopotentials and atomic orbitals ----------
 Species number:            1  Label: N Atomic number:           7
 Species number:            2  Label: C Atomic number:           6
Ground state valence configuration:   2s02  2p03
Reading pseudopotential information in formatted form from N.psf

Valence configuration for pseudopotential generation:
2s( 2.00) rc: 1.48
2p( 3.00) rc: 1.48
3d( 0.00) rc: 1.48
4f( 0.00) rc: 1.48
Ground state valence configuration:   2s02  2p02
Reading pseudopotential information in formatted form from C.psf

Valence configuration for pseudopotential generation:
2s( 2.00) rc: 1.54
2p( 2.00) rc: 1.54
3d( 0.00) rc: 1.54
4f( 0.00) rc: 1.54
For N, standard SIESTA heuristics set lmxkb to 3
 (one more than the basis l, including polarization orbitals).
Use PS.lmax or PS.KBprojectors blocks to override.
For C, standard SIESTA heuristics set lmxkb to 3
 (one more than the basis l, including polarization orbitals).
Use PS.lmax or PS.KBprojectors blocks to override.

<basis_specs>
===============================================================================
N                    Z=   7    Mass=  14.010        Charge= 0.17977+309
Lmxo=1 Lmxkb= 3    BasisType=split      Semic=F
L=0  Nsemic=0  Cnfigmx=2
          n=1  nzeta=2  polorb=0
            splnorm:   0.15000    
               vcte:    0.0000    
               rinn:    0.0000    
                rcs:    0.0000      0.0000    
            lambdas:    1.0000      1.0000    
L=1  Nsemic=0  Cnfigmx=2
          n=1  nzeta=2  polorb=1
            splnorm:   0.15000    
               vcte:    0.0000    
               rinn:    0.0000    
                rcs:    0.0000      0.0000    
            lambdas:    1.0000      1.0000    
-------------------------------------------------------------------------------
L=0  Nkbl=1  erefs: 0.17977+309
L=1  Nkbl=1  erefs: 0.17977+309
L=2  Nkbl=1  erefs: 0.17977+309
L=3  Nkbl=1  erefs: 0.17977+309
===============================================================================
</basis_specs>

atom: Called for N                     (Z =   7)

read_vps: Pseudopotential generation method:
read_vps: ATM3      Troullier-Martins                       
Total valence charge:    5.00000

read_vps: Pseudopotential includes a core correction:
read_vps: Pseudo-core for xc-correction

xc_check: Exchange-correlation functional:
xc_check: GGA Perdew, Burke & Ernzerhof 1996
V l=0 = -2*Zval/r beyond r=  1.4606
V l=1 = -2*Zval/r beyond r=  1.4606
V l=2 = -2*Zval/r beyond r=  1.4606
V l=3 = -2*Zval/r beyond r=  1.4606
All V_l potentials equal beyond r=  1.4606
This should be close to max(r_c) in ps generation
All pots = -2*Zval/r beyond r=  1.4606

VLOCAL1: 99.0% of the norm of Vloc inside     20.347 Ry
VLOCAL1: 99.9% of the norm of Vloc inside     46.372 Ry
atom: Maximum radius for 4*pi*r*r*local-pseudopot. charge    1.76189
atom: Maximum radius for r*vlocal+2*Zval:    1.53550
GHOST: No ghost state for L =  0
GHOST: No ghost state for L =  1
GHOST: No ghost state for L =  2
GHOST: No ghost state for L =  3

KBgen: Kleinman-Bylander projectors: 
   l= 0   rc=  1.634559   el= -1.363963   Ekb=  5.296955   kbcos=  0.335621
   l= 1   rc=  1.614250   el= -0.521451   Ekb= -5.259161   kbcos= -0.433408
   l= 2   rc=  1.718383   el=  0.001991   Ekb= -1.271464   kbcos= -0.007566
   l= 3   rc=  1.761893   el=  0.003093   Ekb= -0.494769   kbcos= -0.001015

KBgen: Total number of  Kleinman-Bylander projectors:   16
atom: -------------------------------------------------------------------------

atom: SANKEY-TYPE ORBITALS:
atom: Selected multiple-zeta basis: split     

SPLIT: Orbitals with angular momentum L= 0

SPLIT: Basis orbitals for state 2s

SPLIT: PAO cut-off radius determined from an
SPLIT: energy shift=  0.007350 Ry

   izeta = 1
                 lambda =    1.000000
                     rc =    4.071465
                 energy =   -1.356470
                kinetic =    1.176977
    potential(screened) =   -2.533447
       potential(ionic) =   -8.057990

   izeta = 2
                 rmatch =    2.905100
              splitnorm =    0.150000
                 energy =   -1.158343
                kinetic =    1.813009
    potential(screened) =   -2.971352
       potential(ionic) =   -8.901931

SPLIT: Orbitals with angular momentum L= 1

SPLIT: Basis orbitals for state 2p

SPLIT: PAO cut-off radius determined from an
SPLIT: energy shift=  0.007350 Ry

   izeta = 1
                 lambda =    1.000000
                     rc =    4.972977
                 energy =   -0.513884
                kinetic =    3.441732
    potential(screened) =   -3.955616
       potential(ionic) =   -9.287901

   izeta = 2
                 rmatch =    3.054066
              splitnorm =    0.150000
                 energy =   -0.318226
                kinetic =    5.125348
    potential(screened) =   -5.443573
       potential(ionic) =  -11.380999

POLgen: Perturbative polarization orbital with L=  2

POLgen: Polarization orbital for state 2p

   izeta = 1
                     rc =    4.972977
                 energy =    1.607437
                kinetic =    3.268125
    potential(screened) =   -1.660688
       potential(ionic) =   -5.973652
atom: Total number of Sankey-type orbitals: 13

atm_pop: Valence configuration (for local Pseudopot. screening):
 2s( 2.00)                                                            
 2p( 3.00)                                                            
Vna: chval, zval:    5.00000   5.00000

Vna:  Cut-off radius for the neutral-atom potential:   4.972977
comcore: Pseudo-core radius Rcore=  1.554824

atom: _________________________________________________________________________

<basis_specs>
===============================================================================
C                    Z=   6    Mass=  12.010        Charge= 0.17977+309
Lmxo=1 Lmxkb= 3    BasisType=split      Semic=F
L=0  Nsemic=0  Cnfigmx=2
          n=1  nzeta=2  polorb=0
            splnorm:   0.15000    
               vcte:    0.0000    
               rinn:    0.0000    
                rcs:    0.0000      0.0000    
            lambdas:    1.0000      1.0000    
L=1  Nsemic=0  Cnfigmx=2
          n=1  nzeta=2  polorb=1
            splnorm:   0.15000    
               vcte:    0.0000    
               rinn:    0.0000    
                rcs:    0.0000      0.0000    
            lambdas:    1.0000      1.0000    
-------------------------------------------------------------------------------
L=0  Nkbl=1  erefs: 0.17977+309
L=1  Nkbl=1  erefs: 0.17977+309
L=2  Nkbl=1  erefs: 0.17977+309
L=3  Nkbl=1  erefs: 0.17977+309
===============================================================================
</basis_specs>

atom: Called for C                     (Z =   6)

read_vps: Pseudopotential generation method:
read_vps: ATM3      Troullier-Martins                       
Total valence charge:    4.00000

read_vps: Pseudopotential includes a core correction:
read_vps: Pseudo-core for xc-correction

xc_check: Exchange-correlation functional:
xc_check: GGA Perdew, Burke & Ernzerhof 1996
V l=0 = -2*Zval/r beyond r=  1.5227
V l=1 = -2*Zval/r beyond r=  1.5227
V l=2 = -2*Zval/r beyond r=  1.5227
V l=3 = -2*Zval/r beyond r=  1.5038
All V_l potentials equal beyond r=  1.5227
This should be close to max(r_c) in ps generation
All pots = -2*Zval/r beyond r=  1.5227

VLOCAL1: 99.0% of the norm of Vloc inside     18.722 Ry
VLOCAL1: 99.9% of the norm of Vloc inside     42.668 Ry
atom: Maximum radius for 4*pi*r*r*local-pseudopot. charge    1.83678
atom: Maximum radius for r*vlocal+2*Zval:    1.58088
GHOST: No ghost state for L =  0
GHOST: No ghost state for L =  1
GHOST: No ghost state for L =  2
GHOST: No ghost state for L =  3

KBgen: Kleinman-Bylander projectors: 
   l= 0   rc=  1.704034   el= -1.009801   Ekb=  5.335044   kbcos=  0.316824
   l= 1   rc=  1.704034   el= -0.388707   Ekb= -3.785862   kbcos= -0.366464
   l= 2   rc=  1.791422   el=  0.001971   Ekb= -0.970471   kbcos= -0.009212
   l= 3   rc=  1.859892   el=  0.003065   Ekb= -0.399525   kbcos= -0.001223

KBgen: Total number of  Kleinman-Bylander projectors:   16
atom: -------------------------------------------------------------------------

atom: SANKEY-TYPE ORBITALS:
atom: Selected multiple-zeta basis: split     

SPLIT: Orbitals with angular momentum L= 0

SPLIT: Basis orbitals for state 2s

SPLIT: PAO cut-off radius determined from an
SPLIT: energy shift=  0.007350 Ry

   izeta = 1
                 lambda =    1.000000
                     rc =    4.632753
                 energy =   -1.002270
                kinetic =    0.855760
    potential(screened) =   -1.858031
       potential(ionic) =   -5.417575

   izeta = 2
                 rmatch =    3.431921
              splitnorm =    0.150000
                 energy =   -0.867111
                kinetic =    1.300804
    potential(screened) =   -2.167915
       potential(ionic) =   -5.962684

SPLIT: Orbitals with angular momentum L= 1

SPLIT: Basis orbitals for state 2p

SPLIT: PAO cut-off radius determined from an
SPLIT: energy shift=  0.007350 Ry

   izeta = 1
                 lambda =    1.000000
                     rc =    5.658549
                 energy =   -0.381140
                kinetic =    2.399701
    potential(screened) =   -2.780841
       potential(ionic) =   -6.206085

   izeta = 2
                 rmatch =    3.653288
              splitnorm =    0.150000
                 energy =   -0.249149
                kinetic =    3.542762
    potential(screened) =   -3.791911
       potential(ionic) =   -7.581078

POLgen: Perturbative polarization orbital with L=  2

POLgen: Polarization orbital for state 2p

   izeta = 1
                     rc =    5.658549
                 energy =    1.109913
                kinetic =    2.304789
    potential(screened) =   -1.194876
       potential(ionic) =   -4.013592
atom: Total number of Sankey-type orbitals: 13

atm_pop: Valence configuration (for local Pseudopot. screening):
 2s( 2.00)                                                            
 2p( 2.00)                                                            
Vna: chval, zval:    4.00000   4.00000

Vna:  Cut-off radius for the neutral-atom potential:   5.658549
comcore: Pseudo-core radius Rcore=  1.791422

atom: _________________________________________________________________________

prinput: Basis input ----------------------------------------------------------

PAO.BasisType split     

%block ChemicalSpeciesLabel
    1    7 N                       # Species index, atomic number, species label
    2    6 C                       # Species index, atomic number, species label
%endblock ChemicalSpeciesLabel

%block PAO.Basis                 # Define Basis set
N                     2                    # Species label, number of l-shells
 n=2   0   2                         # n, l, Nzeta 
   4.071      2.905   
   1.000      1.000   
 n=2   1   2 P   1                   # n, l, Nzeta, Polarization, NzetaPol
   4.973      3.054   
   1.000      1.000   
C                     2                    # Species label, number of l-shells
 n=2   0   2                         # n, l, Nzeta 
   4.633      3.432   
   1.000      1.000   
 n=2   1   2 P   1                   # n, l, Nzeta, Polarization, NzetaPol
   5.659      3.653   
   1.000      1.000   
%endblock PAO.Basis

prinput: ----------------------------------------------------------------------

coor:   Atomic-coordinates input format  =     Fractional

siesta: Atomic coordinates (Bohr) and species
siesta:     -4.68258  34.85847   0.00000  1        1
siesta:      2.30256  17.38257   0.00000  1        2
siesta:      4.63094  18.72698   0.00000  1        3
siesta:     -4.68258  13.34970   0.00000  1        4
siesta:     -0.02582  18.72698   0.00000  1        5
siesta:     -0.02582  21.41544   0.00000  1        6
siesta:     -7.01096  17.38257   0.00000  1        7
siesta:     -2.35420  25.44831   0.00000  1        8
siesta:     -9.33934  21.41544   0.00000  1        9
siesta:     -7.01096  25.44831   0.00000  1       10
siesta:      4.63094  29.48119   0.00000  1       11
siesta:     -4.68258  26.79272   0.00000  1       12
siesta:      2.30256  33.51406   0.00000  1       13
siesta:     -2.35420  33.51406   0.00000  1       14
siesta:     -0.02582  34.85847   0.00000  1       15
siesta:     -0.02582   2.59549   0.00000  2       16
siesta:     -0.02582   5.28395   0.00000  2       17
siesta:     -2.35420  38.89134   0.00000  2       18
siesta:     -2.35420  41.57980   0.00000  2       19
siesta:      2.30256  38.89134   0.00000  2       20
siesta:      2.30256  41.57980   0.00000  2       21
siesta:      4.63094  34.85847   0.00000  2       22
siesta:      4.63094  37.54693   0.00000  2       23
siesta:      6.95932  30.82560   0.00000  2       24
siesta:      6.95932  33.51406   0.00000  2       25
siesta:      9.28770  26.79272   0.00000  2       26
siesta:      9.28770  29.48119   0.00000  2       27
siesta:     -4.68258  37.54693   0.00000  2       28
siesta:      2.30256   6.62836   0.00000  2       29
siesta:      2.30256   9.31683   0.00000  2       30
siesta:      4.63094  10.66124   0.00000  2       31
siesta:      4.63094  13.34970   0.00000  2       32
siesta:      6.95932  14.69411   0.00000  2       33
siesta:      6.95932  17.38257   0.00000  2       34
siesta:      9.28770  18.72698   0.00000  2       35
siesta:      9.28770  21.41544   0.00000  2       36
siesta:     11.61608  22.75985   0.00000  2       37
siesta:     11.61608  25.44831   0.00000  2       38
siesta:     -2.35420   6.62836   0.00000  2       39
siesta:     -2.35420   9.31683   0.00000  2       40
siesta:     -0.02582  10.66124   0.00000  2       41
siesta:     -0.02582  13.34970   0.00000  2       42
siesta:      2.30256  14.69411   0.00000  2       43
siesta:      4.63094  21.41544   0.00000  2       44
siesta:      6.95932  22.75985   0.00000  2       45
siesta:      6.95932  25.44831   0.00000  2       46
siesta:     -4.68258  10.66124   0.00000  2       47
siesta:     -2.35420  14.69411   0.00000  2       48
siesta:     -2.35420  17.38257   0.00000  2       49
siesta:      2.30256  22.75985   0.00000  2       50
siesta:      2.30256  25.44831   0.00000  2       51
siesta:     -7.01096  14.69411   0.00000  2       52
siesta:     -4.68258  18.72698   0.00000  2       53
siesta:     -4.68258  21.41544   0.00000  2       54
siesta:     -2.35420  22.75985   0.00000  2       55
siesta:     -9.33934  18.72698   0.00000  2       56
siesta:     -7.01096  22.75985   0.00000  2       57
siesta:    -11.66772  22.75985   0.00000  2       58
siesta:    -11.66772  25.44831   0.00000  2       59
siesta:     -9.33934  26.79272   0.00000  2       60
siesta:     -9.33934  29.48119   0.00000  2       61
siesta:      4.63094  26.79272   0.00000  2       62
siesta:     -0.02582  26.79272   0.00000  2       63
siesta:     -0.02582  29.48119   0.00000  2       64
siesta:     -4.68258  29.48119   0.00000  2       65
siesta:      2.30256  30.82560   0.00000  2       66
siesta:     -2.35420  30.82560   0.00000  2       67
siesta:     -7.01096  30.82560   0.00000  2       68
siesta:     -7.01096  33.51406   0.00000  2       69
siesta:     -0.02582  37.54693   0.00000  2       70
siesta:     -0.02582  42.92421   0.00000  2       71
siesta:     -0.02582  45.61267   0.00000  2       72

siesta: System type = slab      

initatomlists: Number of atoms, orbitals, and projectors:     72   936  1152

siesta: ******************** Simulation parameters ****************************
siesta:
siesta: The following are some of the parameters of the simulation.
siesta: A complete list of the parameters used, including default values,
siesta: can be found in file out.fdf
siesta:
redata: Non-Collinear-spin run           =     F
redata: SpinPolarized (Up/Down) run      =     F
redata: Number of spin components        =     1
redata: Long output                      =     F
redata: Number of Atomic Species         =        2
redata: Charge density info will appear in .RHO file
redata: Write Mulliken Pop.              =     NO
redata: Mesh Cutoff                      =   200.0000  Ry
redata: Net charge of the system         =     0.0000 |e|
redata: Max. number of SCF Iter          =      500
redata: SCF convergence failure will abort job
redata: Performing Pulay mixing using    =    10 iterations
redata: Mix DM in first SCF step ?       =     F
redata: Write Pulay info on disk?        =     F
redata: Discard 1st Pulay DM after  kick =     F
redata: New DM Mixing Weight             =     0.0500
redata: New DM Occupancy tolerance       = 0.000000000001
redata: No kicks to SCF
redata: DM Mixing Weight for Kicks       =     0.5000
redata: DM Tolerance for SCF             =     0.000100
redata: Require Energy convergence for SCF =     F
redata: DM Energy tolerance for SCF      =     0.000100 eV
redata: Require Harris convergence for SCF =     F
redata: DM Harris energy tolerance for SCF =     0.000100 eV
redata: Using Saved Data (generic)   =     F
redata: Use continuation files for DM    =     T
redata: Neglect nonoverlap interactions  =     F
redata: Method of Calculation            =     Diagonalization
redata: Divide and Conquer               =     T
redata: Electronic Temperature           =     0.0019  Ry
redata: Fix the spin of the system       =     F
redata: Dynamics option                  =     Verlet MD run
redata: Initial MD time step             =        1
redata:   Final MD time step             =        1
redata: Length of MD time step           =     1.0000  fs
redata: Initial Temperature of MD run    =     0.0000  K
redata: Perform a MD quench              =     F
redata: ***********************************************************************
Total number of electrons:   303.000000
Total ionic charge:   303.000000

* ProcessorY, Blocksize:    3  24

k-point displ. along   1 input, could be:     0.50    0.00
k-point displ. along   2 input, could be:     0.50    0.00
 Kpoints in:          231 . Kpoints trimmed:          231

siesta: k-grid: Number of k-points =   231
siesta: k-grid: Cutoff (effective) =     5.000 Ang
siesta: k-grid: Supercell and displacements
siesta: k-grid:   21   0   0      0.500
siesta: k-grid:    0  21   0      0.500
siesta: k-grid:    0   0   1      0.000
Naive supercell factors:     2    2    2

superc: Internal auxiliary supercell:     2 x     2 x     2  =       8
superc: Number of atoms, orbitals, and projectors:    576   7488   9216

* Maximum dynamic memory allocated =     4 MB

siesta:                 ==============================
                            Begin MD step =      1
                        ==============================

superc: Internal auxiliary supercell:     2 x     2 x     2  =       8
superc: Number of atoms, orbitals, and projectors:    576   7488   9216

outcell: Unit cell vectors (Ang):
       12.804619    7.392750    0.000000
        0.000000   14.785500    0.000000
        0.000000    0.000000   10.000000

outcell: Cell vector modules (Ang)   :   14.785500   14.785500   10.000000
outcell: Cell angles (23,13,12) (deg):     90.0000     90.0000     60.0000
outcell: Cell volume (Ang**3)        :   1893.2269
New_DM. Step:     1
Initializing Density Matrix...

InitMesh: MESH =   120 x   120 x    90 =     1296000
InitMesh: Mesh cutoff (required, used) =   200.000   223.865 Ry

* Maximum dynamic memory allocated =   133 MB

stepf: Fermi-Dirac step function

siesta: Program's energy decomposition (eV):
siesta: Ebs     =     -6170.826528
siesta: Eions   =     20814.213734
siesta: Ena     =      4878.362944
siesta: Ekin    =      7637.016727
siesta: Enl     =       193.982516
siesta: DEna    =        -0.000015
siesta: DUscf   =         0.000000
siesta: DUext   =         0.000000
siesta: Exc     =     -4544.926404
siesta: eta*DQ  =         0.000000
siesta: Emadel  =         0.000000
siesta: Emeta   =         0.000000
siesta: Emolmec =         0.000000
siesta: Ekinion =         0.000000
siesta: Eharris =    -12294.470081
siesta: Etot    =    -12649.777965
siesta: FreeEng =    -12649.777965

siesta: iscf   Eharris(eV)      E_KS(eV)   FreeEng(eV)   dDmax  Ef(eV)
siesta:    1   -12294.4701   -12649.7780   -12649.7780  5.7468 -6.9587
timer: Routine,Calls,Time,% = IterSCF        1    3010.083  99.60
elaps: Routine,Calls,Wall,% = IterSCF        1     251.440  99.60
siesta:    2   -17120.1905   -11589.6056   -11589.6657 13.6568 -5.1573
siesta:    3   -12298.4116   -12402.6545   -12402.7007  1.5689 -4.2316
siesta:    4   -12203.9101   -12327.5180   -12327.5805  1.4215 -4.0180
siesta:    5   -12164.9285   -12266.7614   -12266.7999  0.8981 -4.0122
siesta:    6   -12153.3899   -12232.5693   -12232.5849  0.9044 -3.8260
siesta:    7   -12135.8297   -12194.7571   -12194.7816  0.5835 -3.8175
siesta:    8   -12134.5658   -12188.8112   -12188.8359  0.5593 -3.9392
siesta:    9   -12133.5198   -12185.4433   -12185.4901  0.5279 -4.0049
siesta:   10   -12133.4093   -12163.8926   -12163.9496  0.3653 -4.0170
siesta:   11   -12132.7870   -12155.8282   -12155.8856  0.2689 -3.9499
siesta:   12   -12132.5214   -12137.6802   -12137.7254  0.3275 -3.8730
siesta:   13   -12131.8868   -12133.5056   -12133.5562  0.3341 -3.8586
siesta:   14   -12131.9412   -12134.8538   -12134.9046  0.2296 -3.8073
siesta:   15   -12131.4867   -12136.6238   -12136.6530  0.1595 -3.9314
siesta:   16   -12131.3263   -12137.3858   -12137.4310  0.1191 -3.9415
siesta:   17   -12131.1885   -12136.7217   -12136.7750  0.0824 -3.9714
siesta:   18   -12131.1106   -12136.8248   -12136.8818  0.0793 -3.9557
siesta:   19   -12131.0441   -12133.7535   -12133.8071  0.0605 -3.9635
siesta:   20   -12131.0164   -12132.1519   -12132.2085  0.0584 -3.9589
siesta:   21   -12131.0003   -12130.9081   -12130.9612  0.0491 -3.9574
siesta:   22   -12130.9932   -12130.0850   -12130.1385  0.0432 -3.9607
siesta:   23   -12130.9870   -12130.2419   -12130.2960  0.0290 -3.9746
siesta:   24   -12130.9855   -12130.5536   -12130.6101  0.0146 -3.9668
siesta:   25   -12130.9846   -12130.7141   -12130.7690  0.0137 -3.9613
siesta:   26   -12130.9832   -12130.6084   -12130.6620  0.0093 -3.9635
siesta:   27   -12130.9825   -12130.5986   -12130.6528  0.0059 -3.9650
siesta:   28   -12130.9821   -12130.5742   -12130.6287  0.0027 -3.9650
siesta:   29   -12130.9819   -12130.6321   -12130.6864  0.0019 -3.9662
siesta:   30   -12130.9819   -12130.7389   -12130.7932  0.0015 -3.9667
siesta:   31   -12130.9818   -12130.7790   -12130.8333  0.0012 -3.9666
siesta:   32   -12130.9817   -12130.8288   -12130.8831  0.0009 -3.9670
siesta:   33   -12130.9817   -12130.9143   -12130.9686  0.0006 -3.9672
siesta:   34   -12130.9817   -12130.9321   -12130.9865  0.0004 -3.9672
siesta:   35   -12130.9817   -12130.9439   -12130.9982  0.0003 -3.9672
siesta:   36   -12130.9817   -12130.9562   -12131.0105  0.0002 -3.9672
siesta:   37   -12130.9818   -12130.9715   -12131.0259  0.0002 -3.9670
siesta:   38   -12130.9818   -12130.9753   -12131.0296  0.0001 -3.9669

siesta: E_KS(eV) =           -12130.9755

siesta: E_KS - E_eggbox =    -12130.9755

siesta: Atomic forces (eV/Ang):
----------------------------------------
   Tot   -0.115125    0.063514    0.000000
----------------------------------------
   Max  687.023956
   Res  172.874103    sqrt( Sum f_i^2 / 3N )
----------------------------------------
   Max  687.023956    constrained

Stress-tensor-Voigt (kbar):     -698.61    -3043.28       -0.07        4.30        0.00        0.00
(Free)E + p*V (eV/cell)   -10657.1420
Target enthalpy (eV/cell)   -12131.0299

siesta: Stress tensor (static) (eV/Ang**3):
        -0.436030    0.002684    0.000000
         0.002685   -1.899444    0.000000
         0.000000    0.000000   -0.000042

siesta: Pressure (static):       1247.31705502  kBar

siesta: Stress tensor (total) (eV/Ang**3):
        -0.436030    0.002684    0.000000
         0.002685   -1.899444    0.000000
         0.000000    0.000000   -0.000042

siesta: Pressure (total):       1247.31705502  kBar

siesta: Temp_ion =       0.000 K

* Maximum dynamic memory allocated =   146 MB
Computing bands...

siesta: Program's energy decomposition (eV):
siesta: Ebs     =     -4912.332163
siesta: Eions   =     20814.213734
siesta: Ena     =      4878.362944
siesta: Ekin    =     10701.152563
siesta: Enl     =     -1490.540332
siesta: DEna    =      -795.797053
siesta: DUscf   =       108.738991
siesta: DUext   =         0.000000
siesta: Exc     =     -4718.678915
siesta: eta*DQ  =         0.000000
siesta: Emadel  =         0.000000
siesta: Emeta   =         0.000000
siesta: Emolmec =         0.000000
siesta: Ekinion =         0.000000
siesta: Eharris =    -12130.981755
siesta: Etot    =    -12130.975537
siesta: FreeEng =    -12131.029871

siesta: Final energy (eV):
siesta:  Band Struct. =   -4912.332163
siesta:       Kinetic =   10701.152563
siesta:       Hartree =   34734.742647
siesta:    Ext. field =       0.000000
siesta:   Exch.-corr. =   -4718.678915
siesta:  Ion-electron =  -79720.009249
siesta:       Ion-ion =   26871.817418
siesta:       Ekinion =       0.000000
siesta:         Total =  -12130.975537

siesta: Atomic forces (eV/Ang):
siesta:      1  -33.316601   11.008116    0.000000
siesta:      2   36.929597  -15.375098    0.000000
siesta:      3    1.758218    4.577938    0.000000
siesta:      4  -28.208900   -7.290519    0.000000
siesta:      5  -18.777498  683.117559    0.000000
siesta:      6   -0.233037   -0.960754    0.000000
siesta:      7    1.276599   -0.259879    0.000000
siesta:      8    0.339258   -0.050655    0.000000
siesta:      9    0.667388   -2.698842    0.000000
siesta:     10   -0.341729   -3.196130    0.000000
siesta:     11   -1.304185   -3.426756    0.000000
siesta:     12    0.546019    0.369790    0.000000
siesta:     13   16.687230 -678.931150    0.000000
siesta:     14   -1.657795 -687.023956    0.000000
siesta:     15    0.423746  122.574033    0.000000
siesta:     16    2.199198  549.082580    0.000000
siesta:     17   -2.434682 -121.782283    0.000000
siesta:     18   -0.327317  123.742778    0.000000
siesta:     19  -25.379199 -546.622459    0.000000
siesta:     20   -3.389985  126.586540    0.000000
siesta:     21   19.453731 -552.961815    0.000000
siesta:     22   27.194581   11.381652    0.000000
siesta:     23   34.341592 -549.257889    0.000000
siesta:     24    1.605816    0.206839    0.000000
siesta:     25   -2.115509    0.467952    0.000000
siesta:     26    1.990318    2.318834    0.000000
siesta:     27   -1.784191    0.548028    0.000000
siesta:     28  -25.714313 -545.546331    0.000000
siesta:     29    5.907031  651.274834    0.000000
siesta:     30   -0.861792 -117.613946    0.000000
siesta:     31   34.797857  549.303172    0.000000
siesta:     32   25.534509   -6.544951    0.000000
siesta:     33   -2.884341   -1.007610    0.000000
siesta:     34    1.868169   -0.306441    0.000000
siesta:     35   -1.586779   -0.657501    0.000000
siesta:     36    2.039859   -1.982360    0.000000
siesta:     37   -0.308294    7.001972    0.000000
siesta:     38   -0.217350   -7.235914    0.000000
siesta:     39  -19.356531  653.261533    0.000000
siesta:     40    0.563944 -116.221963    0.000000
siesta:     41    1.833721  549.796527    0.000000
siesta:     42    2.192570 -127.759035    0.000000
siesta:     43   13.703667  561.605100    0.000000
siesta:     44   -1.232096   -1.358451    0.000000
siesta:     45   -0.103295    0.609421    0.000000
siesta:     46   -0.293805   -0.423420    0.000000
siesta:     47  -31.582901  547.781657    0.000000
siesta:     48  -14.434167  565.617323    0.000000
siesta:     49  -27.899130  -11.166587    0.000000
siesta:     50    1.664275   -1.304112    0.000000
siesta:     51   -0.679282    0.328345    0.000000
siesta:     52    0.465147    1.263102    0.000000
siesta:     53    0.796675    1.975120    0.000000
siesta:     54    0.213483    0.248928    0.000000
siesta:     55   -1.752450   -0.104948    0.000000
siesta:     56   -1.003810    0.418597    0.000000
siesta:     57    0.014666    2.427819    0.000000
siesta:     58    0.621835    5.403502    0.000000
siesta:     59    0.411900   -6.886242    0.000000
siesta:     60   -0.977202    3.371418    0.000000
siesta:     61    0.364047   -1.063659    0.000000
siesta:     62   -0.038310    0.974485    0.000000
siesta:     63   -1.091154   -0.174681    0.000000
siesta:     64   -2.393240 -569.703693    0.000000
siesta:     65    1.745947   -2.899254    0.000000
siesta:     66   23.678434    5.308985    0.000000
siesta:     67  -23.365744    4.512634    0.000000
siesta:     68   -0.810809    1.238891    0.000000
siesta:     69    1.790864    0.204275    0.000000
siesta:     70    1.745215 -536.523131    0.000000
siesta:     71   -1.006780  119.914856    0.000000
siesta:     72   11.381969 -643.439204    0.000000
siesta: ----------------------------------------
siesta:    Tot   -0.115125    0.063514    0.000000

siesta: Stress tensor (static) (eV/Ang**3):
siesta:    -0.436030    0.002684    0.000000
siesta:     0.002685   -1.899444    0.000000
siesta:     0.000000    0.000000   -0.000042

siesta: Cell volume =       1893.226884 Ang**3

siesta: Pressure (static):
siesta:                Solid            Molecule  Units
siesta:           0.00847892          0.13568519  Ry/Bohr**3
siesta:           0.77850566         12.45815289  eV/Ang**3
siesta:        1247.31705502      19960.37721749  kBar
(Free)E+ p_basis*V_orbitals  =      -12102.436707
(Free)Eharris+ p_basis*V_orbitals  =      -12102.443201

siesta: Electric dipole (a.u.)  =    0.000000    0.000000    0.000000
siesta: Electric dipole (Debye) =    0.000000    0.000000    0.000000

* Maximum dynamic memory allocated : Node    0 =   146 MB
* Maximum dynamic memory allocated : Node    1 =    58 MB
* Maximum dynamic memory allocated : Node    2 =    60 MB
* Maximum dynamic memory allocated : Node    3 =   134 MB
* Maximum dynamic memory allocated : Node    4 =   145 MB
* Maximum dynamic memory allocated : Node    5 =    53 MB
* Maximum dynamic memory allocated : Node    6 =    54 MB
* Maximum dynamic memory allocated : Node    7 =   136 MB
* Maximum dynamic memory allocated : Node    8 =   128 MB
* Maximum dynamic memory allocated : Node    9 =    53 MB
* Maximum dynamic memory allocated : Node   10 =    54 MB
* Maximum dynamic memory allocated : Node   11 =   123 MB

* Maximum memory occured during matrixMtoO                    

timer: CPU execution times:
timer:  Routine       Calls   Time/call    Tot.time        %
timer:  siesta            1  111472.588  111472.588   100.00
timer:  Setup             1       3.362       3.362     0.00
timer:  bands             3     225.935     677.804     0.61
timer:  writewave         1       0.024       0.024     0.00
timer:  KSV_init          1       0.005       0.005     0.00
timer:  IterMD            1  110784.340  110784.340    99.38
timer:  hsparse           1       0.165       0.165     0.00
timer:  overlap           1       7.154       7.154     0.01
timer:  IterSCF          38    2912.128  110660.876    99.27
timer:  kinefsm           2       3.622       7.243     0.01
timer:  nlefsm            2      18.397      36.795     0.03
timer:  DHSCF            39      60.809    2371.561     2.13
timer:  DHSCF1            1       0.901       0.901     0.00
timer:  DHSCF2            1      24.512      24.512     0.02
timer:  REORD           314       0.002       0.774     0.00
timer:  POISON           40       0.447      17.892     0.02
timer:  DHSCF3           39      59.615    2324.992     2.09
timer:  rhoofd           39      12.391     483.263     0.43
timer:  cellXC           39       2.402      93.661     0.08
timer:  vmat             39      28.120    1096.669     0.98
timer:  MolMec            2       0.000       0.000     0.00
timer:  diagon           38    2850.120  108304.572    97.16
timer:  c-eigval       8899       5.577   49628.957    44.52
timer:  c-buildHS      8899       0.033     292.579     0.26
timer:  cdiag         17677       5.674  100303.391    89.98
timer:  cdiag1        17677       0.258    4565.744     4.10
timer:  cdiag2        17677       1.832   32386.478    29.05
timer:  cdiag3        17677       3.379   59725.758    53.58
timer:  cdiag4        17677       0.088    1557.538     1.40
timer:  c-eigvec       8778       5.833   51205.504    45.94
timer:  c-buildD       8778       0.923    8099.805     7.27
timer:  DHSCF4            1      20.892      20.892     0.02
timer:  dfscf             1      19.470      19.470     0.02
timer:  overfsm           1       0.281       0.281     0.00
timer:  optical           1       6.461       6.461     0.01
  

elaps: ELAPSED times:
elaps:  Routine       Calls   Time/call    Tot.time        %
elaps:  siesta            1    9311.187    9311.187   100.00
elaps:  Setup             1       0.281       0.281     0.00
elaps:  bands             3      18.888      56.664     0.61
elaps:  writewave         1       0.002       0.002     0.00
elaps:  KSV_init          1       0.000       0.000     0.00
elaps:  IterMD            1    9253.699    9253.699    99.38
elaps:  hsparse           1       0.016       0.016     0.00
elaps:  overlap           1       0.709       0.709     0.01
elaps:  IterSCF          38     243.247    9243.386    99.27
elaps:  kinefsm           2       0.362       0.724     0.01
elaps:  nlefsm            2       1.561       3.121     0.03
elaps:  DHSCF            39       5.124     199.833     2.15
elaps:  DHSCF1            1       0.077       0.077     0.00
elaps:  DHSCF2            1       2.046       2.046     0.02
elaps:  REORD           314       0.000       0.093     0.00
elaps:  POISON           40       0.038       1.506     0.02
elaps:  DHSCF3           39       4.981     194.240     2.09
elaps:  rhoofd           39       2.187      85.297     0.92
elaps:  cellXC           39       0.200       7.807     0.08
elaps:  vmat             39       2.350      91.634     0.98
elaps:  MolMec            2       0.000       0.000     0.00
elaps:  diagon           38     238.072    9046.743    97.16
elaps:  c-eigval       8899       0.466    4145.403    44.52
elaps:  c-buildHS      8899       0.003      30.192     0.32
elaps:  cdiag         17677       0.470    8313.166    89.28
elaps:  cdiag1        17677       0.021     376.207     4.04
elaps:  cdiag2        17677       0.153    2707.585    29.08
elaps:  cdiag3        17677       0.283    4995.812    53.65
elaps:  cdiag4        17677       0.007     124.383     1.34
elaps:  c-eigvec       8778       0.481    4223.440    45.36
elaps:  c-buildD       8778       0.083     729.777     7.84
elaps:  DHSCF4            1       3.434       3.434     0.04
elaps:  dfscf             1       3.246       3.246     0.03
elaps:  overfsm           1       0.028       0.028     0.00
elaps:  optical           1       0.000       0.000     0.00
  
>> End of run:   4-MAY-2016  23:43:47
