Siesta Version:                                        siesta-3.2-pl-3
Architecture  : x86_64-unknown-linux-gnu--unknown
Compiler flags: mpiifort -g -O2 -fPIC -xSSE4.1 -fp-model source -shared-intel 
PARALLEL version

* Running on   12 nodes in parallel
>> Start of run:  29-APR-2016   4:50:26

                           ***********************       
                           *  WELCOME TO SIESTA  *       
                           ***********************       

reinit: Reading from standard input
************************** Dump of input data file ****************************
#(1) General system descriptors
SystemName            GRP_doping    # Descriptive name of the system
SystemLabel           GRP_doping    # Short name for naming files
%include STRUCT.fdf
%include KPT.fdf
%include BASIS.fdf
#%include TS.fdf # for transiesta calculation
#(4) DFT, Grid, SCF
XC.functional         GGA           # LDA or GGA (default = LDA)
XC.authors            PBE           # CA (Ceperley-Aldr) = PZ
                                    #    (Perdew-Zunger) - LDA - Default
                                    # PW92 (Perdew-Wang-92) - LDA
                                    # PBE (Perdew-Burke-Ernzerhof) - GGA
MeshCutoff            200.000000    Ry      # Default: 50.0 Ry ~ 0.444 Bohr
                                    #         100.0 Ry ~ 0.314 Bohr
MaxSCFIterations      500           # Default: 50
DM.MixingWeight       0.05          # Default: 0.25
DM.NumberPulay        10            # Default: 0
DM.PulayOnFile        F             # SystemLabel.P1, SystemLabel.P2
DM.Tolerance          1.d-4         # Default: 1.d-4
DM.UseSaveDM          .true.        # because of the bug
SCFMustConverge       .true.
NeglNonOverlapInt     F             # Default: F
#(5) Eigenvalue problem: order-N or diagonalization
SolutionMethod        Diagon        # or Transiesta
ElectronicTemperature 300.0 K       # Default: 300.0 K
#(6) Molecular dynamics and relaxations
#MD.TypeOfRun          CG            # Type of dynamics:
#MD.VariableCell       F
#MD.NumCGsteps         0           # 0 for single-point / 100 for gopt
#MD.MaxCGDispl         0.2 Bohr      # Default: 0.2 Bohr
#MD.MaxForceTol        0.02 eV/Ang   # Default: 0.04 eV/Ang
#MD.MaxStressTol       1.0 GPa       # Default: 1.0 GPa
# Geometry Constraints
#%block GeometryConstraints
#	position from 1 to 44
#%endblock GeometryConstraints
BandLinesScale   pi/a
%block BandLines
 1   0.00000000  0.00000000  0.00000000
50   0.00000000  0.07809418  0.00000000
50   0.04509075  0.07809242  0.00000000
20   0.00000000  0.00000000  0.00000000
%endblock BandLines
************************** End of input data file *****************************

reinit: -----------------------------------------------------------------------
reinit: System Name: GRP_doping
reinit: -----------------------------------------------------------------------
reinit: System Label: GRP_doping                                                  
reinit: -----------------------------------------------------------------------

initatom: Reading input for the pseudopotentials and atomic orbitals ----------
 Species number:            1  Label: N Atomic number:           7
 Species number:            2  Label: C Atomic number:           6
Ground state valence configuration:   2s02  2p03
Reading pseudopotential information in formatted form from N.psf

Valence configuration for pseudopotential generation:
2s( 2.00) rc: 1.48
2p( 3.00) rc: 1.48
3d( 0.00) rc: 1.48
4f( 0.00) rc: 1.48
Ground state valence configuration:   2s02  2p02
Reading pseudopotential information in formatted form from C.psf

Valence configuration for pseudopotential generation:
2s( 2.00) rc: 1.54
2p( 2.00) rc: 1.54
3d( 0.00) rc: 1.54
4f( 0.00) rc: 1.54
For N, standard SIESTA heuristics set lmxkb to 3
 (one more than the basis l, including polarization orbitals).
Use PS.lmax or PS.KBprojectors blocks to override.
For C, standard SIESTA heuristics set lmxkb to 3
 (one more than the basis l, including polarization orbitals).
Use PS.lmax or PS.KBprojectors blocks to override.

<basis_specs>
===============================================================================
N                    Z=   7    Mass=  14.010        Charge= 0.17977+309
Lmxo=1 Lmxkb= 3    BasisType=split      Semic=F
L=0  Nsemic=0  Cnfigmx=2
          n=1  nzeta=2  polorb=0
            splnorm:   0.15000    
               vcte:    0.0000    
               rinn:    0.0000    
                rcs:    0.0000      0.0000    
            lambdas:    1.0000      1.0000    
L=1  Nsemic=0  Cnfigmx=2
          n=1  nzeta=2  polorb=1
            splnorm:   0.15000    
               vcte:    0.0000    
               rinn:    0.0000    
                rcs:    0.0000      0.0000    
            lambdas:    1.0000      1.0000    
-------------------------------------------------------------------------------
L=0  Nkbl=1  erefs: 0.17977+309
L=1  Nkbl=1  erefs: 0.17977+309
L=2  Nkbl=1  erefs: 0.17977+309
L=3  Nkbl=1  erefs: 0.17977+309
===============================================================================
</basis_specs>

atom: Called for N                     (Z =   7)

read_vps: Pseudopotential generation method:
read_vps: ATM3      Troullier-Martins                       
Total valence charge:    5.00000

read_vps: Pseudopotential includes a core correction:
read_vps: Pseudo-core for xc-correction

xc_check: Exchange-correlation functional:
xc_check: GGA Perdew, Burke & Ernzerhof 1996
V l=0 = -2*Zval/r beyond r=  1.4606
V l=1 = -2*Zval/r beyond r=  1.4606
V l=2 = -2*Zval/r beyond r=  1.4606
V l=3 = -2*Zval/r beyond r=  1.4606
All V_l potentials equal beyond r=  1.4606
This should be close to max(r_c) in ps generation
All pots = -2*Zval/r beyond r=  1.4606

VLOCAL1: 99.0% of the norm of Vloc inside     20.347 Ry
VLOCAL1: 99.9% of the norm of Vloc inside     46.372 Ry
atom: Maximum radius for 4*pi*r*r*local-pseudopot. charge    1.76189
atom: Maximum radius for r*vlocal+2*Zval:    1.53550
GHOST: No ghost state for L =  0
GHOST: No ghost state for L =  1
GHOST: No ghost state for L =  2
GHOST: No ghost state for L =  3

KBgen: Kleinman-Bylander projectors: 
   l= 0   rc=  1.634559   el= -1.363963   Ekb=  5.296955   kbcos=  0.335621
   l= 1   rc=  1.614250   el= -0.521451   Ekb= -5.259161   kbcos= -0.433408
   l= 2   rc=  1.718383   el=  0.001991   Ekb= -1.271464   kbcos= -0.007566
   l= 3   rc=  1.761893   el=  0.003093   Ekb= -0.494769   kbcos= -0.001015

KBgen: Total number of  Kleinman-Bylander projectors:   16
atom: -------------------------------------------------------------------------

atom: SANKEY-TYPE ORBITALS:
atom: Selected multiple-zeta basis: split     

SPLIT: Orbitals with angular momentum L= 0

SPLIT: Basis orbitals for state 2s

SPLIT: PAO cut-off radius determined from an
SPLIT: energy shift=  0.007350 Ry

   izeta = 1
                 lambda =    1.000000
                     rc =    4.071465
                 energy =   -1.356470
                kinetic =    1.176977
    potential(screened) =   -2.533447
       potential(ionic) =   -8.057990

   izeta = 2
                 rmatch =    2.905100
              splitnorm =    0.150000
                 energy =   -1.158343
                kinetic =    1.813009
    potential(screened) =   -2.971352
       potential(ionic) =   -8.901931

SPLIT: Orbitals with angular momentum L= 1

SPLIT: Basis orbitals for state 2p

SPLIT: PAO cut-off radius determined from an
SPLIT: energy shift=  0.007350 Ry

   izeta = 1
                 lambda =    1.000000
                     rc =    4.972977
                 energy =   -0.513884
                kinetic =    3.441732
    potential(screened) =   -3.955616
       potential(ionic) =   -9.287901

   izeta = 2
                 rmatch =    3.054066
              splitnorm =    0.150000
                 energy =   -0.318226
                kinetic =    5.125348
    potential(screened) =   -5.443573
       potential(ionic) =  -11.380999

POLgen: Perturbative polarization orbital with L=  2

POLgen: Polarization orbital for state 2p

   izeta = 1
                     rc =    4.972977
                 energy =    1.607437
                kinetic =    3.268125
    potential(screened) =   -1.660688
       potential(ionic) =   -5.973652
atom: Total number of Sankey-type orbitals: 13

atm_pop: Valence configuration (for local Pseudopot. screening):
 2s( 2.00)                                                            
 2p( 3.00)                                                            
Vna: chval, zval:    5.00000   5.00000

Vna:  Cut-off radius for the neutral-atom potential:   4.972977
comcore: Pseudo-core radius Rcore=  1.554824

atom: _________________________________________________________________________

<basis_specs>
===============================================================================
C                    Z=   6    Mass=  12.010        Charge= 0.17977+309
Lmxo=1 Lmxkb= 3    BasisType=split      Semic=F
L=0  Nsemic=0  Cnfigmx=2
          n=1  nzeta=2  polorb=0
            splnorm:   0.15000    
               vcte:    0.0000    
               rinn:    0.0000    
                rcs:    0.0000      0.0000    
            lambdas:    1.0000      1.0000    
L=1  Nsemic=0  Cnfigmx=2
          n=1  nzeta=2  polorb=1
            splnorm:   0.15000    
               vcte:    0.0000    
               rinn:    0.0000    
                rcs:    0.0000      0.0000    
            lambdas:    1.0000      1.0000    
-------------------------------------------------------------------------------
L=0  Nkbl=1  erefs: 0.17977+309
L=1  Nkbl=1  erefs: 0.17977+309
L=2  Nkbl=1  erefs: 0.17977+309
L=3  Nkbl=1  erefs: 0.17977+309
===============================================================================
</basis_specs>

atom: Called for C                     (Z =   6)

read_vps: Pseudopotential generation method:
read_vps: ATM3      Troullier-Martins                       
Total valence charge:    4.00000

read_vps: Pseudopotential includes a core correction:
read_vps: Pseudo-core for xc-correction

xc_check: Exchange-correlation functional:
xc_check: GGA Perdew, Burke & Ernzerhof 1996
V l=0 = -2*Zval/r beyond r=  1.5227
V l=1 = -2*Zval/r beyond r=  1.5227
V l=2 = -2*Zval/r beyond r=  1.5227
V l=3 = -2*Zval/r beyond r=  1.5038
All V_l potentials equal beyond r=  1.5227
This should be close to max(r_c) in ps generation
All pots = -2*Zval/r beyond r=  1.5227

VLOCAL1: 99.0% of the norm of Vloc inside     18.722 Ry
VLOCAL1: 99.9% of the norm of Vloc inside     42.668 Ry
atom: Maximum radius for 4*pi*r*r*local-pseudopot. charge    1.83678
atom: Maximum radius for r*vlocal+2*Zval:    1.58088
GHOST: No ghost state for L =  0
GHOST: No ghost state for L =  1
GHOST: No ghost state for L =  2
GHOST: No ghost state for L =  3

KBgen: Kleinman-Bylander projectors: 
   l= 0   rc=  1.704034   el= -1.009801   Ekb=  5.335044   kbcos=  0.316824
   l= 1   rc=  1.704034   el= -0.388707   Ekb= -3.785862   kbcos= -0.366464
   l= 2   rc=  1.791422   el=  0.001971   Ekb= -0.970471   kbcos= -0.009212
   l= 3   rc=  1.859892   el=  0.003065   Ekb= -0.399525   kbcos= -0.001223

KBgen: Total number of  Kleinman-Bylander projectors:   16
atom: -------------------------------------------------------------------------

atom: SANKEY-TYPE ORBITALS:
atom: Selected multiple-zeta basis: split     

SPLIT: Orbitals with angular momentum L= 0

SPLIT: Basis orbitals for state 2s

SPLIT: PAO cut-off radius determined from an
SPLIT: energy shift=  0.007350 Ry

   izeta = 1
                 lambda =    1.000000
                     rc =    4.632753
                 energy =   -1.002270
                kinetic =    0.855760
    potential(screened) =   -1.858031
       potential(ionic) =   -5.417575

   izeta = 2
                 rmatch =    3.431921
              splitnorm =    0.150000
                 energy =   -0.867111
                kinetic =    1.300804
    potential(screened) =   -2.167915
       potential(ionic) =   -5.962684

SPLIT: Orbitals with angular momentum L= 1

SPLIT: Basis orbitals for state 2p

SPLIT: PAO cut-off radius determined from an
SPLIT: energy shift=  0.007350 Ry

   izeta = 1
                 lambda =    1.000000
                     rc =    5.658549
                 energy =   -0.381140
                kinetic =    2.399701
    potential(screened) =   -2.780841
       potential(ionic) =   -6.206085

   izeta = 2
                 rmatch =    3.653288
              splitnorm =    0.150000
                 energy =   -0.249149
                kinetic =    3.542762
    potential(screened) =   -3.791911
       potential(ionic) =   -7.581078

POLgen: Perturbative polarization orbital with L=  2

POLgen: Polarization orbital for state 2p

   izeta = 1
                     rc =    5.658549
                 energy =    1.109913
                kinetic =    2.304789
    potential(screened) =   -1.194876
       potential(ionic) =   -4.013592
atom: Total number of Sankey-type orbitals: 13

atm_pop: Valence configuration (for local Pseudopot. screening):
 2s( 2.00)                                                            
 2p( 2.00)                                                            
Vna: chval, zval:    4.00000   4.00000

Vna:  Cut-off radius for the neutral-atom potential:   5.658549
comcore: Pseudo-core radius Rcore=  1.791422

atom: _________________________________________________________________________

prinput: Basis input ----------------------------------------------------------

PAO.BasisType split     

%block ChemicalSpeciesLabel
    1    7 N                       # Species index, atomic number, species label
    2    6 C                       # Species index, atomic number, species label
%endblock ChemicalSpeciesLabel

%block PAO.Basis                 # Define Basis set
N                     2                    # Species label, number of l-shells
 n=2   0   2                         # n, l, Nzeta 
   4.071      2.905   
   1.000      1.000   
 n=2   1   2 P   1                   # n, l, Nzeta, Polarization, NzetaPol
   4.973      3.054   
   1.000      1.000   
C                     2                    # Species label, number of l-shells
 n=2   0   2                         # n, l, Nzeta 
   4.633      3.432   
   1.000      1.000   
 n=2   1   2 P   1                   # n, l, Nzeta, Polarization, NzetaPol
   5.659      3.653   
   1.000      1.000   
%endblock PAO.Basis

prinput: ----------------------------------------------------------------------

coor:   Atomic-coordinates input format  =     Fractional

siesta: Atomic coordinates (Bohr) and species
siesta:      9.28770  21.41544   0.00000  1        1
siesta:     -0.02582  13.34970   0.00000  1        2
siesta:      2.30256  14.69411   0.00000  1        3
siesta:      4.63094  21.41544   0.00000  1        4
siesta:      6.95932  22.75985   0.00000  1        5
siesta:      6.95932  25.44831   0.00000  1        6
siesta:     -2.35420  14.69411   0.00000  1        7
siesta:     -0.02582  21.41544   0.00000  1        8
siesta:      2.30256  22.75985   0.00000  1        9
siesta:      2.30256  25.44831   0.00000  1       10
siesta:     -4.68258  21.41544   0.00000  1       11
siesta:     -2.35420  22.75985   0.00000  1       12
siesta:     -2.35420  25.44831   0.00000  1       13
siesta:     -7.01096  22.75985   0.00000  1       14
siesta:     -7.01096  25.44831   0.00000  1       15
siesta:      4.63094  26.79272   0.00000  1       16
siesta:     -0.02582  26.79272   0.00000  1       17
siesta:     -4.68258  26.79272   0.00000  1       18
siesta:     -4.68258  29.48119   0.00000  1       19
siesta:     -7.01096  30.82560   0.00000  1       20
siesta:     -7.01096  33.51406   0.00000  1       21
siesta:     -0.02582   2.59549   0.00000  2       22
siesta:     -0.02582   5.28395   0.00000  2       23
siesta:     -2.35420  38.89134   0.00000  2       24
siesta:     -2.35420  41.57980   0.00000  2       25
siesta:      2.30256  38.89134   0.00000  2       26
siesta:      2.30256  41.57980   0.00000  2       27
siesta:      4.63094  34.85847   0.00000  2       28
siesta:      4.63094  37.54693   0.00000  2       29
siesta:      6.95932  30.82560   0.00000  2       30
siesta:      6.95932  33.51406   0.00000  2       31
siesta:      9.28770  26.79272   0.00000  2       32
siesta:      9.28770  29.48119   0.00000  2       33
siesta:     -4.68258  34.85847   0.00000  2       34
siesta:     -4.68258  37.54693   0.00000  2       35
siesta:      2.30256   6.62836   0.00000  2       36
siesta:      2.30256   9.31683   0.00000  2       37
siesta:      4.63094  10.66124   0.00000  2       38
siesta:      4.63094  13.34970   0.00000  2       39
siesta:      6.95932  14.69411   0.00000  2       40
siesta:      6.95932  17.38257   0.00000  2       41
siesta:      9.28770  18.72698   0.00000  2       42
siesta:     11.61608  22.75985   0.00000  2       43
siesta:     11.61608  25.44831   0.00000  2       44
siesta:     -2.35420   6.62836   0.00000  2       45
siesta:     -2.35420   9.31683   0.00000  2       46
siesta:     -0.02582  10.66124   0.00000  2       47
siesta:      2.30256  17.38257   0.00000  2       48
siesta:      4.63094  18.72698   0.00000  2       49
siesta:     -4.68258  10.66124   0.00000  2       50
siesta:     -4.68258  13.34970   0.00000  2       51
siesta:     -2.35420  17.38257   0.00000  2       52
siesta:     -0.02582  18.72698   0.00000  2       53
siesta:     -7.01096  14.69411   0.00000  2       54
siesta:     -7.01096  17.38257   0.00000  2       55
siesta:     -4.68258  18.72698   0.00000  2       56
siesta:     -9.33934  18.72698   0.00000  2       57
siesta:     -9.33934  21.41544   0.00000  2       58
siesta:    -11.66772  22.75985   0.00000  2       59
siesta:    -11.66772  25.44831   0.00000  2       60
siesta:     -9.33934  26.79272   0.00000  2       61
siesta:     -9.33934  29.48119   0.00000  2       62
siesta:      4.63094  29.48119   0.00000  2       63
siesta:     -0.02582  29.48119   0.00000  2       64
siesta:      2.30256  30.82560   0.00000  2       65
siesta:      2.30256  33.51406   0.00000  2       66
siesta:     -2.35420  30.82560   0.00000  2       67
siesta:     -2.35420  33.51406   0.00000  2       68
siesta:     -0.02582  34.85847   0.00000  2       69
siesta:     -0.02582  37.54693   0.00000  2       70
siesta:     -0.02582  42.92421   0.00000  2       71
siesta:     -0.02582  45.61267   0.00000  2       72

siesta: System type = slab      

initatomlists: Number of atoms, orbitals, and projectors:     72   936  1152

siesta: ******************** Simulation parameters ****************************
siesta:
siesta: The following are some of the parameters of the simulation.
siesta: A complete list of the parameters used, including default values,
siesta: can be found in file out.fdf
siesta:
redata: Non-Collinear-spin run           =     F
redata: SpinPolarized (Up/Down) run      =     F
redata: Number of spin components        =     1
redata: Long output                      =     F
redata: Number of Atomic Species         =        2
redata: Charge density info will appear in .RHO file
redata: Write Mulliken Pop.              =     NO
redata: Mesh Cutoff                      =   200.0000  Ry
redata: Net charge of the system         =     0.0000 |e|
redata: Max. number of SCF Iter          =      500
redata: SCF convergence failure will abort job
redata: Performing Pulay mixing using    =    10 iterations
redata: Mix DM in first SCF step ?       =     F
redata: Write Pulay info on disk?        =     F
redata: Discard 1st Pulay DM after  kick =     F
redata: New DM Mixing Weight             =     0.0500
redata: New DM Occupancy tolerance       = 0.000000000001
redata: No kicks to SCF
redata: DM Mixing Weight for Kicks       =     0.5000
redata: DM Tolerance for SCF             =     0.000100
redata: Require Energy convergence for SCF =     F
redata: DM Energy tolerance for SCF      =     0.000100 eV
redata: Require Harris convergence for SCF =     F
redata: DM Harris energy tolerance for SCF =     0.000100 eV
redata: Using Saved Data (generic)   =     F
redata: Use continuation files for DM    =     T
redata: Neglect nonoverlap interactions  =     F
redata: Method of Calculation            =     Diagonalization
redata: Divide and Conquer               =     T
redata: Electronic Temperature           =     0.0019  Ry
redata: Fix the spin of the system       =     F
redata: Dynamics option                  =     Verlet MD run
redata: Initial MD time step             =        1
redata:   Final MD time step             =        1
redata: Length of MD time step           =     1.0000  fs
redata: Initial Temperature of MD run    =     0.0000  K
redata: Perform a MD quench              =     F
redata: ***********************************************************************
Total number of electrons:   309.000000
Total ionic charge:   309.000000

* ProcessorY, Blocksize:    3  24

k-point displ. along   1 input, could be:     0.50    0.00
k-point displ. along   2 input, could be:     0.50    0.00
 Kpoints in:          231 . Kpoints trimmed:          231

siesta: k-grid: Number of k-points =   231
siesta: k-grid: Cutoff (effective) =     5.000 Ang
siesta: k-grid: Supercell and displacements
siesta: k-grid:   21   0   0      0.500
siesta: k-grid:    0  21   0      0.500
siesta: k-grid:    0   0   1      0.000
Naive supercell factors:     2    2    2

superc: Internal auxiliary supercell:     2 x     2 x     2  =       8
superc: Number of atoms, orbitals, and projectors:    576   7488   9216

* Maximum dynamic memory allocated =     4 MB

siesta:                 ==============================
                            Begin MD step =      1
                        ==============================

superc: Internal auxiliary supercell:     2 x     2 x     2  =       8
superc: Number of atoms, orbitals, and projectors:    576   7488   9216

outcell: Unit cell vectors (Ang):
       12.804619    7.392750    0.000000
        0.000000   14.785500    0.000000
        0.000000    0.000000   10.000000

outcell: Cell vector modules (Ang)   :   14.785500   14.785500   10.000000
outcell: Cell angles (23,13,12) (deg):     90.0000     90.0000     60.0000
outcell: Cell volume (Ang**3)        :   1893.2269
New_DM. Step:     1
Initializing Density Matrix...

InitMesh: MESH =   120 x   120 x    90 =     1296000
InitMesh: Mesh cutoff (required, used) =   200.000   223.865 Ry

* Maximum dynamic memory allocated =   132 MB

stepf: Fermi-Dirac step function

siesta: Program's energy decomposition (eV):
siesta: Ebs     =     -6225.426002
siesta: Eions   =     21778.694799
siesta: Ena     =      4931.218908
siesta: Ekin    =      8140.553599
siesta: Enl     =        36.776375
siesta: DEna    =        -0.000015
siesta: DUscf   =         0.000000
siesta: DUext   =         0.000000
siesta: Exc     =     -4689.213345
siesta: eta*DQ  =         0.000000
siesta: Emadel  =         0.000000
siesta: Emeta   =         0.000000
siesta: Emolmec =         0.000000
siesta: Ekinion =         0.000000
siesta: Eharris =    -13005.069936
siesta: Etot    =    -13359.359276
siesta: FreeEng =    -13359.359276

siesta: iscf   Eharris(eV)      E_KS(eV)   FreeEng(eV)   dDmax  Ef(eV)
siesta:    1   -13005.0699   -13359.3593   -13359.3593  6.5550 -6.5073
timer: Routine,Calls,Time,% = IterSCF        1    3012.273  99.59
elaps: Routine,Calls,Wall,% = IterSCF        1     251.621  99.59
siesta:    2   -20493.8715   -12039.3650   -12039.3939 14.6113 -9.1750
siesta:    3   -12951.2943   -13181.3078   -13181.3647  3.1937 -5.2892
siesta:    4   -12895.3270   -13036.5190   -13036.5970  1.3697 -4.4824
siesta:    5   -12843.8102   -12952.6540   -12952.7425  0.8396 -4.0548
siesta:    6   -12832.1628   -12888.7168   -12888.7812  0.8169 -3.7438
siesta:    7   -12829.1784   -12872.2108   -12872.2770  0.7043 -3.7338
siesta:    8   -12823.3433   -12856.8180   -12856.8703  0.5583 -3.7577
siesta:    9   -12822.9094   -12837.4273   -12837.4708  0.4910 -3.7566
siesta:   10   -12822.1548   -12825.4453   -12825.4956  0.4064 -3.7389
siesta:   11   -12821.8127   -12813.1152   -12813.1807  0.3267 -3.7220
siesta:   12   -12821.7588   -12805.0222   -12805.0713  0.1736 -3.6725
siesta:   13   -12821.0735   -12803.5049   -12803.5692  0.1644 -3.6792
siesta:   14   -12820.8101   -12807.2948   -12807.3685  0.1426 -3.6676
siesta:   15   -12820.5681   -12809.2820   -12809.3537  0.1056 -3.6745
siesta:   16   -12820.4302   -12811.6400   -12811.7112  0.0745 -3.6880
siesta:   17   -12820.3729   -12813.0887   -12813.1560  0.0570 -3.6929
siesta:   18   -12820.3607   -12815.6892   -12815.7600  0.0390 -3.6987
siesta:   19   -12820.3389   -12819.1031   -12819.1745  0.0288 -3.6976
siesta:   20   -12820.3352   -12820.0865   -12820.1589  0.0315 -3.6973
siesta:   21   -12820.3295   -12820.5613   -12820.6327  0.0253 -3.6978
siesta:   22   -12820.3269   -12821.0094   -12821.0801  0.0230 -3.6951
siesta:   23   -12820.3257   -12821.3699   -12821.4412  0.0164 -3.6918
siesta:   24   -12820.3253   -12821.4296   -12821.5009  0.0119 -3.6890
siesta:   25   -12820.3251   -12821.2410   -12821.3122  0.0085 -3.6878
siesta:   26   -12820.3251   -12820.9582   -12821.0291  0.0044 -3.6863
siesta:   27   -12819.2051   -12820.7611   -12820.8319  0.0386 -3.6865
siesta:   28   -12820.3250   -12820.7556   -12820.8265  0.0031 -3.6862
siesta:   29   -12820.3249   -12820.6261   -12820.6970  0.0023 -3.6868
siesta:   30   -12820.3247   -12820.5534   -12820.6244  0.0020 -3.6869
siesta:   31   -12820.3247   -12820.4950   -12820.5661  0.0015 -3.6869
siesta:   32   -12820.3247   -12820.4127   -12820.4838  0.0012 -3.6871
siesta:   33   -12820.3247   -12820.3760   -12820.4470  0.0008 -3.6872
siesta:   34   -12820.3247   -12820.3526   -12820.4236  0.0006 -3.6873
siesta:   35   -12820.3247   -12820.3442   -12820.4153  0.0005 -3.6873
siesta:   36   -12820.3247   -12820.3345   -12820.4055  0.0002 -3.6873
siesta:   37   -12820.3247   -12820.3317   -12820.4028  0.0001 -3.6874

siesta: E_KS(eV) =           -12820.3315

siesta: E_KS - E_eggbox =    -12820.3315

siesta: Atomic forces (eV/Ang):
----------------------------------------
   Tot   -0.084355   -0.035892    0.000000
----------------------------------------
   Max  679.212716
   Res  169.108801    sqrt( Sum f_i^2 / 3N )
----------------------------------------
   Max  679.212716    constrained

Stress-tensor-Voigt (kbar):     -679.96    -2981.98       -0.04        8.04        0.00        0.00
(Free)E + p*V (eV/cell)   -11378.0140
Target enthalpy (eV/cell)   -12820.4025

siesta: Stress tensor (static) (eV/Ang**3):
        -0.424392    0.005021    0.000000
         0.005020   -1.861187    0.000000
         0.000000    0.000000   -0.000024

siesta: Pressure (static):       1220.65990119  kBar

siesta: Stress tensor (total) (eV/Ang**3):
        -0.424392    0.005021    0.000000
         0.005020   -1.861187    0.000000
         0.000000    0.000000   -0.000024

siesta: Pressure (total):       1220.65990119  kBar

siesta: Temp_ion =       0.000 K

* Maximum dynamic memory allocated =   145 MB
Computing bands...

siesta: Program's energy decomposition (eV):
siesta: Ebs     =     -5073.220068
siesta: Eions   =     21778.694799
siesta: Ena     =      4931.218908
siesta: Ekin    =     11132.042743
siesta: Enl     =     -1614.857833
siesta: DEna    =      -743.537288
siesta: DUscf   =       104.826279
siesta: DUext   =         0.000000
siesta: Exc     =     -4851.329486
siesta: eta*DQ  =         0.000000
siesta: Emadel  =         0.000000
siesta: Emeta   =         0.000000
siesta: Emolmec =         0.000000
siesta: Ekinion =         0.000000
siesta: Eharris =    -12820.324672
siesta: Etot    =    -12820.331475
siesta: FreeEng =    -12820.402534

siesta: Final energy (eV):
siesta:  Band Struct. =   -5073.220068
siesta:       Kinetic =   11132.042743
siesta:       Hartree =   35613.471682
siesta:    Ext. field =       0.000000
siesta:   Exch.-corr. =   -4851.329486
siesta:  Ion-electron =  -81916.504435
siesta:       Ion-ion =   27201.988021
siesta:       Ekinion =       0.000000
siesta:         Total =  -12820.331475

siesta: Atomic forces (eV/Ang):
siesta:      1    3.573461   -4.158151    0.000000
siesta:      2    0.032457 -124.131583   -0.000001
siesta:      3   16.245125  678.491154   -0.000009
siesta:      4   -0.233854   -1.180909    0.000000
siesta:      5   -2.022234    1.985479    0.000000
siesta:      6    0.167624   -0.263179    0.000000
siesta:      7  -15.748088  679.212716   -0.000003
siesta:      8    0.145149   -7.599807    0.000000
siesta:      9    1.162337   -1.407235    0.000000
siesta:     10    1.632219    1.724716    0.000000
siesta:     11   -0.025071   -0.419367    0.000000
siesta:     12   -1.309131   -1.370980    0.000000
siesta:     13   -1.624454    1.707389    0.000000
siesta:     14    0.430677    0.959691    0.000000
siesta:     15    0.501966   -1.114783    0.000000
siesta:     16    0.015830    0.698192    0.000000
siesta:     17    0.204844    5.486356    0.000000
siesta:     18   -1.330429   -0.373586    0.000000
siesta:     19    1.907808   -0.571256    0.000000
siesta:     20   -3.077814    1.033680    0.000000
siesta:     21    2.824565   -2.335747    0.000000
siesta:     22    1.747068  546.426684    0.000000
siesta:     23   -1.112619 -129.716967    0.000000
siesta:     24    0.175933  117.787866    0.000003
siesta:     25   -7.808237 -652.457457    0.000005
siesta:     26    0.006033  117.911129    0.000001
siesta:     27    7.071495 -651.941798    0.000012
siesta:     28   26.049576    6.343628   -0.000001
siesta:     29   35.183262 -549.603135    0.000001
siesta:     30    1.611829   -0.284016    0.000000
siesta:     31   -3.073960    1.842217    0.000000
siesta:     32    1.366591    1.467371    0.000000
siesta:     33   -0.921220   -0.310364    0.000000
siesta:     34  -24.300010    8.225912   -0.000001
siesta:     35  -37.611188 -552.147783   -0.000001
siesta:     36   14.363046  548.321451   -0.000004
siesta:     37   -2.697033 -126.062545   -0.000005
siesta:     38   33.053249  548.626904    0.000005
siesta:     39   26.568016  -10.927886   -0.000003
siesta:     40   -2.052732   -0.551918    0.000000
siesta:     41    0.625741   -0.188150    0.000000
siesta:     42    0.861077    2.559223    0.000000
siesta:     43   -1.639515    2.494013    0.000000
siesta:     44   -0.755467   -3.832734    0.000000
siesta:     45  -16.372786  548.569916   -0.000003
siesta:     46    2.790738 -124.646941   -0.000001
siesta:     47    0.582784  535.174732    0.000000
siesta:     48   23.020354   -3.640796    0.000000
siesta:     49   -1.950075    2.250558    0.000000
siesta:     50  -31.026137  548.622179    0.000003
siesta:     51  -26.750992  -10.381920   -0.000002
siesta:     52  -22.941481   -3.990657   -0.000001
siesta:     53    0.211343  570.618668   -0.000001
siesta:     54    2.660898   -1.140564    0.000000
siesta:     55   -1.202024   -0.246474    0.000000
siesta:     56    1.270868    1.886679    0.000000
siesta:     57    0.497042    1.188152    0.000000
siesta:     58   -1.758995   -2.553583    0.000000
siesta:     59    0.844990    5.172349    0.000000
siesta:     60    0.793466   -4.821983    0.000000
siesta:     61   -0.971031    2.395532    0.000000
siesta:     62    1.696808    1.110602    0.000000
siesta:     63   -1.526399   -2.387757    0.000000
siesta:     64   -1.777513 -566.665875    0.000000
siesta:     65   23.250806    6.490704    0.000001
siesta:     66   22.000721 -560.011353    0.000001
siesta:     67  -22.975402    7.085177   -0.000001
siesta:     68  -19.838531 -562.489673    0.000003
siesta:     69   -0.877218  129.596392    0.000001
siesta:     70   -0.225855 -546.796367    0.000002
siesta:     71   -0.006379  124.598341   -0.000002
siesta:     72    0.311724 -545.376364    0.000001
siesta: ----------------------------------------
siesta:    Tot   -0.084355   -0.035892    0.000000

siesta: Stress tensor (static) (eV/Ang**3):
siesta:    -0.424392    0.005021    0.000000
siesta:     0.005020   -1.861187    0.000000
siesta:     0.000000    0.000000   -0.000024

siesta: Cell volume =       1893.226884 Ang**3

siesta: Pressure (static):
siesta:                Solid            Molecule  Units
siesta:           0.00829771          0.13231302  Ry/Bohr**3
siesta:           0.76186775         12.14853111  eV/Ang**3
siesta:        1220.65990119      19464.30306799  kBar
(Free)E+ p_basis*V_orbitals  =      -12792.667152
(Free)Eharris+ p_basis*V_orbitals  =      -12792.660111

siesta: Electric dipole (a.u.)  =    0.000000    0.000000    0.000000
siesta: Electric dipole (Debye) =    0.000000    0.000000    0.000000

* Maximum dynamic memory allocated : Node    0 =   145 MB
* Maximum dynamic memory allocated : Node    1 =    58 MB
* Maximum dynamic memory allocated : Node    2 =    59 MB
* Maximum dynamic memory allocated : Node    3 =   133 MB
* Maximum dynamic memory allocated : Node    4 =   143 MB
* Maximum dynamic memory allocated : Node    5 =    52 MB
* Maximum dynamic memory allocated : Node    6 =    54 MB
* Maximum dynamic memory allocated : Node    7 =   134 MB
* Maximum dynamic memory allocated : Node    8 =   123 MB
* Maximum dynamic memory allocated : Node    9 =    51 MB
* Maximum dynamic memory allocated : Node   10 =    52 MB
* Maximum dynamic memory allocated : Node   11 =   118 MB

* Maximum memory occured during matrixMtoO                    

timer: CPU execution times:
timer:  Routine       Calls   Time/call    Tot.time        %
timer:  siesta            1  109362.680  109362.680   100.00
timer:  Setup             1       3.468       3.468     0.00
timer:  bands             3     226.705     680.114     0.62
timer:  writewave         1       0.024       0.024     0.00
timer:  KSV_init          1       0.004       0.004     0.00
timer:  IterMD            1  108671.979  108671.979    99.37
timer:  hsparse           1       0.167       0.167     0.00
timer:  overlap           1       8.304       8.304     0.01
timer:  IterSCF          37    2933.839  108552.034    99.26
timer:  kinefsm           2       4.198       8.395     0.01
timer:  nlefsm            2      18.036      36.072     0.03
timer:  DHSCF            38      60.483    2298.372     2.10
timer:  DHSCF1            1       0.895       0.895     0.00
timer:  DHSCF2            1      24.268      24.268     0.02
timer:  REORD           306       0.002       0.671     0.00
timer:  POISON           39       0.448      17.485     0.02
timer:  DHSCF3           38      59.286    2252.851     2.06
timer:  rhoofd           38      11.822     449.243     0.41
timer:  cellXC           38       2.412      91.650     0.08
timer:  vmat             38      28.530    1084.145     0.99
timer:  MolMec            2       0.000       0.000     0.00
timer:  diagon           37    2872.072  106266.667    97.17
timer:  c-eigval       8668       5.604   48573.185    44.41
timer:  c-buildHS      8668       0.032     278.967     0.26
timer:  cdiag         17215       5.711   98308.507    89.89
timer:  cdiag1        17215       0.258    4444.390     4.06
timer:  cdiag2        17215       1.842   31717.062    29.00
timer:  cdiag3        17215       3.395   58444.544    53.44
timer:  cdiag4        17215       0.089    1531.144     1.40
timer:  c-eigvec       8547       5.879   50245.693    45.94
timer:  c-buildD       8547       0.945    8080.489     7.39
timer:  DHSCF4            1      20.115      20.115     0.02
timer:  dfscf             1      18.714      18.714     0.02
timer:  overfsm           1       0.278       0.278     0.00
timer:  optical           1       6.496       6.496     0.01
  

elaps: ELAPSED times:
elaps:  Routine       Calls   Time/call    Tot.time        %
elaps:  siesta            1    9134.969    9134.969   100.00
elaps:  Setup             1       0.289       0.289     0.00
elaps:  bands             3      18.953      56.860     0.62
elaps:  writewave         1       0.002       0.002     0.00
elaps:  KSV_init          1       0.000       0.000     0.00
elaps:  IterMD            1    9077.275    9077.275    99.37
elaps:  hsparse           1       0.017       0.017     0.00
elaps:  overlap           1       0.712       0.712     0.01
elaps:  IterSCF          37     245.061    9067.255    99.26
elaps:  kinefsm           2       0.364       0.728     0.01
elaps:  nlefsm            2       1.684       3.369     0.04
elaps:  DHSCF            38       5.098     193.708     2.12
elaps:  DHSCF1            1       0.077       0.077     0.00
elaps:  DHSCF2            1       2.026       2.026     0.02
elaps:  REORD           306       0.000       0.091     0.00
elaps:  POISON           39       0.038       1.474     0.02
elaps:  DHSCF3           38       4.952     188.176     2.06
elaps:  rhoofd           38       2.172      82.540     0.90
elaps:  cellXC           38       0.201       7.635     0.08
elaps:  vmat             38       2.383      90.563     0.99
elaps:  MolMec            2       0.000       0.000     0.00
elaps:  diagon           37     239.908    8876.590    97.17
elaps:  c-eigval       8668       0.468    4057.232    44.41
elaps:  c-buildHS      8668       0.003      29.940     0.33
elaps:  cdiag         17215       0.473    8136.050    89.06
elaps:  cdiag1        17215       0.021     362.871     3.97
elaps:  cdiag2        17215       0.154    2651.735    29.03
elaps:  cdiag3        17215       0.284    4889.035    53.52
elaps:  cdiag4        17215       0.007     122.744     1.34
elaps:  c-eigvec       8547       0.484    4133.805    45.25
elaps:  c-buildD       8547       0.086     737.929     8.08
elaps:  DHSCF4            1       3.382       3.382     0.04
elaps:  dfscf             1       3.193       3.193     0.03
elaps:  overfsm           1       0.031       0.031     0.00
elaps:  optical           1       0.000       0.000     0.00
  
>> End of run:  29-APR-2016   7:22:41
