Siesta Version:                                        siesta-3.2-pl-3
Architecture  : x86_64-unknown-linux-gnu--unknown
Compiler flags: mpiifort -g -O2 -fPIC -xSSE4.1 -fp-model source -shared-intel 
PARALLEL version

* Running on    8 nodes in parallel
>> Start of run:  26-APR-2016  16:23:55

                           ***********************       
                           *  WELCOME TO SIESTA  *       
                           ***********************       

reinit: Reading from standard input
************************** Dump of input data file ****************************
#(1) General system descriptors
SystemName            GRP_doping    # Descriptive name of the system
SystemLabel           GRP_doping    # Short name for naming files
%include STRUCT.fdf
%include KPT.fdf
%include BASIS.fdf
#%include TS.fdf # for transiesta calculation
#(4) DFT, Grid, SCF
XC.functional         GGA           # LDA or GGA (default = LDA)
XC.authors            PBE           # CA (Ceperley-Aldr) = PZ
                                    #    (Perdew-Zunger) - LDA - Default
                                    # PW92 (Perdew-Wang-92) - LDA
                                    # PBE (Perdew-Burke-Ernzerhof) - GGA
MeshCutoff            200.000000    Ry      # Default: 50.0 Ry ~ 0.444 Bohr
                                    #         100.0 Ry ~ 0.314 Bohr
MaxSCFIterations      500           # Default: 50
DM.MixingWeight       0.05          # Default: 0.25
DM.NumberPulay        10            # Default: 0
DM.PulayOnFile        F             # SystemLabel.P1, SystemLabel.P2
DM.Tolerance          1.d-4         # Default: 1.d-4
DM.UseSaveDM          .true.        # because of the bug
SCFMustConverge       .true.
NeglNonOverlapInt     F             # Default: F
#(5) Eigenvalue problem: order-N or diagonalization
SolutionMethod        Diagon        # or Transiesta
ElectronicTemperature 300.0 K       # Default: 300.0 K
#(6) Molecular dynamics and relaxations
#MD.TypeOfRun          CG            # Type of dynamics:
#MD.VariableCell       F
#MD.NumCGsteps         0           # 0 for single-point / 100 for gopt
#MD.MaxCGDispl         0.2 Bohr      # Default: 0.2 Bohr
#MD.MaxForceTol        0.02 eV/Ang   # Default: 0.04 eV/Ang
#MD.MaxStressTol       1.0 GPa       # Default: 1.0 GPa
# Geometry Constraints
#%block GeometryConstraints
#	position from 1 to 44
#%endblock GeometryConstraints
BandLinesScale   pi/a
%block BandLines
 1   0.00000000  0.00000000  0.00000000
50   0.00000000  0.07809418  0.00000000
50   0.04509075  0.07809242  0.00000000
20   0.00000000  0.00000000  0.00000000
%endblock BandLines
************************** End of input data file *****************************

reinit: -----------------------------------------------------------------------
reinit: System Name: GRP_doping
reinit: -----------------------------------------------------------------------
reinit: System Label: GRP_doping                                                  
reinit: -----------------------------------------------------------------------

initatom: Reading input for the pseudopotentials and atomic orbitals ----------
 Species number:            1  Label: N Atomic number:           7
 Species number:            2  Label: C Atomic number:           6
Ground state valence configuration:   2s02  2p03
Reading pseudopotential information in formatted form from N.psf

Valence configuration for pseudopotential generation:
2s( 2.00) rc: 1.48
2p( 3.00) rc: 1.48
3d( 0.00) rc: 1.48
4f( 0.00) rc: 1.48
Ground state valence configuration:   2s02  2p02
Reading pseudopotential information in formatted form from C.psf

Valence configuration for pseudopotential generation:
2s( 2.00) rc: 1.54
2p( 2.00) rc: 1.54
3d( 0.00) rc: 1.54
4f( 0.00) rc: 1.54
For N, standard SIESTA heuristics set lmxkb to 3
 (one more than the basis l, including polarization orbitals).
Use PS.lmax or PS.KBprojectors blocks to override.
For C, standard SIESTA heuristics set lmxkb to 3
 (one more than the basis l, including polarization orbitals).
Use PS.lmax or PS.KBprojectors blocks to override.

<basis_specs>
===============================================================================
N                    Z=   7    Mass=  14.010        Charge= 0.17977+309
Lmxo=1 Lmxkb= 3    BasisType=split      Semic=F
L=0  Nsemic=0  Cnfigmx=2
          n=1  nzeta=2  polorb=0
            splnorm:   0.15000    
               vcte:    0.0000    
               rinn:    0.0000    
                rcs:    0.0000      0.0000    
            lambdas:    1.0000      1.0000    
L=1  Nsemic=0  Cnfigmx=2
          n=1  nzeta=2  polorb=1
            splnorm:   0.15000    
               vcte:    0.0000    
               rinn:    0.0000    
                rcs:    0.0000      0.0000    
            lambdas:    1.0000      1.0000    
-------------------------------------------------------------------------------
L=0  Nkbl=1  erefs: 0.17977+309
L=1  Nkbl=1  erefs: 0.17977+309
L=2  Nkbl=1  erefs: 0.17977+309
L=3  Nkbl=1  erefs: 0.17977+309
===============================================================================
</basis_specs>

atom: Called for N                     (Z =   7)

read_vps: Pseudopotential generation method:
read_vps: ATM3      Troullier-Martins                       
Total valence charge:    5.00000

read_vps: Pseudopotential includes a core correction:
read_vps: Pseudo-core for xc-correction

xc_check: Exchange-correlation functional:
xc_check: GGA Perdew, Burke & Ernzerhof 1996
V l=0 = -2*Zval/r beyond r=  1.4606
V l=1 = -2*Zval/r beyond r=  1.4606
V l=2 = -2*Zval/r beyond r=  1.4606
V l=3 = -2*Zval/r beyond r=  1.4606
All V_l potentials equal beyond r=  1.4606
This should be close to max(r_c) in ps generation
All pots = -2*Zval/r beyond r=  1.4606

VLOCAL1: 99.0% of the norm of Vloc inside     20.347 Ry
VLOCAL1: 99.9% of the norm of Vloc inside     46.372 Ry
atom: Maximum radius for 4*pi*r*r*local-pseudopot. charge    1.76189
atom: Maximum radius for r*vlocal+2*Zval:    1.53550
GHOST: No ghost state for L =  0
GHOST: No ghost state for L =  1
GHOST: No ghost state for L =  2
GHOST: No ghost state for L =  3

KBgen: Kleinman-Bylander projectors: 
   l= 0   rc=  1.634559   el= -1.363963   Ekb=  5.296955   kbcos=  0.335621
   l= 1   rc=  1.614250   el= -0.521451   Ekb= -5.259161   kbcos= -0.433408
   l= 2   rc=  1.718383   el=  0.001991   Ekb= -1.271464   kbcos= -0.007566
   l= 3   rc=  1.761893   el=  0.003093   Ekb= -0.494769   kbcos= -0.001015

KBgen: Total number of  Kleinman-Bylander projectors:   16
atom: -------------------------------------------------------------------------

atom: SANKEY-TYPE ORBITALS:
atom: Selected multiple-zeta basis: split     

SPLIT: Orbitals with angular momentum L= 0

SPLIT: Basis orbitals for state 2s

SPLIT: PAO cut-off radius determined from an
SPLIT: energy shift=  0.007350 Ry

   izeta = 1
                 lambda =    1.000000
                     rc =    4.071465
                 energy =   -1.356470
                kinetic =    1.176977
    potential(screened) =   -2.533447
       potential(ionic) =   -8.057990

   izeta = 2
                 rmatch =    2.905100
              splitnorm =    0.150000
                 energy =   -1.158343
                kinetic =    1.813009
    potential(screened) =   -2.971352
       potential(ionic) =   -8.901931

SPLIT: Orbitals with angular momentum L= 1

SPLIT: Basis orbitals for state 2p

SPLIT: PAO cut-off radius determined from an
SPLIT: energy shift=  0.007350 Ry

   izeta = 1
                 lambda =    1.000000
                     rc =    4.972977
                 energy =   -0.513884
                kinetic =    3.441732
    potential(screened) =   -3.955616
       potential(ionic) =   -9.287901

   izeta = 2
                 rmatch =    3.054066
              splitnorm =    0.150000
                 energy =   -0.318226
                kinetic =    5.125348
    potential(screened) =   -5.443573
       potential(ionic) =  -11.380999

POLgen: Perturbative polarization orbital with L=  2

POLgen: Polarization orbital for state 2p

   izeta = 1
                     rc =    4.972977
                 energy =    1.607437
                kinetic =    3.268125
    potential(screened) =   -1.660688
       potential(ionic) =   -5.973652
atom: Total number of Sankey-type orbitals: 13

atm_pop: Valence configuration (for local Pseudopot. screening):
 2s( 2.00)                                                            
 2p( 3.00)                                                            
Vna: chval, zval:    5.00000   5.00000

Vna:  Cut-off radius for the neutral-atom potential:   4.972977
comcore: Pseudo-core radius Rcore=  1.554824

atom: _________________________________________________________________________

<basis_specs>
===============================================================================
C                    Z=   6    Mass=  12.010        Charge= 0.17977+309
Lmxo=1 Lmxkb= 3    BasisType=split      Semic=F
L=0  Nsemic=0  Cnfigmx=2
          n=1  nzeta=2  polorb=0
            splnorm:   0.15000    
               vcte:    0.0000    
               rinn:    0.0000    
                rcs:    0.0000      0.0000    
            lambdas:    1.0000      1.0000    
L=1  Nsemic=0  Cnfigmx=2
          n=1  nzeta=2  polorb=1
            splnorm:   0.15000    
               vcte:    0.0000    
               rinn:    0.0000    
                rcs:    0.0000      0.0000    
            lambdas:    1.0000      1.0000    
-------------------------------------------------------------------------------
L=0  Nkbl=1  erefs: 0.17977+309
L=1  Nkbl=1  erefs: 0.17977+309
L=2  Nkbl=1  erefs: 0.17977+309
L=3  Nkbl=1  erefs: 0.17977+309
===============================================================================
</basis_specs>

atom: Called for C                     (Z =   6)

read_vps: Pseudopotential generation method:
read_vps: ATM3      Troullier-Martins                       
Total valence charge:    4.00000

read_vps: Pseudopotential includes a core correction:
read_vps: Pseudo-core for xc-correction

xc_check: Exchange-correlation functional:
xc_check: GGA Perdew, Burke & Ernzerhof 1996
V l=0 = -2*Zval/r beyond r=  1.5227
V l=1 = -2*Zval/r beyond r=  1.5227
V l=2 = -2*Zval/r beyond r=  1.5227
V l=3 = -2*Zval/r beyond r=  1.5038
All V_l potentials equal beyond r=  1.5227
This should be close to max(r_c) in ps generation
All pots = -2*Zval/r beyond r=  1.5227

VLOCAL1: 99.0% of the norm of Vloc inside     18.722 Ry
VLOCAL1: 99.9% of the norm of Vloc inside     42.668 Ry
atom: Maximum radius for 4*pi*r*r*local-pseudopot. charge    1.83678
atom: Maximum radius for r*vlocal+2*Zval:    1.58088
GHOST: No ghost state for L =  0
GHOST: No ghost state for L =  1
GHOST: No ghost state for L =  2
GHOST: No ghost state for L =  3

KBgen: Kleinman-Bylander projectors: 
   l= 0   rc=  1.704034   el= -1.009801   Ekb=  5.335044   kbcos=  0.316824
   l= 1   rc=  1.704034   el= -0.388707   Ekb= -3.785862   kbcos= -0.366464
   l= 2   rc=  1.791422   el=  0.001971   Ekb= -0.970471   kbcos= -0.009212
   l= 3   rc=  1.859892   el=  0.003065   Ekb= -0.399525   kbcos= -0.001223

KBgen: Total number of  Kleinman-Bylander projectors:   16
atom: -------------------------------------------------------------------------

atom: SANKEY-TYPE ORBITALS:
atom: Selected multiple-zeta basis: split     

SPLIT: Orbitals with angular momentum L= 0

SPLIT: Basis orbitals for state 2s

SPLIT: PAO cut-off radius determined from an
SPLIT: energy shift=  0.007350 Ry

   izeta = 1
                 lambda =    1.000000
                     rc =    4.632753
                 energy =   -1.002270
                kinetic =    0.855760
    potential(screened) =   -1.858031
       potential(ionic) =   -5.417575

   izeta = 2
                 rmatch =    3.431921
              splitnorm =    0.150000
                 energy =   -0.867111
                kinetic =    1.300804
    potential(screened) =   -2.167915
       potential(ionic) =   -5.962684

SPLIT: Orbitals with angular momentum L= 1

SPLIT: Basis orbitals for state 2p

SPLIT: PAO cut-off radius determined from an
SPLIT: energy shift=  0.007350 Ry

   izeta = 1
                 lambda =    1.000000
                     rc =    5.658549
                 energy =   -0.381140
                kinetic =    2.399701
    potential(screened) =   -2.780841
       potential(ionic) =   -6.206085

   izeta = 2
                 rmatch =    3.653288
              splitnorm =    0.150000
                 energy =   -0.249149
                kinetic =    3.542762
    potential(screened) =   -3.791911
       potential(ionic) =   -7.581078

POLgen: Perturbative polarization orbital with L=  2

POLgen: Polarization orbital for state 2p

   izeta = 1
                     rc =    5.658549
                 energy =    1.109913
                kinetic =    2.304789
    potential(screened) =   -1.194876
       potential(ionic) =   -4.013592
atom: Total number of Sankey-type orbitals: 13

atm_pop: Valence configuration (for local Pseudopot. screening):
 2s( 2.00)                                                            
 2p( 2.00)                                                            
Vna: chval, zval:    4.00000   4.00000

Vna:  Cut-off radius for the neutral-atom potential:   5.658549
comcore: Pseudo-core radius Rcore=  1.791422

atom: _________________________________________________________________________

prinput: Basis input ----------------------------------------------------------

PAO.BasisType split     

%block ChemicalSpeciesLabel
    1    7 N                       # Species index, atomic number, species label
    2    6 C                       # Species index, atomic number, species label
%endblock ChemicalSpeciesLabel

%block PAO.Basis                 # Define Basis set
N                     2                    # Species label, number of l-shells
 n=2   0   2                         # n, l, Nzeta 
   4.071      2.905   
   1.000      1.000   
 n=2   1   2 P   1                   # n, l, Nzeta, Polarization, NzetaPol
   4.973      3.054   
   1.000      1.000   
C                     2                    # Species label, number of l-shells
 n=2   0   2                         # n, l, Nzeta 
   4.633      3.432   
   1.000      1.000   
 n=2   1   2 P   1                   # n, l, Nzeta, Polarization, NzetaPol
   5.659      3.653   
   1.000      1.000   
%endblock PAO.Basis

prinput: ----------------------------------------------------------------------

coor:   Atomic-coordinates input format  =     Fractional

siesta: Atomic coordinates (Bohr) and species
siesta:      2.30256  38.89134   0.00000  1        1
siesta:      4.63094  34.85847   0.00000  1        2
siesta:      4.63094  37.54693   0.00000  1        3
siesta:      6.95932  30.82560   0.00000  1        4
siesta:      6.95932  33.51406   0.00000  1        5
siesta:      2.30256  14.69411   0.00000  1        6
siesta:      2.30256  17.38257   0.00000  1        7
siesta:      4.63094  18.72698   0.00000  1        8
siesta:      4.63094  21.41544   0.00000  1        9
siesta:     -0.02582  18.72698   0.00000  1       10
siesta:     -0.02582  21.41544   0.00000  1       11
siesta:      2.30256  22.75985   0.00000  1       12
siesta:     -4.68258  21.41544   0.00000  1       13
siesta:     -2.35420  22.75985   0.00000  1       14
siesta:     -7.01096  22.75985   0.00000  1       15
siesta:     -7.01096  25.44831   0.00000  1       16
siesta:     -4.68258  26.79272   0.00000  1       17
siesta:     -4.68258  29.48119   0.00000  1       18
siesta:     -2.35420  30.82560   0.00000  1       19
siesta:     -2.35420  33.51406   0.00000  1       20
siesta:     -0.02582  34.85847   0.00000  1       21
siesta:     -0.02582  37.54693   0.00000  1       22
siesta:     -0.02582   2.59549   0.00000  2       23
siesta:     -0.02582   5.28395   0.00000  2       24
siesta:     -2.35420  38.89134   0.00000  2       25
siesta:     -2.35420  41.57980   0.00000  2       26
siesta:      2.30256  41.57980   0.00000  2       27
siesta:      9.28770  26.79272   0.00000  2       28
siesta:      9.28770  29.48119   0.00000  2       29
siesta:     -4.68258  34.85847   0.00000  2       30
siesta:     -4.68258  37.54693   0.00000  2       31
siesta:      2.30256   6.62836   0.00000  2       32
siesta:      2.30256   9.31683   0.00000  2       33
siesta:      4.63094  10.66124   0.00000  2       34
siesta:      4.63094  13.34970   0.00000  2       35
siesta:      6.95932  14.69411   0.00000  2       36
siesta:      6.95932  17.38257   0.00000  2       37
siesta:      9.28770  18.72698   0.00000  2       38
siesta:      9.28770  21.41544   0.00000  2       39
siesta:     11.61608  22.75985   0.00000  2       40
siesta:     11.61608  25.44831   0.00000  2       41
siesta:     -2.35420   6.62836   0.00000  2       42
siesta:     -2.35420   9.31683   0.00000  2       43
siesta:     -0.02582  10.66124   0.00000  2       44
siesta:     -0.02582  13.34970   0.00000  2       45
siesta:      6.95932  22.75985   0.00000  2       46
siesta:      6.95932  25.44831   0.00000  2       47
siesta:     -4.68258  10.66124   0.00000  2       48
siesta:     -4.68258  13.34970   0.00000  2       49
siesta:     -2.35420  14.69411   0.00000  2       50
siesta:     -2.35420  17.38257   0.00000  2       51
siesta:      2.30256  25.44831   0.00000  2       52
siesta:     -7.01096  14.69411   0.00000  2       53
siesta:     -7.01096  17.38257   0.00000  2       54
siesta:     -4.68258  18.72698   0.00000  2       55
siesta:     -2.35420  25.44831   0.00000  2       56
siesta:     -9.33934  18.72698   0.00000  2       57
siesta:     -9.33934  21.41544   0.00000  2       58
siesta:    -11.66772  22.75985   0.00000  2       59
siesta:    -11.66772  25.44831   0.00000  2       60
siesta:     -9.33934  26.79272   0.00000  2       61
siesta:     -9.33934  29.48119   0.00000  2       62
siesta:      4.63094  26.79272   0.00000  2       63
siesta:      4.63094  29.48119   0.00000  2       64
siesta:     -0.02582  26.79272   0.00000  2       65
siesta:     -0.02582  29.48119   0.00000  2       66
siesta:      2.30256  30.82560   0.00000  2       67
siesta:      2.30256  33.51406   0.00000  2       68
siesta:     -7.01096  30.82560   0.00000  2       69
siesta:     -7.01096  33.51406   0.00000  2       70
siesta:     -0.02582  42.92421   0.00000  2       71
siesta:     -0.02582  45.61267   0.00000  2       72

siesta: System type = slab      

initatomlists: Number of atoms, orbitals, and projectors:     72   936  1152

siesta: ******************** Simulation parameters ****************************
siesta:
siesta: The following are some of the parameters of the simulation.
siesta: A complete list of the parameters used, including default values,
siesta: can be found in file out.fdf
siesta:
redata: Non-Collinear-spin run           =     F
redata: SpinPolarized (Up/Down) run      =     F
redata: Number of spin components        =     1
redata: Long output                      =     F
redata: Number of Atomic Species         =        2
redata: Charge density info will appear in .RHO file
redata: Write Mulliken Pop.              =     NO
redata: Mesh Cutoff                      =   200.0000  Ry
redata: Net charge of the system         =     0.0000 |e|
redata: Max. number of SCF Iter          =      500
redata: SCF convergence failure will abort job
redata: Performing Pulay mixing using    =    10 iterations
redata: Mix DM in first SCF step ?       =     F
redata: Write Pulay info on disk?        =     F
redata: Discard 1st Pulay DM after  kick =     F
redata: New DM Mixing Weight             =     0.0500
redata: New DM Occupancy tolerance       = 0.000000000001
redata: No kicks to SCF
redata: DM Mixing Weight for Kicks       =     0.5000
redata: DM Tolerance for SCF             =     0.000100
redata: Require Energy convergence for SCF =     F
redata: DM Energy tolerance for SCF      =     0.000100 eV
redata: Require Harris convergence for SCF =     F
redata: DM Harris energy tolerance for SCF =     0.000100 eV
redata: Using Saved Data (generic)   =     F
redata: Use continuation files for DM    =     T
redata: Neglect nonoverlap interactions  =     F
redata: Method of Calculation            =     Diagonalization
redata: Divide and Conquer               =     T
redata: Electronic Temperature           =     0.0019  Ry
redata: Fix the spin of the system       =     F
redata: Dynamics option                  =     Verlet MD run
redata: Initial MD time step             =        1
redata:   Final MD time step             =        1
redata: Length of MD time step           =     1.0000  fs
redata: Initial Temperature of MD run    =     0.0000  K
redata: Perform a MD quench              =     F
redata: ***********************************************************************
Total number of electrons:   310.000000
Total ionic charge:   310.000000

* ProcessorY, Blocksize:    2  24

k-point displ. along   1 input, could be:     0.50    0.00
k-point displ. along   2 input, could be:     0.50    0.00
 Kpoints in:          231 . Kpoints trimmed:          231

siesta: k-grid: Number of k-points =   231
siesta: k-grid: Cutoff (effective) =     5.000 Ang
siesta: k-grid: Supercell and displacements
siesta: k-grid:   21   0   0      0.500
siesta: k-grid:    0  21   0      0.500
siesta: k-grid:    0   0   1      0.000
Naive supercell factors:     2    2    2

superc: Internal auxiliary supercell:     2 x     2 x     2  =       8
superc: Number of atoms, orbitals, and projectors:    576   7488   9216

* Maximum dynamic memory allocated =     4 MB

siesta:                 ==============================
                            Begin MD step =      1
                        ==============================

superc: Internal auxiliary supercell:     2 x     2 x     2  =       8
superc: Number of atoms, orbitals, and projectors:    576   7488   9216

outcell: Unit cell vectors (Ang):
       12.804619    7.392750    0.000000
        0.000000   14.785500    0.000000
        0.000000    0.000000   10.000000

outcell: Cell vector modules (Ang)   :   14.785500   14.785500   10.000000
outcell: Cell angles (23,13,12) (deg):     90.0000     90.0000     60.0000
outcell: Cell volume (Ang**3)        :   1893.2269
New_DM. Step:     1
Initializing Density Matrix...

InitMesh: MESH =   120 x   120 x    90 =     1296000
InitMesh: Mesh cutoff (required, used) =   200.000   223.865 Ry

* Maximum dynamic memory allocated =   181 MB

stepf: Fermi-Dirac step function

siesta: Program's energy decomposition (eV):
siesta: Ebs     =     -6318.197922
siesta: Eions   =     21939.441643
siesta: Ena     =      4958.002742
siesta: Ekin    =      8224.476411
siesta: Enl     =        -7.239934
siesta: DEna    =        -0.000015
siesta: DUscf   =         0.000000
siesta: DUext   =         0.000000
siesta: Exc     =     -4724.010606
siesta: eta*DQ  =         0.000000
siesta: Emadel  =         0.000000
siesta: Emeta   =         0.000000
siesta: Emolmec =         0.000000
siesta: Ekinion =         0.000000
siesta: Eharris =    -13111.440349
siesta: Etot    =    -13488.213045
siesta: FreeEng =    -13488.213045

siesta: iscf   Eharris(eV)      E_KS(eV)   FreeEng(eV)   dDmax  Ef(eV)
siesta:    1   -13111.4403   -13488.2130   -13488.2130  5.3516 -6.7598
timer: Routine,Calls,Time,% = IterSCF        1    4097.478  99.72
elaps: Routine,Calls,Wall,% = IterSCF        1     512.763  99.72
siesta:    2   -17571.7509   -12443.2773   -12443.2919 20.5285 -4.3981
siesta:    3   -13024.5110   -13268.9647   -13269.0552  2.0166 -4.8372
siesta:    4   -12998.4006   -13119.1849   -13119.2237  0.9820 -4.1142
siesta:    5   -12955.2384   -13033.6497   -13033.6703  0.8325 -3.6094
siesta:    6   -12949.5921   -13020.7062   -13020.7157  0.7910 -3.5947
siesta:    7   -12945.2249   -13015.7389   -13015.7488  0.7496 -3.6206
siesta:    8   -12940.2273   -12997.0491   -12997.0796  0.6594 -3.6908
siesta:    9   -12938.9793   -12985.8501   -12985.9368  0.6471 -3.6920
siesta:   10   -12938.4793   -12973.5951   -12973.6887  0.4620 -3.6897
siesta:   11   -12938.3876   -12943.7726   -12943.8224  0.2895 -3.6321
siesta:   12   -12938.4622   -12931.8584   -12931.9281  0.3685 -3.6366
siesta:   13   -12937.8449   -12927.0549   -12927.1368  0.1881 -3.6463
siesta:   14   -12937.5599   -12927.7220   -12927.7873  0.1405 -3.6648
siesta:   15   -12937.3562   -12925.8441   -12925.9178  0.0850 -3.6701
siesta:   16   -12937.2516   -12928.2059   -12928.2770  0.0721 -3.6821
siesta:   17   -12937.1639   -12927.8103   -12927.8920  0.0429 -3.7007
siesta:   18   -12937.1396   -12930.1925   -12930.2760  0.0371 -3.7037
siesta:   19   -12937.1280   -12933.1137   -12933.1983  0.0207 -3.7046
siesta:   20   -12937.1270   -12934.7207   -12934.8068  0.0215 -3.7055
siesta:   21   -12937.1265   -12935.5765   -12935.6629  0.0154 -3.7017
siesta:   22   -12937.1235   -12936.6005   -12936.6842  0.0105 -3.7013
siesta:   23   -12937.1208   -12936.6693   -12936.7545  0.0083 -3.6973
siesta:   24   -12937.1199   -12936.7574   -12936.8432  0.0068 -3.6957
siesta:   25   -12937.1200   -12936.9275   -12937.0133  0.0019 -3.6956
siesta:   26   -12937.1197   -12936.9777   -12937.0631  0.0018 -3.6957
siesta:   27   -12937.1196   -12937.0325   -12937.1181  0.0014 -3.6957
siesta:   28   -12937.1197   -12937.0572   -12937.1427  0.0012 -3.6952
siesta:   29   -12937.1197   -12937.0839   -12937.1694  0.0008 -3.6951
siesta:   30   -12937.1198   -12937.1346   -12937.2201  0.0008 -3.6953
siesta:   31   -12937.1197   -12937.1361   -12937.2215  0.0006 -3.6955
siesta:   32   -12937.1197   -12937.1242   -12937.2097  0.0002 -3.6956
siesta:   33   -12937.1197   -12937.1169   -12937.2023  0.0002 -3.6957
siesta:   34   -12937.1197   -12937.1228   -12937.2083  0.0001 -3.6957
siesta:   35   -12937.1197   -12937.1273   -12937.2128  0.0001 -3.6957

siesta: E_KS(eV) =           -12937.1297

siesta: E_KS - E_eggbox =    -12937.1297

siesta: Atomic forces (eV/Ang):
----------------------------------------
   Tot   -0.185229    0.053430    0.000000
----------------------------------------
   Max  684.255109
   Res  180.080616    sqrt( Sum f_i^2 / 3N )
----------------------------------------
   Max  684.255109    constrained

Stress-tensor-Voigt (kbar):     -653.71    -3242.88       -0.06       20.23        0.00        0.00
(Free)E + p*V (eV/cell)   -11402.3925
Target enthalpy (eV/cell)   -12937.2152

siesta: Stress tensor (static) (eV/Ang**3):
        -0.408009    0.012625    0.000000
         0.012625   -2.024028    0.000000
         0.000000    0.000000   -0.000038

siesta: Pressure (static):       1298.88475927  kBar

siesta: Stress tensor (total) (eV/Ang**3):
        -0.408009    0.012625    0.000000
         0.012625   -2.024028    0.000000
         0.000000    0.000000   -0.000038

siesta: Pressure (total):       1298.88475927  kBar

siesta: Temp_ion =       0.000 K

* Maximum dynamic memory allocated =   197 MB
Computing bands...

siesta: Program's energy decomposition (eV):
siesta: Ebs     =     -5068.612106
siesta: Eions   =     21939.441643
siesta: Ena     =      4958.002742
siesta: Ekin    =     11370.750439
siesta: Enl     =     -1723.278382
siesta: DEna    =      -814.886174
siesta: DUscf   =       114.278387
siesta: DUext   =         0.000000
siesta: Exc     =     -4902.555048
siesta: eta*DQ  =         0.000000
siesta: Emadel  =         0.000000
siesta: Emeta   =         0.000000
siesta: Emolmec =         0.000000
siesta: Ekinion =         0.000000
siesta: Eharris =    -12937.119675
siesta: Etot    =    -12937.129679
siesta: FreeEng =    -12937.215185

siesta: Final energy (eV):
siesta:  Band Struct. =   -5068.612106
siesta:       Kinetic =   11370.750439
siesta:       Hartree =   36896.069452
siesta:    Ext. field =       0.000000
siesta:   Exch.-corr. =   -4902.555048
siesta:  Ion-electron =  -84652.720196
siesta:       Ion-ion =   28351.325674
siesta:       Ekinion =       0.000000
siesta:         Total =  -12937.129679

siesta: Atomic forces (eV/Ang):
siesta:      1   -2.537146  116.181100    0.000000
siesta:      2   23.503222    2.960019    0.000000
siesta:      3   26.816330 -655.433280    0.000000
siesta:      4   -0.153137   -0.446889    0.000000
siesta:      5    0.505072   -2.340635    0.000000
siesta:      6    5.236600  680.411706    0.000000
siesta:      7   34.773397  -14.264808    0.000000
siesta:      8    0.768895    3.142081    0.000000
siesta:      9    1.121943    0.448331    0.000000
siesta:     10  -16.165249  684.255109    0.000000
siesta:     11   -0.236761   -5.731800    0.000000
siesta:     12    1.848388    1.246810    0.000000
siesta:     13    0.224903   -1.361072    0.000000
siesta:     14   -2.978383    2.688979    0.000000
siesta:     15    0.128385    0.605600    0.000000
siesta:     16    0.637729    0.177986    0.000000
siesta:     17    0.840385   -3.039131    0.000000
siesta:     18   -1.594911   -2.998129    0.000000
siesta:     19  -25.123991    4.145849    0.000000
siesta:     20   -9.310482 -671.951007    0.000000
siesta:     21    1.055572  106.282008    0.000000
siesta:     22   -4.997854 -660.494832    0.000000
siesta:     23  -18.838979  549.539439    0.000000
siesta:     24    2.813400 -120.617159    0.000000
siesta:     25   -1.459069  129.837674    0.000000
siesta:     26  -13.639100 -545.228333    0.000000
siesta:     27   22.382316 -652.573695    0.000000
siesta:     28    1.062127    2.290448    0.000000
siesta:     29   -1.116220    2.310475    0.000000
siesta:     30  -27.529106    8.828270    0.000000
siesta:     31  -30.347963 -550.227728    0.000000
siesta:     32   17.556696  549.841258    0.000000
siesta:     33   -0.502095 -120.451048    0.000000
siesta:     34   22.688588  656.972350    0.000000
siesta:     35   27.978173   -6.696246    0.000000
siesta:     36   -2.151508    0.129193    0.000000
siesta:     37    2.136861   -0.627658    0.000000
siesta:     38   -1.292088   -0.349609    0.000000
siesta:     39    1.405464   -2.238941    0.000000
siesta:     40   -0.277407    7.200122    0.000000
siesta:     41   -0.103910   -6.922730    0.000000
siesta:     42  -12.174879  659.879595    0.000000
siesta:     43    2.900008 -119.233256    0.000000
siesta:     44   16.314082  668.584837    0.000000
siesta:     45   -0.209257 -122.407998    0.000000
siesta:     46   -1.006916    0.505414    0.000000
siesta:     47   -0.946086   -0.971280    0.000000
siesta:     48  -31.718909  550.830588    0.000000
siesta:     49  -26.076377   -5.523123    0.000000
siesta:     50  -23.840094  555.663365    0.000000
siesta:     51  -25.713176  -10.260608    0.000000
siesta:     52   -0.945793   -0.166878    0.000000
siesta:     53    2.663994   -1.486806    0.000000
siesta:     54   -1.522570   -0.110608    0.000000
siesta:     55    1.606155    3.264717    0.000000
siesta:     56   -1.581265    0.674100    0.000000
siesta:     57    0.821164    0.594640    0.000000
siesta:     58   -1.530687   -1.923274    0.000000
siesta:     59    0.816037    4.765361    0.000000
siesta:     60    1.067372   -4.512495    0.000000
siesta:     61   -1.736781    1.564165    0.000000
siesta:     62    1.441391    0.076445    0.000000
siesta:     63    1.134649    0.126188    0.000000
siesta:     64   -0.830721   -1.744326    0.000000
siesta:     65    0.341143   -1.473900    0.000000
siesta:     66   19.430069 -576.177255    0.000000
siesta:     67   24.196166    5.280928    0.000000
siesta:     68    8.332755 -574.435456    0.000000
siesta:     69   -1.731989    0.297879    0.000000
siesta:     70    2.439796    0.398126    0.000000
siesta:     71    2.938284  122.513944    0.000000
siesta:     72    9.808121 -640.039676    0.000000
siesta: ----------------------------------------
siesta:    Tot   -0.185229    0.053430    0.000000

siesta: Stress tensor (static) (eV/Ang**3):
siesta:    -0.408009    0.012625    0.000000
siesta:     0.012625   -2.024028    0.000000
siesta:     0.000000    0.000000   -0.000038

siesta: Cell volume =       1893.226884 Ang**3

siesta: Pressure (static):
siesta:                Solid            Molecule  Units
siesta:           0.00882946          0.14275153  Ry/Bohr**3
siesta:           0.81069134         13.10696017  eV/Ang**3
siesta:        1298.88475927      20999.89231007  kBar
(Free)E+ p_basis*V_orbitals  =      -12909.622767
(Free)Eharris+ p_basis*V_orbitals  =      -12909.615161

siesta: Electric dipole (a.u.)  =    0.000000    0.000000    0.000000
siesta: Electric dipole (Debye) =    0.000000    0.000000    0.000000

* Maximum dynamic memory allocated : Node    0 =   197 MB
* Maximum dynamic memory allocated : Node    1 =    70 MB
* Maximum dynamic memory allocated : Node    2 =    74 MB
* Maximum dynamic memory allocated : Node    3 =   190 MB
* Maximum dynamic memory allocated : Node    4 =   185 MB
* Maximum dynamic memory allocated : Node    5 =    70 MB
* Maximum dynamic memory allocated : Node    6 =    72 MB
* Maximum dynamic memory allocated : Node    7 =   170 MB

* Maximum memory occured during matrixMtoO                    

timer: CPU execution times:
timer:  Routine       Calls   Time/call    Tot.time        %
timer:  siesta            1  142588.404  142588.404   100.00
timer:  Setup             1       3.007       3.007     0.00
timer:  bands             3     269.082     807.246     0.57
timer:  writewave         1       0.019       0.019     0.00
timer:  KSV_init          1       0.003       0.003     0.00
timer:  IterMD            1  141772.298  141772.298    99.43
timer:  hsparse           1       0.234       0.234     0.00
timer:  overlap           1       7.711       7.711     0.01
timer:  IterSCF          35    4045.998  141609.914    99.31
timer:  kinefsm           2       3.954       7.908     0.01
timer:  nlefsm            2      18.307      36.613     0.03
timer:  DHSCF            36      83.977    3023.172     2.12
timer:  DHSCF1            1       0.760       0.760     0.00
timer:  DHSCF2            1      32.753      32.753     0.02
timer:  REORD           290       0.010       2.943     0.00
timer:  POISON           37       2.249      83.206     0.06
timer:  DHSCF3           36      82.181    2958.499     2.07
timer:  rhoofd           36      16.269     585.672     0.41
timer:  cellXC           36       3.575     128.694     0.09
timer:  vmat             36      39.386    1417.906     0.99
timer:  MolMec            2       0.000       0.000     0.00
timer:  diagon           35    3960.676  138623.675    97.22
timer:  c-eigval       8206       6.673   54761.829    38.41
timer:  c-buildHS      8206       0.111     914.618     0.64
timer:  cdiag         16291       6.898  112378.773    78.81
timer:  cdiag1        16291       0.426    6940.076     4.87
timer:  cdiag2        16291       1.908   31086.022    21.80
timer:  cdiag3        16291       3.951   64359.788    45.14
timer:  cdiag4        16291       0.204    3320.325     2.33
timer:  c-eigvec       8085       7.290   58941.037    41.34
timer:  c-buildD       8085       3.177   25682.393    18.01
timer:  DHSCF4            1      29.244      29.244     0.02
timer:  dfscf             1      27.461      27.461     0.02
timer:  overfsm           1       0.404       0.404     0.00
timer:  optical           1       5.107       5.107     0.00
  

elaps: ELAPSED times:
elaps:  Routine       Calls   Time/call    Tot.time        %
elaps:  siesta            1   17842.375   17842.375   100.00
elaps:  Setup             1       0.376       0.376     0.00
elaps:  bands             3      33.686     101.058     0.57
elaps:  writewave         1       0.002       0.002     0.00
elaps:  KSV_init          1       0.000       0.000     0.00
elaps:  IterMD            1   17740.266   17740.266    99.43
elaps:  hsparse           1       0.030       0.030     0.00
elaps:  overlap           1       0.964       0.964     0.01
elaps:  IterSCF          35     506.284   17719.955    99.31
elaps:  kinefsm           2       0.493       0.986     0.01
elaps:  nlefsm            2       2.293       4.586     0.03
elaps:  DHSCF            36      10.615     382.143     2.14
elaps:  DHSCF1            1       0.098       0.098     0.00
elaps:  DHSCF2            1       4.096       4.096     0.02
elaps:  REORD           290       0.001       0.397     0.00
elaps:  POISON           37       0.281      10.405     0.06
elaps:  DHSCF3           36      10.281     370.100     2.07
elaps:  rhoofd           36       4.552     163.886     0.92
elaps:  cellXC           36       0.446      16.071     0.09
elaps:  vmat             36       4.927     177.356     0.99
elaps:  MolMec            2       0.000       0.000     0.00
elaps:  diagon           35     495.594   17345.779    97.22
elaps:  c-eigval       8206       0.835    6851.817    38.40
elaps:  c-buildHS      8206       0.015     124.363     0.70
elaps:  cdiag         16291       0.872   14206.324    79.62
elaps:  cdiag1        16291       0.053     860.694     4.82
elaps:  cdiag2        16291       0.239    3889.545    21.80
elaps:  cdiag3        16291       0.495    8063.911    45.20
elaps:  cdiag4        16291       0.026     420.169     2.35
elaps:  c-eigvec       8085       0.932    7535.582    42.23
elaps:  c-buildD       8085       0.378    3052.793    17.11
elaps:  DHSCF4            1       7.588       7.588     0.04
elaps:  dfscf             1       7.202       7.202     0.04
elaps:  overfsm           1       0.048       0.048     0.00
elaps:  optical           1       0.000       0.000     0.00
  
>> End of run:  26-APR-2016  21:21:17
