Siesta Version:                                        siesta-3.2-pl-3
Architecture  : x86_64-unknown-linux-gnu--unknown
Compiler flags: mpiifort -g -O2 -fPIC -xSSE4.1 -fp-model source -shared-intel 
PARALLEL version

* Running on    8 nodes in parallel
>> Start of run:   4-MAY-2016   1:19:19

                           ***********************       
                           *  WELCOME TO SIESTA  *       
                           ***********************       

reinit: Reading from standard input
************************** Dump of input data file ****************************
#(1) General system descriptors
SystemName            GRP_doping    # Descriptive name of the system
SystemLabel           GRP_doping    # Short name for naming files
%include STRUCT.fdf
%include KPT.fdf
%include BASIS.fdf
#%include TS.fdf # for transiesta calculation
#(4) DFT, Grid, SCF
XC.functional         GGA           # LDA or GGA (default = LDA)
XC.authors            PBE           # CA (Ceperley-Aldr) = PZ
                                    #    (Perdew-Zunger) - LDA - Default
                                    # PW92 (Perdew-Wang-92) - LDA
                                    # PBE (Perdew-Burke-Ernzerhof) - GGA
MeshCutoff            200.000000    Ry      # Default: 50.0 Ry ~ 0.444 Bohr
                                    #         100.0 Ry ~ 0.314 Bohr
MaxSCFIterations      500           # Default: 50
DM.MixingWeight       0.05          # Default: 0.25
DM.NumberPulay        10            # Default: 0
DM.PulayOnFile        F             # SystemLabel.P1, SystemLabel.P2
DM.Tolerance          1.d-4         # Default: 1.d-4
DM.UseSaveDM          .true.        # because of the bug
SCFMustConverge       .true.
NeglNonOverlapInt     F             # Default: F
#(5) Eigenvalue problem: order-N or diagonalization
SolutionMethod        Diagon        # or Transiesta
ElectronicTemperature 300.0 K       # Default: 300.0 K
#(6) Molecular dynamics and relaxations
#MD.TypeOfRun          CG            # Type of dynamics:
#MD.VariableCell       F
#MD.NumCGsteps         0           # 0 for single-point / 100 for gopt
#MD.MaxCGDispl         0.2 Bohr      # Default: 0.2 Bohr
#MD.MaxForceTol        0.02 eV/Ang   # Default: 0.04 eV/Ang
#MD.MaxStressTol       1.0 GPa       # Default: 1.0 GPa
# Geometry Constraints
#%block GeometryConstraints
#	position from 1 to 44
#%endblock GeometryConstraints
BandLinesScale   pi/a
%block BandLines
 1   0.00000000  0.00000000  0.00000000
50   0.00000000  0.07809418  0.00000000
50   0.04509075  0.07809242  0.00000000
20   0.00000000  0.00000000  0.00000000
%endblock BandLines
************************** End of input data file *****************************

reinit: -----------------------------------------------------------------------
reinit: System Name: GRP_doping
reinit: -----------------------------------------------------------------------
reinit: System Label: GRP_doping                                                  
reinit: -----------------------------------------------------------------------

initatom: Reading input for the pseudopotentials and atomic orbitals ----------
 Species number:            1  Label: B Atomic number:           5
 Species number:            2  Label: C Atomic number:           6
Ground state valence configuration:   2s02  2p01
Reading pseudopotential information in formatted form from B.psf

Valence configuration for pseudopotential generation:
2s( 2.00) rc: 1.74
2p( 1.00) rc: 1.74
3d( 0.00) rc: 1.74
4f( 0.00) rc: 1.74
Ground state valence configuration:   2s02  2p02
Reading pseudopotential information in formatted form from C.psf

Valence configuration for pseudopotential generation:
2s( 2.00) rc: 1.54
2p( 2.00) rc: 1.54
3d( 0.00) rc: 1.54
4f( 0.00) rc: 1.54
For B, standard SIESTA heuristics set lmxkb to 3
 (one more than the basis l, including polarization orbitals).
Use PS.lmax or PS.KBprojectors blocks to override.
For C, standard SIESTA heuristics set lmxkb to 3
 (one more than the basis l, including polarization orbitals).
Use PS.lmax or PS.KBprojectors blocks to override.

<basis_specs>
===============================================================================
B                    Z=   5    Mass=  10.810        Charge= 0.17977+309
Lmxo=1 Lmxkb= 3    BasisType=split      Semic=F
L=0  Nsemic=0  Cnfigmx=2
          n=1  nzeta=2  polorb=0
            splnorm:   0.15000    
               vcte:    0.0000    
               rinn:    0.0000    
                rcs:    0.0000      0.0000    
            lambdas:    1.0000      1.0000    
L=1  Nsemic=0  Cnfigmx=2
          n=1  nzeta=2  polorb=1
            splnorm:   0.15000    
               vcte:    0.0000    
               rinn:    0.0000    
                rcs:    0.0000      0.0000    
            lambdas:    1.0000      1.0000    
-------------------------------------------------------------------------------
L=0  Nkbl=1  erefs: 0.17977+309
L=1  Nkbl=1  erefs: 0.17977+309
L=2  Nkbl=1  erefs: 0.17977+309
L=3  Nkbl=1  erefs: 0.17977+309
===============================================================================
</basis_specs>

atom: Called for B                     (Z =   5)

read_vps: Pseudopotential generation method:
read_vps: ATM3      Troullier-Martins                       
Total valence charge:    3.00000

read_vps: Pseudopotential includes a core correction:
read_vps: Pseudo-core for xc-correction

xc_check: Exchange-correlation functional:
xc_check: GGA Perdew, Burke & Ernzerhof 1996
V l=0 = -2*Zval/r beyond r=  1.7165
V l=1 = -2*Zval/r beyond r=  1.7165
V l=2 = -2*Zval/r beyond r=  1.7165
V l=3 = -2*Zval/r beyond r=  1.6951
All V_l potentials equal beyond r=  1.7165
This should be close to max(r_c) in ps generation
All pots = -2*Zval/r beyond r=  1.7165

VLOCAL1: 99.0% of the norm of Vloc inside     14.733 Ry
VLOCAL1: 99.9% of the norm of Vloc inside     33.577 Ry
atom: Maximum radius for 4*pi*r*r*local-pseudopot. charge    2.04484
atom: Maximum radius for r*vlocal+2*Zval:    1.75994
GHOST: No ghost state for L =  0
GHOST: No ghost state for L =  1
GHOST: No ghost state for L =  2
GHOST: No ghost state for L =  3

KBgen: Kleinman-Bylander projectors: 
   l= 0   rc=  1.897051   el= -0.693730   Ekb=  4.595746   kbcos=  0.286105
   l= 1   rc=  1.920920   el= -0.265236   Ekb= -2.350715   kbcos= -0.315747
   l= 2   rc=  2.044840   el=  0.002055   Ekb= -0.690767   kbcos= -0.013822
   l= 3   rc=  2.149707   el=  0.003188   Ekb= -0.315358   kbcos= -0.002055

KBgen: Total number of  Kleinman-Bylander projectors:   16
atom: -------------------------------------------------------------------------

atom: SANKEY-TYPE ORBITALS:
atom: Selected multiple-zeta basis: split     

SPLIT: Orbitals with angular momentum L= 0

SPLIT: Basis orbitals for state 2s

SPLIT: PAO cut-off radius determined from an
SPLIT: energy shift=  0.007350 Ry

   izeta = 1
                 lambda =    1.000000
                     rc =    5.422032
                 energy =   -0.686029
                kinetic =    0.576707
    potential(screened) =   -1.262736
       potential(ionic) =   -3.271094

   izeta = 2
                 rmatch =    4.222573
              splitnorm =    0.150000
                 energy =   -0.602132
                kinetic =    0.858975
    potential(screened) =   -1.461107
       potential(ionic) =   -3.582536

SPLIT: Orbitals with angular momentum L= 1

SPLIT: Basis orbitals for state 2p

SPLIT: PAO cut-off radius determined from an
SPLIT: energy shift=  0.007350 Ry

   izeta = 1
                 lambda =    1.000000
                     rc =    6.790259
                 energy =   -0.258578
                kinetic =    1.481412
    potential(screened) =   -1.739989
       potential(ionic) =   -3.657461

   izeta = 2
                 rmatch =    4.608740
              splitnorm =    0.150000
                 energy =   -0.173757
                kinetic =    2.186690
    potential(screened) =   -2.360447
       potential(ionic) =   -4.464260

POLgen: Perturbative polarization orbital with L=  2

POLgen: Polarization orbital for state 2p

   izeta = 1
                     rc =    6.790259
                 energy =    0.684082
                kinetic =    1.471481
    potential(screened) =   -0.787399
       potential(ionic) =   -2.406985
atom: Total number of Sankey-type orbitals: 13

atm_pop: Valence configuration (for local Pseudopot. screening):
 2s( 2.00)                                                            
 2p( 1.00)                                                            
Vna: chval, zval:    3.00000   3.00000

Vna:  Cut-off radius for the neutral-atom potential:   6.790259
comcore: Pseudo-core radius Rcore=  2.122997

atom: _________________________________________________________________________

<basis_specs>
===============================================================================
C                    Z=   6    Mass=  12.010        Charge= 0.17977+309
Lmxo=1 Lmxkb= 3    BasisType=split      Semic=F
L=0  Nsemic=0  Cnfigmx=2
          n=1  nzeta=2  polorb=0
            splnorm:   0.15000    
               vcte:    0.0000    
               rinn:    0.0000    
                rcs:    0.0000      0.0000    
            lambdas:    1.0000      1.0000    
L=1  Nsemic=0  Cnfigmx=2
          n=1  nzeta=2  polorb=1
            splnorm:   0.15000    
               vcte:    0.0000    
               rinn:    0.0000    
                rcs:    0.0000      0.0000    
            lambdas:    1.0000      1.0000    
-------------------------------------------------------------------------------
L=0  Nkbl=1  erefs: 0.17977+309
L=1  Nkbl=1  erefs: 0.17977+309
L=2  Nkbl=1  erefs: 0.17977+309
L=3  Nkbl=1  erefs: 0.17977+309
===============================================================================
</basis_specs>

atom: Called for C                     (Z =   6)

read_vps: Pseudopotential generation method:
read_vps: ATM3      Troullier-Martins                       
Total valence charge:    4.00000

read_vps: Pseudopotential includes a core correction:
read_vps: Pseudo-core for xc-correction

xc_check: Exchange-correlation functional:
xc_check: GGA Perdew, Burke & Ernzerhof 1996
V l=0 = -2*Zval/r beyond r=  1.5227
V l=1 = -2*Zval/r beyond r=  1.5227
V l=2 = -2*Zval/r beyond r=  1.5227
V l=3 = -2*Zval/r beyond r=  1.5038
All V_l potentials equal beyond r=  1.5227
This should be close to max(r_c) in ps generation
All pots = -2*Zval/r beyond r=  1.5227

VLOCAL1: 99.0% of the norm of Vloc inside     18.722 Ry
VLOCAL1: 99.9% of the norm of Vloc inside     42.668 Ry
atom: Maximum radius for 4*pi*r*r*local-pseudopot. charge    1.83678
atom: Maximum radius for r*vlocal+2*Zval:    1.58088
GHOST: No ghost state for L =  0
GHOST: No ghost state for L =  1
GHOST: No ghost state for L =  2
GHOST: No ghost state for L =  3

KBgen: Kleinman-Bylander projectors: 
   l= 0   rc=  1.704034   el= -1.009801   Ekb=  5.335044   kbcos=  0.316824
   l= 1   rc=  1.704034   el= -0.388707   Ekb= -3.785862   kbcos= -0.366464
   l= 2   rc=  1.791422   el=  0.001971   Ekb= -0.970471   kbcos= -0.009212
   l= 3   rc=  1.859892   el=  0.003065   Ekb= -0.399525   kbcos= -0.001223

KBgen: Total number of  Kleinman-Bylander projectors:   16
atom: -------------------------------------------------------------------------

atom: SANKEY-TYPE ORBITALS:
atom: Selected multiple-zeta basis: split     

SPLIT: Orbitals with angular momentum L= 0

SPLIT: Basis orbitals for state 2s

SPLIT: PAO cut-off radius determined from an
SPLIT: energy shift=  0.007350 Ry

   izeta = 1
                 lambda =    1.000000
                     rc =    4.632753
                 energy =   -1.002270
                kinetic =    0.855760
    potential(screened) =   -1.858031
       potential(ionic) =   -5.417575

   izeta = 2
                 rmatch =    3.431921
              splitnorm =    0.150000
                 energy =   -0.867111
                kinetic =    1.300804
    potential(screened) =   -2.167915
       potential(ionic) =   -5.962684

SPLIT: Orbitals with angular momentum L= 1

SPLIT: Basis orbitals for state 2p

SPLIT: PAO cut-off radius determined from an
SPLIT: energy shift=  0.007350 Ry

   izeta = 1
                 lambda =    1.000000
                     rc =    5.658549
                 energy =   -0.381140
                kinetic =    2.399701
    potential(screened) =   -2.780841
       potential(ionic) =   -6.206085

   izeta = 2
                 rmatch =    3.653288
              splitnorm =    0.150000
                 energy =   -0.249149
                kinetic =    3.542762
    potential(screened) =   -3.791911
       potential(ionic) =   -7.581078

POLgen: Perturbative polarization orbital with L=  2

POLgen: Polarization orbital for state 2p

   izeta = 1
                     rc =    5.658549
                 energy =    1.109913
                kinetic =    2.304789
    potential(screened) =   -1.194876
       potential(ionic) =   -4.013592
atom: Total number of Sankey-type orbitals: 13

atm_pop: Valence configuration (for local Pseudopot. screening):
 2s( 2.00)                                                            
 2p( 2.00)                                                            
Vna: chval, zval:    4.00000   4.00000

Vna:  Cut-off radius for the neutral-atom potential:   5.658549
comcore: Pseudo-core radius Rcore=  1.791422

atom: _________________________________________________________________________

prinput: Basis input ----------------------------------------------------------

PAO.BasisType split     

%block ChemicalSpeciesLabel
    1    5 B                       # Species index, atomic number, species label
    2    6 C                       # Species index, atomic number, species label
%endblock ChemicalSpeciesLabel

%block PAO.Basis                 # Define Basis set
B                     2                    # Species label, number of l-shells
 n=2   0   2                         # n, l, Nzeta 
   5.422      4.223   
   1.000      1.000   
 n=2   1   2 P   1                   # n, l, Nzeta, Polarization, NzetaPol
   6.790      4.609   
   1.000      1.000   
C                     2                    # Species label, number of l-shells
 n=2   0   2                         # n, l, Nzeta 
   4.633      3.432   
   1.000      1.000   
 n=2   1   2 P   1                   # n, l, Nzeta, Polarization, NzetaPol
   5.659      3.653   
   1.000      1.000   
%endblock PAO.Basis

prinput: ----------------------------------------------------------------------

coor:   Atomic-coordinates input format  =     Fractional

siesta: Atomic coordinates (Bohr) and species
siesta:     -9.33934  18.72698   0.00000  1        1
siesta:     -9.33934  21.41544   0.00000  1        2
siesta:     -7.01096  22.75985   0.00000  1        3
siesta:     -7.01096  25.44831   0.00000  1        4
siesta:     -4.68258  26.79272   0.00000  1        5
siesta:     -4.68258  29.48119   0.00000  1        6
siesta:     -2.35420  30.82560   0.00000  1        7
siesta:     -0.02582   2.59549   0.00000  2        8
siesta:     -0.02582   5.28395   0.00000  2        9
siesta:     -2.35420  38.89134   0.00000  2       10
siesta:     -2.35420  41.57980   0.00000  2       11
siesta:      2.30256  38.89134   0.00000  2       12
siesta:      2.30256  41.57980   0.00000  2       13
siesta:      4.63094  34.85847   0.00000  2       14
siesta:      4.63094  37.54693   0.00000  2       15
siesta:      6.95932  30.82560   0.00000  2       16
siesta:      6.95932  33.51406   0.00000  2       17
siesta:      9.28770  26.79272   0.00000  2       18
siesta:      9.28770  29.48119   0.00000  2       19
siesta:     -4.68258  34.85847   0.00000  2       20
siesta:     -4.68258  37.54693   0.00000  2       21
siesta:      2.30256   6.62836   0.00000  2       22
siesta:      2.30256   9.31683   0.00000  2       23
siesta:      4.63094  10.66124   0.00000  2       24
siesta:      4.63094  13.34970   0.00000  2       25
siesta:      6.95932  14.69411   0.00000  2       26
siesta:      6.95932  17.38257   0.00000  2       27
siesta:      9.28770  18.72698   0.00000  2       28
siesta:      9.28770  21.41544   0.00000  2       29
siesta:     11.61608  22.75985   0.00000  2       30
siesta:     11.61608  25.44831   0.00000  2       31
siesta:     -2.35420   6.62836   0.00000  2       32
siesta:     -2.35420   9.31683   0.00000  2       33
siesta:     -0.02582  10.66124   0.00000  2       34
siesta:     -0.02582  13.34970   0.00000  2       35
siesta:      2.30256  14.69411   0.00000  2       36
siesta:      2.30256  17.38257   0.00000  2       37
siesta:      4.63094  18.72698   0.00000  2       38
siesta:      4.63094  21.41544   0.00000  2       39
siesta:      6.95932  22.75985   0.00000  2       40
siesta:      6.95932  25.44831   0.00000  2       41
siesta:     -4.68258  10.66124   0.00000  2       42
siesta:     -4.68258  13.34970   0.00000  2       43
siesta:     -2.35420  14.69411   0.00000  2       44
siesta:     -2.35420  17.38257   0.00000  2       45
siesta:     -0.02582  18.72698   0.00000  2       46
siesta:     -0.02582  21.41544   0.00000  2       47
siesta:      2.30256  22.75985   0.00000  2       48
siesta:      2.30256  25.44831   0.00000  2       49
siesta:     -7.01096  14.69411   0.00000  2       50
siesta:     -7.01096  17.38257   0.00000  2       51
siesta:     -4.68258  18.72698   0.00000  2       52
siesta:     -4.68258  21.41544   0.00000  2       53
siesta:     -2.35420  22.75985   0.00000  2       54
siesta:     -2.35420  25.44831   0.00000  2       55
siesta:    -11.66772  22.75985   0.00000  2       56
siesta:    -11.66772  25.44831   0.00000  2       57
siesta:     -9.33934  26.79272   0.00000  2       58
siesta:     -9.33934  29.48119   0.00000  2       59
siesta:      4.63094  26.79272   0.00000  2       60
siesta:      4.63094  29.48119   0.00000  2       61
siesta:     -0.02582  26.79272   0.00000  2       62
siesta:     -0.02582  29.48119   0.00000  2       63
siesta:      2.30256  30.82560   0.00000  2       64
siesta:      2.30256  33.51406   0.00000  2       65
siesta:     -2.35420  33.51406   0.00000  2       66
siesta:     -7.01096  30.82560   0.00000  2       67
siesta:     -7.01096  33.51406   0.00000  2       68
siesta:     -0.02582  34.85847   0.00000  2       69
siesta:     -0.02582  37.54693   0.00000  2       70
siesta:     -0.02582  42.92421   0.00000  2       71
siesta:     -0.02582  45.61267   0.00000  2       72

siesta: System type = slab      

initatomlists: Number of atoms, orbitals, and projectors:     72   936  1152

siesta: ******************** Simulation parameters ****************************
siesta:
siesta: The following are some of the parameters of the simulation.
siesta: A complete list of the parameters used, including default values,
siesta: can be found in file out.fdf
siesta:
redata: Non-Collinear-spin run           =     F
redata: SpinPolarized (Up/Down) run      =     F
redata: Number of spin components        =     1
redata: Long output                      =     F
redata: Number of Atomic Species         =        2
redata: Charge density info will appear in .RHO file
redata: Write Mulliken Pop.              =     NO
redata: Mesh Cutoff                      =   200.0000  Ry
redata: Net charge of the system         =     0.0000 |e|
redata: Max. number of SCF Iter          =      500
redata: SCF convergence failure will abort job
redata: Performing Pulay mixing using    =    10 iterations
redata: Mix DM in first SCF step ?       =     F
redata: Write Pulay info on disk?        =     F
redata: Discard 1st Pulay DM after  kick =     F
redata: New DM Mixing Weight             =     0.0500
redata: New DM Occupancy tolerance       = 0.000000000001
redata: No kicks to SCF
redata: DM Mixing Weight for Kicks       =     0.5000
redata: DM Tolerance for SCF             =     0.000100
redata: Require Energy convergence for SCF =     F
redata: DM Energy tolerance for SCF      =     0.000100 eV
redata: Require Harris convergence for SCF =     F
redata: DM Harris energy tolerance for SCF =     0.000100 eV
redata: Using Saved Data (generic)   =     F
redata: Use continuation files for DM    =     T
redata: Neglect nonoverlap interactions  =     F
redata: Method of Calculation            =     Diagonalization
redata: Divide and Conquer               =     T
redata: Electronic Temperature           =     0.0019  Ry
redata: Fix the spin of the system       =     F
redata: Dynamics option                  =     Verlet MD run
redata: Initial MD time step             =        1
redata:   Final MD time step             =        1
redata: Length of MD time step           =     1.0000  fs
redata: Initial Temperature of MD run    =     0.0000  K
redata: Perform a MD quench              =     F
redata: ***********************************************************************
Total number of electrons:   281.000000
Total ionic charge:   281.000000

* ProcessorY, Blocksize:    2  24

k-point displ. along   1 input, could be:     0.50    0.00
k-point displ. along   2 input, could be:     0.50    0.00
 Kpoints in:          231 . Kpoints trimmed:          231

siesta: k-grid: Number of k-points =   231
siesta: k-grid: Cutoff (effective) =     5.000 Ang
siesta: k-grid: Supercell and displacements
siesta: k-grid:   21   0   0      0.500
siesta: k-grid:    0  21   0      0.500
siesta: k-grid:    0   0   1      0.000
Naive supercell factors:     2    2    2

superc: Internal auxiliary supercell:     2 x     2 x     2  =       8
superc: Number of atoms, orbitals, and projectors:    576   7488   9216

* Maximum dynamic memory allocated =     4 MB

siesta:                 ==============================
                            Begin MD step =      1
                        ==============================

superc: Internal auxiliary supercell:     2 x     2 x     2  =       8
superc: Number of atoms, orbitals, and projectors:    576   7488   9216

outcell: Unit cell vectors (Ang):
       12.804619    7.392750    0.000000
        0.000000   14.785500    0.000000
        0.000000    0.000000   10.000000

outcell: Cell vector modules (Ang)   :   14.785500   14.785500   10.000000
outcell: Cell angles (23,13,12) (deg):     90.0000     90.0000     60.0000
outcell: Cell volume (Ang**3)        :   1893.2269
New_DM. Step:     1
Initializing Density Matrix...

InitMesh: MESH =   120 x   120 x    90 =     1296000
InitMesh: Mesh cutoff (required, used) =   200.000   223.865 Ry

* Maximum dynamic memory allocated =   209 MB

stepf: Fermi-Dirac step function

siesta: Program's energy decomposition (eV):
siesta: Ebs     =     -5776.499538
siesta: Eions   =     17506.614093
siesta: Ena     =      4554.795473
siesta: Ekin    =      6009.009694
siesta: Enl     =       686.298916
siesta: DEna    =        -0.000013
siesta: DUscf   =         0.000000
siesta: DUext   =         0.000000
siesta: Exc     =     -4182.046183
siesta: eta*DQ  =         0.000000
siesta: Emadel  =         0.000000
siesta: Emeta   =         0.000000
siesta: Emolmec =         0.000000
siesta: Ekinion =         0.000000
siesta: Eharris =    -10122.181944
siesta: Etot    =    -10438.556206
siesta: FreeEng =    -10438.556206

siesta: iscf   Eharris(eV)      E_KS(eV)   FreeEng(eV)   dDmax  Ef(eV)
siesta:    1   -10122.1819   -10438.5562   -10438.5562  6.3624 -8.0160
timer: Routine,Calls,Time,% = IterSCF        1    3450.997  99.66
elaps: Routine,Calls,Wall,% = IterSCF        1     432.268  99.65
siesta:    2   -13713.6137    -9518.7407    -9518.8460 14.6785 -2.4133
siesta:    3   -10077.5578   -10229.0781   -10229.1332  2.4718 -5.6843
siesta:    4   -10045.8472   -10115.0069   -10115.0440  0.9918 -4.8561
siesta:    5   -10005.1358   -10076.9305   -10077.0015  0.8336 -4.7726
siesta:    6    -9987.2102   -10036.9707   -10037.0222  0.6939 -4.7450
siesta:    7    -9980.9720   -10015.2244   -10015.2516  0.5779 -4.8078
siesta:    8    -9977.0135   -10006.1556   -10006.1956  0.5343 -4.8485
siesta:    9    -9976.2595    -9997.9683    -9998.0146  0.4773 -4.8316
siesta:   10    -9975.4313    -9982.5676    -9982.6415  0.3423 -4.7298
siesta:   11    -9975.1932    -9969.8403    -9969.8903  0.2346 -4.6636
siesta:   12    -9975.3042    -9959.1278    -9959.1866  0.1960 -4.6072
siesta:   13    -9974.9597    -9955.1780    -9955.1936  0.1769 -4.6472
siesta:   14    -9974.3843    -9955.7129    -9955.7782  0.1395 -4.6831
siesta:   15    -9973.8487    -9955.9680    -9956.0246  0.0937 -4.6945
siesta:   16    -9973.3760    -9961.3591    -9961.4256  0.0674 -4.7183
siesta:   17    -9973.3152    -9964.2461    -9964.2981  0.1029 -4.7356
siesta:   18    -9973.2884    -9966.3154    -9966.3780  0.0607 -4.7562
siesta:   19    -9973.2393    -9968.4686    -9968.5279  0.0367 -4.7670
siesta:   20    -9973.2298    -9969.9745    -9970.0320  0.0331 -4.7708
siesta:   21    -9973.2092    -9971.3719    -9971.4294  0.0265 -4.7631
siesta:   22    -9973.2059    -9972.2496    -9972.3058  0.0189 -4.7626
siesta:   23    -9973.2039    -9972.9890    -9973.0462  0.0181 -4.7625
siesta:   24    -9973.2022    -9973.0229    -9973.0797  0.0113 -4.7610
siesta:   25    -9973.2004    -9972.8818    -9972.9387  0.0060 -4.7580
siesta:   26    -9973.2000    -9972.8921    -9972.9496  0.0046 -4.7572
siesta:   27    -9973.2001    -9972.9331    -9972.9907  0.0037 -4.7564
siesta:   28    -9973.2000    -9973.0881    -9973.1453  0.0025 -4.7565
siesta:   29    -9973.1998    -9973.1866    -9973.2438  0.0013 -4.7573
siesta:   30    -9973.1997    -9973.2348    -9973.2921  0.0009 -4.7576
siesta:   31    -9973.1997    -9973.2233    -9973.2806  0.0008 -4.7579
siesta:   32    -9973.1997    -9973.2160    -9973.2735  0.0009 -4.7581
siesta:   33    -9973.1997    -9973.2052    -9973.2626  0.0005 -4.7581
siesta:   34    -9973.1997    -9973.2013    -9973.2587  0.0005 -4.7582
siesta:   35    -9973.1997    -9973.2017    -9973.2591  0.0001 -4.7581
siesta:   36    -9973.1997    -9973.2016    -9973.2590  0.0001 -4.7581
siesta:   37    -9973.1997    -9973.2013    -9973.2587  0.0001 -4.7581
siesta:   38    -9973.1997    -9973.1993    -9973.2566  0.0001 -4.7581

siesta: E_KS(eV) =            -9973.1981

siesta: E_KS - E_eggbox =     -9973.1981

siesta: Atomic forces (eV/Ang):
----------------------------------------
   Tot   -0.092242   -0.059219    0.000000
----------------------------------------
   Max  565.596788
   Res  161.216104    sqrt( Sum f_i^2 / 3N )
----------------------------------------
   Max  565.596788    constrained

Stress-tensor-Voigt (kbar):     -756.12    -2871.79       -0.38        6.88        0.00        0.00
(Free)E + p*V (eV/cell)    -8544.1356
Target enthalpy (eV/cell)    -9973.2554

siesta: Stress tensor (static) (eV/Ang**3):
        -0.471930    0.004293    0.000000
         0.004293   -1.792413    0.000000
         0.000000    0.000000   -0.000235

siesta: Pressure (static):       1209.43090814  kBar

siesta: Stress tensor (total) (eV/Ang**3):
        -0.471930    0.004293    0.000000
         0.004293   -1.792413    0.000000
         0.000000    0.000000   -0.000235

siesta: Pressure (total):       1209.43090814  kBar

siesta: Temp_ion =       0.000 K

* Maximum dynamic memory allocated =   225 MB
Computing bands...

siesta: Program's energy decomposition (eV):
siesta: Ebs     =     -4464.935679
siesta: Eions   =     17506.614093
siesta: Ena     =      4554.795473
siesta: Ekin    =      8971.614085
siesta: Enl     =      -949.555769
siesta: DEna    =      -793.366361
siesta: DUscf   =       104.205423
siesta: DUext   =         0.000000
siesta: Exc     =     -4354.276820
siesta: eta*DQ  =         0.000000
siesta: Emadel  =         0.000000
siesta: Emeta   =         0.000000
siesta: Emolmec =         0.000000
siesta: Ekinion =         0.000000
siesta: Eharris =     -9973.199720
siesta: Etot    =     -9973.198063
siesta: FreeEng =     -9973.255431

siesta: Final energy (eV):
siesta:  Band Struct. =   -4464.935679
siesta:       Kinetic =    8971.614085
siesta:       Hartree =   29712.671766
siesta:    Ext. field =       0.000000
siesta:   Exch.-corr. =   -4354.276820
siesta:  Ion-electron =  -68101.321043
siesta:       Ion-ion =   23798.113950
siesta:       Ekinion =       0.000000
siesta:         Total =   -9973.198063

siesta: Atomic forces (eV/Ang):
siesta:      1    0.118721   -5.566589    0.000000
siesta:      2   -9.443890    1.990672    0.000000
siesta:      3    5.580818   -3.312340    0.000000
siesta:      4   -3.573863    3.188766    0.000000
siesta:      5    4.601803   -3.166771    0.000000
siesta:      6   -2.522433    3.269136    0.000000
siesta:      7  -15.642901    4.517914    0.000000
siesta:      8    5.489787  546.856785    0.000000
siesta:      9   -2.184077 -132.167851    0.000000
siesta:     10    1.708795  126.831224    0.000000
siesta:     11  -14.999373 -548.051476    0.000000
siesta:     12   -2.202011  126.566350    0.000000
siesta:     13   15.403086 -547.596579    0.000000
siesta:     14   27.042978    4.843933    0.000000
siesta:     15   32.752209 -548.592776    0.000000
siesta:     16    1.439862   -0.332004    0.000000
siesta:     17   -2.277665    1.982759    0.000000
siesta:     18    2.183096    1.976036    0.000000
siesta:     19   -0.551563    0.943204    0.000000
siesta:     20  -26.477272    4.962182    0.000000
siesta:     21  -32.308265 -548.880198    0.000000
siesta:     22   11.904396  547.015192    0.000000
siesta:     23   -1.246638 -125.640330    0.000000
siesta:     24   33.921749  548.521655    0.000000
siesta:     25   26.685617   -5.960138    0.000000
siesta:     26   -2.353864   -1.726937    0.000000
siesta:     27    1.474305    0.016276    0.000000
siesta:     28   -0.552866   -0.752823    0.000000
siesta:     29    2.237475   -1.662652    0.000000
siesta:     30   -0.247417    6.970129    0.000000
siesta:     31   -0.289226   -7.194582    0.000000
siesta:     32  -16.811359  551.808096    0.000000
siesta:     33    1.336882 -126.458638    0.000000
siesta:     34    0.623869  542.084265    0.000000
siesta:     35   -0.148479 -126.019625    0.000000
siesta:     36   22.656474  557.661082    0.000000
siesta:     37   21.859012   -5.813664    0.000000
siesta:     38   -0.886054    2.446375    0.000000
siesta:     39    0.391457   -0.446890    0.000000
siesta:     40   -0.331518    0.542403    0.000000
siesta:     41   -0.327844   -0.543776    0.000000
siesta:     42  -34.314648  548.988407    0.000000
siesta:     43  -26.178767   -6.822830    0.000000
siesta:     44  -22.470708  557.310013    0.000000
siesta:     45  -22.116616   -5.498004    0.000000
siesta:     46   -0.225497  565.596788    0.000000
siesta:     47   -0.375708    1.747728    0.000000
siesta:     48   -0.408026    0.064668    0.000000
siesta:     49   -0.669530    0.035172    0.000000
siesta:     50    2.043160   -0.966297    0.000000
siesta:     51    1.125001   -3.515091    0.000000
siesta:     52    1.103421    1.994335    0.000000
siesta:     53    1.704700   -1.153701    0.000000
siesta:     54    1.763945   -1.503817    0.000000
siesta:     55    3.640201   -0.322984    0.000000
siesta:     56   -1.764708    7.244465    0.000000
siesta:     57   -0.154651   -5.600006    0.000000
siesta:     58   -6.406142    3.126310    0.000000
siesta:     59    1.782383   -0.141012    0.000000
siesta:     60    0.659939    0.711429    0.000000
siesta:     61   -1.086833   -2.665948    0.000000
siesta:     62    0.462970   -2.460213    0.000000
siesta:     63   -3.745802 -559.780108    0.000000
siesta:     64   22.035814    6.487970    0.000000
siesta:     65   26.568685 -556.922731    0.000000
siesta:     66  -22.294761 -555.491766    0.000000
siesta:     67   -6.129213    3.353295    0.000000
siesta:     68    2.472087    1.242339    0.000000
siesta:     69   -0.856299  125.477905    0.000000
siesta:     70   -0.163577 -543.312024    0.000000
siesta:     71   -0.148985  126.926936    0.000000
siesta:     72    0.022115 -549.318240    0.000000
siesta: ----------------------------------------
siesta:    Tot   -0.092242   -0.059219    0.000000

siesta: Stress tensor (static) (eV/Ang**3):
siesta:    -0.471930    0.004293    0.000000
siesta:     0.004293   -1.792413    0.000000
siesta:     0.000000    0.000000   -0.000235

siesta: Cell volume =       1893.226884 Ang**3

siesta: Pressure (static):
siesta:                Solid            Molecule  Units
siesta:           0.00822138          0.12567057  Ry/Bohr**3
siesta:           0.75485924         11.53864418  eV/Ang**3
siesta:        1209.43090814      18487.14592418  kBar
(Free)E+ p_basis*V_orbitals  =       -9940.306139
(Free)Eharris+ p_basis*V_orbitals  =       -9940.306585

siesta: Electric dipole (a.u.)  =    0.000000    0.000000    0.000000
siesta: Electric dipole (Debye) =    0.000000    0.000000    0.000000

* Maximum dynamic memory allocated : Node    0 =   225 MB
* Maximum dynamic memory allocated : Node    1 =    79 MB
* Maximum dynamic memory allocated : Node    2 =    82 MB
* Maximum dynamic memory allocated : Node    3 =   215 MB
* Maximum dynamic memory allocated : Node    4 =   209 MB
* Maximum dynamic memory allocated : Node    5 =    76 MB
* Maximum dynamic memory allocated : Node    6 =    77 MB
* Maximum dynamic memory allocated : Node    7 =   191 MB

* Maximum memory occured during matrixMtoO                    

timer: CPU execution times:
timer:  Routine       Calls   Time/call    Tot.time        %
timer:  siesta            1  129143.547  129143.547   100.00
timer:  Setup             1       3.844       3.844     0.00
timer:  bands             3     243.601     730.802     0.57
timer:  writewave         1       0.041       0.041     0.00
timer:  KSV_init          1       0.008       0.008     0.00
timer:  IterMD            1  128403.664  128403.664    99.43
timer:  hsparse           1       0.516       0.516     0.00
timer:  overlap           1       5.511       5.511     0.00
timer:  IterSCF          38    3374.215  128220.184    99.29
timer:  kinefsm           2       2.882       5.764     0.00
timer:  nlefsm            2      18.823      37.646     0.03
timer:  DHSCF            39      92.681    3614.576     2.80
timer:  DHSCF1            1       0.992       0.992     0.00
timer:  DHSCF2            1      40.395      40.395     0.03
timer:  REORD           314       0.005       1.484     0.00
timer:  POISON           40       0.865      34.593     0.03
timer:  DHSCF3           39      90.695    3537.122     2.74
timer:  rhoofd           39      19.811     772.624     0.60
timer:  cellXC           39       3.266     127.376     0.10
timer:  vmat             39      42.475    1656.513     1.28
timer:  MolMec            2       0.000       0.000     0.00
timer:  diagon           38    3280.443  124656.816    96.53
timer:  c-eigval       8899       6.029   53653.564    41.55
timer:  c-buildHS      8899       0.050     447.611     0.35
timer:  cdiag         17677       6.155  108799.383    84.25
timer:  cdiag1        17677       0.387    6842.955     5.30
timer:  cdiag2        17677       1.768   31250.339    24.20
timer:  cdiag3        17677       3.729   65919.668    51.04
timer:  cdiag4        17677       0.149    2637.191     2.04
timer:  c-eigvec       8778       6.374   55948.982    43.32
timer:  c-buildD       8778       1.793   15740.473    12.19
timer:  DHSCF4            1      35.279      35.279     0.03
timer:  dfscf             1      32.625      32.625     0.03
timer:  overfsm           1       0.423       0.423     0.00
timer:  optical           1       4.606       4.606     0.00
  

elaps: ELAPSED times:
elaps:  Routine       Calls   Time/call    Tot.time        %
elaps:  siesta            1   16173.572   16173.572   100.00
elaps:  Setup             1       0.500       0.500     0.00
elaps:  bands             3      30.527      91.580     0.57
elaps:  writewave         1       0.006       0.006     0.00
elaps:  KSV_init          1       0.001       0.001     0.00
elaps:  IterMD            1   16080.887   16080.887    99.43
elaps:  hsparse           1       0.063       0.063     0.00
elaps:  overlap           1       0.900       0.900     0.01
elaps:  IterSCF          38     422.580   16058.035    99.29
elaps:  kinefsm           2       0.465       0.931     0.01
elaps:  nlefsm            2       2.399       4.799     0.03
elaps:  DHSCF            39      11.724     457.234     2.83
elaps:  DHSCF1            1       0.126       0.126     0.00
elaps:  DHSCF2            1       5.059       5.059     0.03
elaps:  REORD           314       0.001       0.213     0.00
elaps:  POISON           40       0.108       4.332     0.03
elaps:  DHSCF3           39      11.359     442.992     2.74
elaps:  rhoofd           39       5.499     214.444     1.33
elaps:  cellXC           39       0.409      15.937     0.10
elaps:  vmat             39       5.320     207.463     1.28
elaps:  MolMec            2       0.000       0.000     0.00
elaps:  diagon           38     410.827   15611.414    96.52
elaps:  c-eigval       8899       0.755    6719.233    41.54
elaps:  c-buildHS      8899       0.007      58.551     0.36
elaps:  cdiag         17677       0.769   13591.115    84.03
elaps:  cdiag1        17677       0.049     865.198     5.35
elaps:  cdiag2        17677       0.221    3914.512    24.20
elaps:  cdiag3        17677       0.468    8266.633    51.11
elaps:  cdiag4        17677       0.018     319.598     1.98
elaps:  c-eigvec       8778       0.795    6978.433    43.15
elaps:  c-buildD       8778       0.228    1999.218    12.36
elaps:  DHSCF4            1       8.966       8.966     0.06
elaps:  dfscf             1       8.437       8.437     0.05
elaps:  overfsm           1       0.051       0.051     0.00
elaps:  optical           1       0.001       0.001     0.00
  
>> End of run:   4-MAY-2016   5:48:53
