Siesta Version:                                        siesta-3.2-pl-3
Architecture  : x86_64-unknown-linux-gnu--unknown
Compiler flags: mpiifort -g -O2 -fPIC -xSSE4.1 -fp-model source -shared-intel 
PARALLEL version

* Running on    8 nodes in parallel
>> Start of run:  21-APR-2016  14:42:30

                           ***********************       
                           *  WELCOME TO SIESTA  *       
                           ***********************       

reinit: Reading from standard input
************************** Dump of input data file ****************************
#(1) General system descriptors
SystemName            GRP_doping    # Descriptive name of the system
SystemLabel           GRP_doping    # Short name for naming files
%include STRUCT.fdf
%include KPT.fdf
%include BASIS.fdf
#%include TS.fdf # for transiesta calculation
#(4) DFT, Grid, SCF
XC.functional         GGA           # LDA or GGA (default = LDA)
XC.authors            PBE           # CA (Ceperley-Aldr) = PZ
                                    #    (Perdew-Zunger) - LDA - Default
                                    # PW92 (Perdew-Wang-92) - LDA
                                    # PBE (Perdew-Burke-Ernzerhof) - GGA
MeshCutoff            200.000000    Ry      # Default: 50.0 Ry ~ 0.444 Bohr
                                    #         100.0 Ry ~ 0.314 Bohr
MaxSCFIterations      500           # Default: 50
DM.MixingWeight       0.05          # Default: 0.25
DM.NumberPulay        10            # Default: 0
DM.PulayOnFile        F             # SystemLabel.P1, SystemLabel.P2
DM.Tolerance          1.d-4         # Default: 1.d-4
DM.UseSaveDM          .true.        # because of the bug
SCFMustConverge       .true.
NeglNonOverlapInt     F             # Default: F
#(5) Eigenvalue problem: order-N or diagonalization
SolutionMethod        Diagon        # or Transiesta
ElectronicTemperature 300.0 K       # Default: 300.0 K
#(6) Molecular dynamics and relaxations
#MD.TypeOfRun          CG            # Type of dynamics:
#MD.VariableCell       F
#MD.NumCGsteps         0           # 0 for single-point / 100 for gopt
#MD.MaxCGDispl         0.2 Bohr      # Default: 0.2 Bohr
#MD.MaxForceTol        0.02 eV/Ang   # Default: 0.04 eV/Ang
#MD.MaxStressTol       1.0 GPa       # Default: 1.0 GPa
# Geometry Constraints
#%block GeometryConstraints
#	position from 1 to 44
#%endblock GeometryConstraints
BandLinesScale   pi/a
%block BandLines
 1   0.00000000  0.00000000  0.00000000
50   0.00000000  0.07809418  0.00000000
50   0.04509075  0.07809242  0.00000000
20   0.00000000  0.00000000  0.00000000
%endblock BandLines
************************** End of input data file *****************************

reinit: -----------------------------------------------------------------------
reinit: System Name: GRP_doping
reinit: -----------------------------------------------------------------------
reinit: System Label: GRP_doping                                                  
reinit: -----------------------------------------------------------------------

initatom: Reading input for the pseudopotentials and atomic orbitals ----------
 Species number:            1  Label: B Atomic number:           5
 Species number:            2  Label: C Atomic number:           6
Ground state valence configuration:   2s02  2p01
Reading pseudopotential information in formatted form from B.psf

Valence configuration for pseudopotential generation:
2s( 2.00) rc: 1.74
2p( 1.00) rc: 1.74
3d( 0.00) rc: 1.74
4f( 0.00) rc: 1.74
Ground state valence configuration:   2s02  2p02
Reading pseudopotential information in formatted form from C.psf

Valence configuration for pseudopotential generation:
2s( 2.00) rc: 1.54
2p( 2.00) rc: 1.54
3d( 0.00) rc: 1.54
4f( 0.00) rc: 1.54
For B, standard SIESTA heuristics set lmxkb to 3
 (one more than the basis l, including polarization orbitals).
Use PS.lmax or PS.KBprojectors blocks to override.
For C, standard SIESTA heuristics set lmxkb to 3
 (one more than the basis l, including polarization orbitals).
Use PS.lmax or PS.KBprojectors blocks to override.

<basis_specs>
===============================================================================
B                    Z=   5    Mass=  10.810        Charge= 0.17977+309
Lmxo=1 Lmxkb= 3    BasisType=split      Semic=F
L=0  Nsemic=0  Cnfigmx=2
          n=1  nzeta=2  polorb=0
            splnorm:   0.15000    
               vcte:    0.0000    
               rinn:    0.0000    
                rcs:    0.0000      0.0000    
            lambdas:    1.0000      1.0000    
L=1  Nsemic=0  Cnfigmx=2
          n=1  nzeta=2  polorb=1
            splnorm:   0.15000    
               vcte:    0.0000    
               rinn:    0.0000    
                rcs:    0.0000      0.0000    
            lambdas:    1.0000      1.0000    
-------------------------------------------------------------------------------
L=0  Nkbl=1  erefs: 0.17977+309
L=1  Nkbl=1  erefs: 0.17977+309
L=2  Nkbl=1  erefs: 0.17977+309
L=3  Nkbl=1  erefs: 0.17977+309
===============================================================================
</basis_specs>

atom: Called for B                     (Z =   5)

read_vps: Pseudopotential generation method:
read_vps: ATM3      Troullier-Martins                       
Total valence charge:    3.00000

read_vps: Pseudopotential includes a core correction:
read_vps: Pseudo-core for xc-correction

xc_check: Exchange-correlation functional:
xc_check: GGA Perdew, Burke & Ernzerhof 1996
V l=0 = -2*Zval/r beyond r=  1.7165
V l=1 = -2*Zval/r beyond r=  1.7165
V l=2 = -2*Zval/r beyond r=  1.7165
V l=3 = -2*Zval/r beyond r=  1.6951
All V_l potentials equal beyond r=  1.7165
This should be close to max(r_c) in ps generation
All pots = -2*Zval/r beyond r=  1.7165

VLOCAL1: 99.0% of the norm of Vloc inside     14.733 Ry
VLOCAL1: 99.9% of the norm of Vloc inside     33.577 Ry
atom: Maximum radius for 4*pi*r*r*local-pseudopot. charge    2.04484
atom: Maximum radius for r*vlocal+2*Zval:    1.75994
GHOST: No ghost state for L =  0
GHOST: No ghost state for L =  1
GHOST: No ghost state for L =  2
GHOST: No ghost state for L =  3

KBgen: Kleinman-Bylander projectors: 
   l= 0   rc=  1.897051   el= -0.693730   Ekb=  4.595746   kbcos=  0.286105
   l= 1   rc=  1.920920   el= -0.265236   Ekb= -2.350715   kbcos= -0.315747
   l= 2   rc=  2.044840   el=  0.002055   Ekb= -0.690767   kbcos= -0.013822
   l= 3   rc=  2.149707   el=  0.003188   Ekb= -0.315358   kbcos= -0.002055

KBgen: Total number of  Kleinman-Bylander projectors:   16
atom: -------------------------------------------------------------------------

atom: SANKEY-TYPE ORBITALS:
atom: Selected multiple-zeta basis: split     

SPLIT: Orbitals with angular momentum L= 0

SPLIT: Basis orbitals for state 2s

SPLIT: PAO cut-off radius determined from an
SPLIT: energy shift=  0.007350 Ry

   izeta = 1
                 lambda =    1.000000
                     rc =    5.422032
                 energy =   -0.686029
                kinetic =    0.576707
    potential(screened) =   -1.262736
       potential(ionic) =   -3.271094

   izeta = 2
                 rmatch =    4.222573
              splitnorm =    0.150000
                 energy =   -0.602132
                kinetic =    0.858975
    potential(screened) =   -1.461107
       potential(ionic) =   -3.582536

SPLIT: Orbitals with angular momentum L= 1

SPLIT: Basis orbitals for state 2p

SPLIT: PAO cut-off radius determined from an
SPLIT: energy shift=  0.007350 Ry

   izeta = 1
                 lambda =    1.000000
                     rc =    6.790259
                 energy =   -0.258578
                kinetic =    1.481412
    potential(screened) =   -1.739989
       potential(ionic) =   -3.657461

   izeta = 2
                 rmatch =    4.608740
              splitnorm =    0.150000
                 energy =   -0.173757
                kinetic =    2.186690
    potential(screened) =   -2.360447
       potential(ionic) =   -4.464260

POLgen: Perturbative polarization orbital with L=  2

POLgen: Polarization orbital for state 2p

   izeta = 1
                     rc =    6.790259
                 energy =    0.684082
                kinetic =    1.471481
    potential(screened) =   -0.787399
       potential(ionic) =   -2.406985
atom: Total number of Sankey-type orbitals: 13

atm_pop: Valence configuration (for local Pseudopot. screening):
 2s( 2.00)                                                            
 2p( 1.00)                                                            
Vna: chval, zval:    3.00000   3.00000

Vna:  Cut-off radius for the neutral-atom potential:   6.790259
comcore: Pseudo-core radius Rcore=  2.122997

atom: _________________________________________________________________________

<basis_specs>
===============================================================================
C                    Z=   6    Mass=  12.010        Charge= 0.17977+309
Lmxo=1 Lmxkb= 3    BasisType=split      Semic=F
L=0  Nsemic=0  Cnfigmx=2
          n=1  nzeta=2  polorb=0
            splnorm:   0.15000    
               vcte:    0.0000    
               rinn:    0.0000    
                rcs:    0.0000      0.0000    
            lambdas:    1.0000      1.0000    
L=1  Nsemic=0  Cnfigmx=2
          n=1  nzeta=2  polorb=1
            splnorm:   0.15000    
               vcte:    0.0000    
               rinn:    0.0000    
                rcs:    0.0000      0.0000    
            lambdas:    1.0000      1.0000    
-------------------------------------------------------------------------------
L=0  Nkbl=1  erefs: 0.17977+309
L=1  Nkbl=1  erefs: 0.17977+309
L=2  Nkbl=1  erefs: 0.17977+309
L=3  Nkbl=1  erefs: 0.17977+309
===============================================================================
</basis_specs>

atom: Called for C                     (Z =   6)

read_vps: Pseudopotential generation method:
read_vps: ATM3      Troullier-Martins                       
Total valence charge:    4.00000

read_vps: Pseudopotential includes a core correction:
read_vps: Pseudo-core for xc-correction

xc_check: Exchange-correlation functional:
xc_check: GGA Perdew, Burke & Ernzerhof 1996
V l=0 = -2*Zval/r beyond r=  1.5227
V l=1 = -2*Zval/r beyond r=  1.5227
V l=2 = -2*Zval/r beyond r=  1.5227
V l=3 = -2*Zval/r beyond r=  1.5038
All V_l potentials equal beyond r=  1.5227
This should be close to max(r_c) in ps generation
All pots = -2*Zval/r beyond r=  1.5227

VLOCAL1: 99.0% of the norm of Vloc inside     18.722 Ry
VLOCAL1: 99.9% of the norm of Vloc inside     42.668 Ry
atom: Maximum radius for 4*pi*r*r*local-pseudopot. charge    1.83678
atom: Maximum radius for r*vlocal+2*Zval:    1.58088
GHOST: No ghost state for L =  0
GHOST: No ghost state for L =  1
GHOST: No ghost state for L =  2
GHOST: No ghost state for L =  3

KBgen: Kleinman-Bylander projectors: 
   l= 0   rc=  1.704034   el= -1.009801   Ekb=  5.335044   kbcos=  0.316824
   l= 1   rc=  1.704034   el= -0.388707   Ekb= -3.785862   kbcos= -0.366464
   l= 2   rc=  1.791422   el=  0.001971   Ekb= -0.970471   kbcos= -0.009212
   l= 3   rc=  1.859892   el=  0.003065   Ekb= -0.399525   kbcos= -0.001223

KBgen: Total number of  Kleinman-Bylander projectors:   16
atom: -------------------------------------------------------------------------

atom: SANKEY-TYPE ORBITALS:
atom: Selected multiple-zeta basis: split     

SPLIT: Orbitals with angular momentum L= 0

SPLIT: Basis orbitals for state 2s

SPLIT: PAO cut-off radius determined from an
SPLIT: energy shift=  0.007350 Ry

   izeta = 1
                 lambda =    1.000000
                     rc =    4.632753
                 energy =   -1.002270
                kinetic =    0.855760
    potential(screened) =   -1.858031
       potential(ionic) =   -5.417575

   izeta = 2
                 rmatch =    3.431921
              splitnorm =    0.150000
                 energy =   -0.867111
                kinetic =    1.300804
    potential(screened) =   -2.167915
       potential(ionic) =   -5.962684

SPLIT: Orbitals with angular momentum L= 1

SPLIT: Basis orbitals for state 2p

SPLIT: PAO cut-off radius determined from an
SPLIT: energy shift=  0.007350 Ry

   izeta = 1
                 lambda =    1.000000
                     rc =    5.658549
                 energy =   -0.381140
                kinetic =    2.399701
    potential(screened) =   -2.780841
       potential(ionic) =   -6.206085

   izeta = 2
                 rmatch =    3.653288
              splitnorm =    0.150000
                 energy =   -0.249149
                kinetic =    3.542762
    potential(screened) =   -3.791911
       potential(ionic) =   -7.581078

POLgen: Perturbative polarization orbital with L=  2

POLgen: Polarization orbital for state 2p

   izeta = 1
                     rc =    5.658549
                 energy =    1.109913
                kinetic =    2.304789
    potential(screened) =   -1.194876
       potential(ionic) =   -4.013592
atom: Total number of Sankey-type orbitals: 13

atm_pop: Valence configuration (for local Pseudopot. screening):
 2s( 2.00)                                                            
 2p( 2.00)                                                            
Vna: chval, zval:    4.00000   4.00000

Vna:  Cut-off radius for the neutral-atom potential:   5.658549
comcore: Pseudo-core radius Rcore=  1.791422

atom: _________________________________________________________________________

prinput: Basis input ----------------------------------------------------------

PAO.BasisType split     

%block ChemicalSpeciesLabel
    1    5 B                       # Species index, atomic number, species label
    2    6 C                       # Species index, atomic number, species label
%endblock ChemicalSpeciesLabel

%block PAO.Basis                 # Define Basis set
B                     2                    # Species label, number of l-shells
 n=2   0   2                         # n, l, Nzeta 
   5.422      4.223   
   1.000      1.000   
 n=2   1   2 P   1                   # n, l, Nzeta, Polarization, NzetaPol
   6.790      4.609   
   1.000      1.000   
C                     2                    # Species label, number of l-shells
 n=2   0   2                         # n, l, Nzeta 
   4.633      3.432   
   1.000      1.000   
 n=2   1   2 P   1                   # n, l, Nzeta, Polarization, NzetaPol
   5.659      3.653   
   1.000      1.000   
%endblock PAO.Basis

prinput: ----------------------------------------------------------------------

coor:   Atomic-coordinates input format  =     Fractional

siesta: Atomic coordinates (Bohr) and species
siesta:     -0.02582   2.59549   0.00000  1        1
siesta:     -0.02582   5.28395   0.00000  1        2
siesta:     -2.35420  38.89134   0.00000  1        3
siesta:     -2.35420  41.57980   0.00000  1        4
siesta:      2.30256  38.89134   0.00000  1        5
siesta:      2.30256  41.57980   0.00000  1        6
siesta:      4.63094  34.85847   0.00000  1        7
siesta:      4.63094  37.54693   0.00000  1        8
siesta:     -4.68258  34.85847   0.00000  1        9
siesta:     -4.68258  37.54693   0.00000  1       10
siesta:      2.30256   6.62836   0.00000  1       11
siesta:      2.30256   9.31683   0.00000  1       12
siesta:      4.63094  10.66124   0.00000  1       13
siesta:      4.63094  13.34970   0.00000  1       14
siesta:     -2.35420   6.62836   0.00000  1       15
siesta:     -2.35420   9.31683   0.00000  1       16
siesta:     -0.02582  10.66124   0.00000  1       17
siesta:     -4.68258  10.66124   0.00000  1       18
siesta:     -4.68258  13.34970   0.00000  1       19
siesta:     -2.35420  22.75985   0.00000  1       20
siesta:     -2.35420  25.44831   0.00000  1       21
siesta:     -0.02582  26.79272   0.00000  1       22
siesta:     -0.02582  37.54693   0.00000  1       23
siesta:     -0.02582  42.92421   0.00000  1       24
siesta:     -0.02582  45.61267   0.00000  1       25
siesta:      6.95932  30.82560   0.00000  2       26
siesta:      6.95932  33.51406   0.00000  2       27
siesta:      9.28770  26.79272   0.00000  2       28
siesta:      9.28770  29.48119   0.00000  2       29
siesta:      6.95932  14.69411   0.00000  2       30
siesta:      6.95932  17.38257   0.00000  2       31
siesta:      9.28770  18.72698   0.00000  2       32
siesta:      9.28770  21.41544   0.00000  2       33
siesta:     11.61608  22.75985   0.00000  2       34
siesta:     11.61608  25.44831   0.00000  2       35
siesta:     -0.02582  13.34970   0.00000  2       36
siesta:      2.30256  14.69411   0.00000  2       37
siesta:      2.30256  17.38257   0.00000  2       38
siesta:      4.63094  18.72698   0.00000  2       39
siesta:      4.63094  21.41544   0.00000  2       40
siesta:      6.95932  22.75985   0.00000  2       41
siesta:      6.95932  25.44831   0.00000  2       42
siesta:     -2.35420  14.69411   0.00000  2       43
siesta:     -2.35420  17.38257   0.00000  2       44
siesta:     -0.02582  18.72698   0.00000  2       45
siesta:     -0.02582  21.41544   0.00000  2       46
siesta:      2.30256  22.75985   0.00000  2       47
siesta:      2.30256  25.44831   0.00000  2       48
siesta:     -7.01096  14.69411   0.00000  2       49
siesta:     -7.01096  17.38257   0.00000  2       50
siesta:     -4.68258  18.72698   0.00000  2       51
siesta:     -4.68258  21.41544   0.00000  2       52
siesta:     -9.33934  18.72698   0.00000  2       53
siesta:     -9.33934  21.41544   0.00000  2       54
siesta:     -7.01096  22.75985   0.00000  2       55
siesta:     -7.01096  25.44831   0.00000  2       56
siesta:    -11.66772  22.75985   0.00000  2       57
siesta:    -11.66772  25.44831   0.00000  2       58
siesta:     -9.33934  26.79272   0.00000  2       59
siesta:     -9.33934  29.48119   0.00000  2       60
siesta:      4.63094  26.79272   0.00000  2       61
siesta:      4.63094  29.48119   0.00000  2       62
siesta:     -0.02582  29.48119   0.00000  2       63
siesta:     -4.68258  26.79272   0.00000  2       64
siesta:     -4.68258  29.48119   0.00000  2       65
siesta:      2.30256  30.82560   0.00000  2       66
siesta:      2.30256  33.51406   0.00000  2       67
siesta:     -2.35420  30.82560   0.00000  2       68
siesta:     -2.35420  33.51406   0.00000  2       69
siesta:     -7.01096  30.82560   0.00000  2       70
siesta:     -7.01096  33.51406   0.00000  2       71
siesta:     -0.02582  34.85847   0.00000  2       72

siesta: System type = slab      

initatomlists: Number of atoms, orbitals, and projectors:     72   936  1152

siesta: ******************** Simulation parameters ****************************
siesta:
siesta: The following are some of the parameters of the simulation.
siesta: A complete list of the parameters used, including default values,
siesta: can be found in file out.fdf
siesta:
redata: Non-Collinear-spin run           =     F
redata: SpinPolarized (Up/Down) run      =     F
redata: Number of spin components        =     1
redata: Long output                      =     F
redata: Number of Atomic Species         =        2
redata: Charge density info will appear in .RHO file
redata: Write Mulliken Pop.              =     NO
redata: Mesh Cutoff                      =   200.0000  Ry
redata: Net charge of the system         =     0.0000 |e|
redata: Max. number of SCF Iter          =      500
redata: SCF convergence failure will abort job
redata: Performing Pulay mixing using    =    10 iterations
redata: Mix DM in first SCF step ?       =     F
redata: Write Pulay info on disk?        =     F
redata: Discard 1st Pulay DM after  kick =     F
redata: New DM Mixing Weight             =     0.0500
redata: New DM Occupancy tolerance       = 0.000000000001
redata: No kicks to SCF
redata: DM Mixing Weight for Kicks       =     0.5000
redata: DM Tolerance for SCF             =     0.000100
redata: Require Energy convergence for SCF =     F
redata: DM Energy tolerance for SCF      =     0.000100 eV
redata: Require Harris convergence for SCF =     F
redata: DM Harris energy tolerance for SCF =     0.000100 eV
redata: Using Saved Data (generic)   =     F
redata: Use continuation files for DM    =     T
redata: Neglect nonoverlap interactions  =     F
redata: Method of Calculation            =     Diagonalization
redata: Divide and Conquer               =     T
redata: Electronic Temperature           =     0.0019  Ry
redata: Fix the spin of the system       =     F
redata: Dynamics option                  =     Verlet MD run
redata: Initial MD time step             =        1
redata:   Final MD time step             =        1
redata: Length of MD time step           =     1.0000  fs
redata: Initial Temperature of MD run    =     0.0000  K
redata: Perform a MD quench              =     F
redata: ***********************************************************************
Total number of electrons:   263.000000
Total ionic charge:   263.000000

* ProcessorY, Blocksize:    2  24

k-point displ. along   1 input, could be:     0.50    0.00
k-point displ. along   2 input, could be:     0.50    0.00
 Kpoints in:          231 . Kpoints trimmed:          231

siesta: k-grid: Number of k-points =   231
siesta: k-grid: Cutoff (effective) =     5.000 Ang
siesta: k-grid: Supercell and displacements
siesta: k-grid:   21   0   0      0.500
siesta: k-grid:    0  21   0      0.500
siesta: k-grid:    0   0   1      0.000
Naive supercell factors:     2    2    2

superc: Internal auxiliary supercell:     2 x     2 x     2  =       8
superc: Number of atoms, orbitals, and projectors:    576   7488   9216

* Maximum dynamic memory allocated =     4 MB

siesta:                 ==============================
                            Begin MD step =      1
                        ==============================

superc: Internal auxiliary supercell:     2 x     2 x     2  =       8
superc: Number of atoms, orbitals, and projectors:    576   7488   9216

outcell: Unit cell vectors (Ang):
       12.804619    7.392750    0.000000
        0.000000   14.785500    0.000000
        0.000000    0.000000   10.000000

outcell: Cell vector modules (Ang)   :   14.785500   14.785500   10.000000
outcell: Cell angles (23,13,12) (deg):     90.0000     90.0000     60.0000
outcell: Cell volume (Ang**3)        :   1893.2269
New_DM. Step:     1
Initializing Density Matrix...

InitMesh: MESH =   120 x   120 x    90 =     1296000
InitMesh: Mesh cutoff (required, used) =   200.000   223.865 Ry

* Maximum dynamic memory allocated =   240 MB

stepf: Fermi-Dirac step function

siesta: Program's energy decomposition (eV):
siesta: Ebs     =     -5309.816831
siesta: Eions   =     15201.593291
siesta: Ena     =      4093.805963
siesta: Ekin    =      5059.728642
siesta: Enl     =       860.610342
siesta: DEna    =        -0.000006
siesta: DUscf   =         0.000000
siesta: DUext   =         0.000000
siesta: Exc     =     -4178.298035
siesta: eta*DQ  =         0.000000
siesta: Emadel  =         0.000000
siesta: Emeta   =         0.000000
siesta: Emolmec =         0.000000
siesta: Ekinion =         0.000000
siesta: Eharris =     -9291.946033
siesta: Etot    =     -9365.746385
siesta: FreeEng =     -9365.746385

siesta: iscf   Eharris(eV)      E_KS(eV)   FreeEng(eV)   dDmax  Ef(eV)
siesta:    1    -9291.9460    -9365.7464    -9365.7464  7.6382 -8.4337
timer: Routine,Calls,Time,% = IterSCF        1    4489.618  99.74
elaps: Routine,Calls,Wall,% = IterSCF        1     561.873  99.74
siesta:    2   -17707.2663    -7861.5612    -7861.6288 10.2497-13.1610
siesta:    3    -9937.4597    -9104.2497    -9104.2855  2.0380 -3.8759
siesta:    4    -9518.6390    -9131.9132    -9131.9612  1.7121 -5.2929
siesta:    5    -9468.5996    -9124.8597    -9124.9069  1.5545 -5.3479
siesta:    6    -9452.1628    -9119.1907    -9119.2380  1.5490 -5.2469
siesta:    7    -9242.7488    -9097.7880    -9097.8290  1.2959 -6.1137
siesta:    8    -9232.3056    -9092.1795    -9092.2354  1.2268 -6.0812
siesta:    9    -9177.9368    -9090.0152    -9090.0511  1.0612 -5.4129
siesta:   10    -9139.3546    -9100.6723    -9100.7176  0.7049 -4.8961
siesta:   11    -9138.8270    -9098.4717    -9098.5349  0.6857 -4.8940
siesta:   12    -9137.2397    -9097.0741    -9097.1354  0.6424 -4.9367
siesta:   13    -9134.5340    -9108.3063    -9108.3623  0.5287 -5.0818
siesta:   14    -9135.0614    -9121.9764    -9122.0354  0.8973 -5.3659
siesta:   15    -9134.7866    -9122.8932    -9122.9326  0.4128 -5.3761
siesta:   16    -9134.9664    -9127.0516    -9127.1283  0.9632 -5.3883
siesta:   17    -9133.9676    -9126.4511    -9126.4983  0.8054 -5.3601
siesta:   18    -9133.2573    -9127.1985    -9127.2700  0.4269 -5.3528
siesta:   19    -9133.1246    -9127.3396    -9127.4249  0.3254 -5.3453
siesta:   20    -9133.1931    -9127.9650    -9128.0575  0.6242 -5.3629
siesta:   21    -9133.6447    -9127.7833    -9127.8670  0.4487 -5.3603
siesta:   22    -9133.2697    -9128.2150    -9128.3079  0.4443 -5.3912
siesta:   23    -9133.0152    -9127.7831    -9127.8596  0.3867 -5.3873
siesta:   24    -9132.7755    -9129.3723    -9129.4747  0.4426 -5.3893
siesta:   25    -9132.8744    -9129.4966    -9129.5981  0.3971 -5.4094
siesta:   26    -9132.7352    -9130.4581    -9130.5486  0.4334 -5.3807
siesta:   27    -9132.6244    -9130.7006    -9130.7873  0.1069 -5.3516
siesta:   28    -9132.5399    -9130.8628    -9130.9650  0.0732 -5.3402
siesta:   29    -9132.5463    -9131.4080    -9131.5280  0.0957 -5.3328
siesta:   30    -9132.5509    -9132.2466    -9132.3606  0.0768 -5.3310
siesta:   31    -9132.5593    -9133.1376    -9133.2601  0.0737 -5.3234
siesta:   32    -9132.5603    -9134.2183    -9134.3349  0.0543 -5.3103
siesta:   33    -9132.5383    -9134.5768    -9134.6818  0.0360 -5.3052
siesta:   34    -9132.5239    -9134.6647    -9134.7767  0.0411 -5.3044
siesta:   35    -9132.5270    -9134.6002    -9134.7199  0.0510 -5.3059
siesta:   36    -9132.5279    -9134.8161    -9134.9304  0.0326 -5.3135
siesta:   37    -9132.5211    -9134.7184    -9134.8288  0.0241 -5.3190
siesta:   38    -9132.5221    -9134.7915    -9134.9049  0.0308 -5.3194
siesta:   39    -9132.5192    -9134.6681    -9134.7790  0.0202 -5.3168
siesta:   40    -9132.5169    -9134.4133    -9134.5266  0.0170 -5.3138
siesta:   41    -9132.5176    -9134.2001    -9134.3156  0.0076 -5.3149
siesta:   42    -9132.5157    -9133.1456    -9133.2593  0.0071 -5.3101
siesta:   43    -9132.5169    -9133.0662    -9133.1817  0.0027 -5.3102
siesta:   44    -9132.5164    -9132.9795    -9133.0936  0.0063 -5.3098
siesta:   45    -9132.5168    -9132.8936    -9133.0081  0.0024 -5.3101
siesta:   46    -9132.5170    -9132.8155    -9132.9296  0.0019 -5.3105
siesta:   47    -9132.5169    -9132.6854    -9132.7993  0.0012 -5.3108
siesta:   48    -9132.5170    -9132.6268    -9132.7408  0.0011 -5.3109
siesta:   49    -9132.5168    -9132.5978    -9132.7116  0.0015 -5.3107
siesta:   50    -9132.5169    -9132.5639    -9132.6779  0.0006 -5.3111
siesta:   51    -9132.5170    -9132.5356    -9132.6494  0.0007 -5.3113
siesta:   52    -9132.5170    -9132.5387    -9132.6525  0.0004 -5.3114
siesta:   53    -9132.5169    -9132.5245    -9132.6383  0.0003 -5.3114
siesta:   54    -9132.5170    -9132.5230    -9132.6369  0.0001 -5.3114
siesta:   55    -9132.5170    -9132.5228    -9132.6366  0.0001 -5.3114

siesta: E_KS(eV) =            -9132.5226

siesta: E_KS - E_eggbox =     -9132.5226

siesta: Atomic forces (eV/Ang):
----------------------------------------
   Tot   -0.156802   -0.217208    0.000000
----------------------------------------
   Max  419.887405
   Res  110.718938    sqrt( Sum f_i^2 / 3N )
----------------------------------------
   Max  419.887405    constrained

Stress-tensor-Voigt (kbar):     -574.28    -2062.60       -0.70       -1.73        0.00        0.00
(Free)E + p*V (eV/cell)    -8093.7392
Target enthalpy (eV/cell)    -9132.6364

siesta: Stress tensor (static) (eV/Ang**3):
        -0.358436   -0.001078    0.000000
        -0.001078   -1.287357    0.000000
         0.000000    0.000000   -0.000439

siesta: Pressure (static):        879.19454400  kBar

siesta: Stress tensor (total) (eV/Ang**3):
        -0.358436   -0.001078    0.000000
        -0.001078   -1.287357    0.000000
         0.000000    0.000000   -0.000439

siesta: Pressure (total):        879.19454400  kBar

siesta: Temp_ion =       0.000 K

* Maximum dynamic memory allocated =   258 MB
Computing bands...

siesta: Program's energy decomposition (eV):
siesta: Ebs     =     -4014.781854
siesta: Eions   =     15201.593291
siesta: Ena     =      4093.805963
siesta: Ekin    =      7611.065718
siesta: Enl     =      -756.237373
siesta: DEna    =      -643.608770
siesta: DUscf   =        83.739056
siesta: DUext   =         0.000000
siesta: Exc     =     -4319.693855
siesta: eta*DQ  =         0.000000
siesta: Emadel  =         0.000000
siesta: Emeta   =         0.000000
siesta: Emolmec =         0.000000
siesta: Ekinion =         0.000000
siesta: Eharris =     -9132.516959
siesta: Etot    =     -9132.522553
siesta: FreeEng =     -9132.636390

siesta: Final energy (eV):
siesta:  Band Struct. =   -4014.781854
siesta:       Kinetic =    7611.065718
siesta:       Hartree =   23580.601644
siesta:    Ext. field =       0.000000
siesta:   Exch.-corr. =   -4319.693855
siesta:  Ion-electron =  -54529.918628
siesta:       Ion-ion =   18525.422569
siesta:       Ekinion =       0.000000
siesta:         Total =   -9132.522553

siesta: Atomic forces (eV/Ang):
siesta:      1   -0.073117  406.633934    0.000000
siesta:      2    0.130722 -104.842056    0.000000
siesta:      3   -2.898755   97.497922    0.000000
siesta:      4    7.011880 -406.692407    0.000000
siesta:      5    2.890024   97.620483    0.000000
siesta:      6   -7.086450 -406.530286    0.000000
siesta:      7   20.821149   -4.196712    0.000000
siesta:      8   20.402069 -288.079165    0.000000
siesta:      9  -20.812998   -4.198947    0.000000
siesta:     10  -20.424314 -287.982571    0.000000
siesta:     11   -6.958524  406.020169    0.000000
siesta:     12    2.941100  -97.699730    0.000000
siesta:     13   20.400188  288.051194    0.000000
siesta:     14   20.795713    4.219792    0.000000
siesta:     15    6.750597  406.335196    0.000000
siesta:     16   -2.950176  -97.529443    0.000000
siesta:     17    0.027907  296.985902    0.000000
siesta:     18  -20.470216  287.986755    0.000000
siesta:     19  -20.699884    4.134580    0.000000
siesta:     20    0.460163   -4.741538    0.000000
siesta:     21   -3.708134    3.304636    0.000000
siesta:     22    3.597115   -0.010028    0.000000
siesta:     23    0.023880 -296.897047    0.000000
siesta:     24    0.119083  105.438378    0.000000
siesta:     25   -0.483855 -408.956242    0.000000
siesta:     26    3.180606    1.239935    0.000000
siesta:     27    0.329000    0.115643    0.000000
siesta:     28    2.446256    1.930362    0.000000
siesta:     29   -1.123719    0.019268    0.000000
siesta:     30    0.357319   -0.135327    0.000000
siesta:     31    2.799361   -1.187003    0.000000
siesta:     32   -0.937213    0.143311    0.000000
siesta:     33    2.390811   -2.033157    0.000000
siesta:     34    0.132428    6.411154    0.000000
siesta:     35    0.086043   -6.423918    0.000000
siesta:     36    0.012775 -121.873820    0.000000
siesta:     37   30.956982  418.034274    0.000000
siesta:     38   21.601383   -2.314348    0.000000
siesta:     39   -1.411992    1.451406    0.000000
siesta:     40    0.321306   -0.053311    0.000000
siesta:     41   -0.357243    0.877397    0.000000
siesta:     42   -0.123080   -0.721400    0.000000
siesta:     43  -30.932559  418.496942    0.000000
siesta:     44  -21.733157   -2.088783    0.000000
siesta:     45    0.800478  419.887405    0.000000
siesta:     46    2.539968    0.315021    0.000000
siesta:     47   -0.076256   -0.772688    0.000000
siesta:     48    2.540105   -0.494513    0.000000
siesta:     49   -0.414719    0.015687    0.000000
siesta:     50   -3.235766   -1.643593    0.000000
siesta:     51    1.366206    1.581723    0.000000
siesta:     52   -2.904585   -1.790338    0.000000
siesta:     53    1.062462    0.132354    0.000000
siesta:     54   -2.674574   -1.983609    0.000000
siesta:     55    0.340620    0.449230    0.000000
siesta:     56   -0.127181   -0.441155    0.000000
siesta:     57   -0.129490    6.429883    0.000000
siesta:     58   -0.173432   -6.532746    0.000000
siesta:     59   -2.476982    1.840368    0.000000
siesta:     60    1.173146   -0.079865    0.000000
siesta:     61    0.253001   -0.623217    0.000000
siesta:     62   -1.723673   -1.326721    0.000000
siesta:     63    0.177811 -414.241297    0.000000
siesta:     64   -2.307644    1.223451    0.000000
siesta:     65    1.462924   -1.475373    0.000000
siesta:     66   22.045320    2.131469    0.000000
siesta:     67   29.952332 -417.641351    0.000000
siesta:     68  -22.112704    2.185504    0.000000
siesta:     69  -29.551318 -418.087364    0.000000
siesta:     70   -3.289412    1.576664    0.000000
siesta:     71   -0.316777    0.078582    0.000000
siesta:     72   -0.157134  121.307890    0.000000
siesta: ----------------------------------------
siesta:    Tot   -0.156802   -0.217208    0.000000

siesta: Stress tensor (static) (eV/Ang**3):
siesta:    -0.358436   -0.001078    0.000000
siesta:    -0.001078   -1.287357    0.000000
siesta:     0.000000    0.000000   -0.000439

siesta: Cell volume =       1893.226884 Ang**3

siesta: Pressure (static):
siesta:                Solid            Molecule  Units
siesta:           0.00597652          0.08312858  Ry/Bohr**3
siesta:           0.54874414          7.63258311  eV/Ang**3
siesta:         879.19454400      12228.87849028  kBar
(Free)E+ p_basis*V_orbitals  =       -9093.999938
(Free)Eharris+ p_basis*V_orbitals  =       -9093.994145

siesta: Electric dipole (a.u.)  =    0.000000    0.000000    0.000000
siesta: Electric dipole (Debye) =    0.000000    0.000000    0.000000

* Maximum dynamic memory allocated : Node    0 =   258 MB
* Maximum dynamic memory allocated : Node    1 =    90 MB
* Maximum dynamic memory allocated : Node    2 =    93 MB
* Maximum dynamic memory allocated : Node    3 =   244 MB
* Maximum dynamic memory allocated : Node    4 =   226 MB
* Maximum dynamic memory allocated : Node    5 =    83 MB
* Maximum dynamic memory allocated : Node    6 =    84 MB
* Maximum dynamic memory allocated : Node    7 =   208 MB

* Maximum memory occured during matrixMtoO                    

timer: CPU execution times:
timer:  Routine       Calls   Time/call    Tot.time        %
timer:  siesta            1  246383.439  246383.439   100.00
timer:  Setup             1       3.053       3.053     0.00
timer:  bands             3     269.641     808.922     0.33
timer:  writewave         1       0.020       0.020     0.00
timer:  KSV_init          1       0.001       0.001     0.00
timer:  IterMD            1  245565.605  245565.605    99.67
timer:  hsparse           1       0.403       0.403     0.00
timer:  overlap           1       7.798       7.798     0.00
timer:  IterSCF          55    4460.026  245301.420    99.56
timer:  kinefsm           2       4.046       8.092     0.00
timer:  nlefsm            2      22.130      44.260     0.02
timer:  DHSCF            56     140.336    7858.790     3.19
timer:  DHSCF1            1       0.991       0.991     0.00
timer:  DHSCF2            1      47.243      47.243     0.02
timer:  REORD           450       0.010       4.530     0.00
timer:  POISON           57       2.239     127.648     0.05
timer:  DHSCF3           56     138.607    7762.003     3.15
timer:  rhoofd           56      28.033    1569.867     0.64
timer:  cellXC           56       3.500     195.982     0.08
timer:  vmat             56      67.650    3788.399     1.54
timer:  MolMec            2       0.000       0.000     0.00
timer:  diagon           55    4318.539  237519.640    96.40
timer:  c-eigval      12826       6.697   85893.280    34.86
timer:  c-buildHS     12826       0.123    1582.558     0.64
timer:  cdiag         25531       6.916  176579.990    71.67
timer:  cdiag1        25531       0.428   10921.055     4.43
timer:  cdiag2        25531       1.918   48970.765    19.88
timer:  cdiag3        25531       3.949  100813.987    40.92
timer:  cdiag4        25531       0.226    5771.906     2.34
timer:  c-eigvec      12705       7.333   93166.402    37.81
timer:  c-buildD      12705       4.659   59197.771    24.03
timer:  DHSCF4            1      45.717      45.717     0.02
timer:  dfscf             1      43.012      43.012     0.02
timer:  overfsm           1       0.477       0.477     0.00
timer:  optical           1       5.109       5.109     0.00
  

elaps: ELAPSED times:
elaps:  Routine       Calls   Time/call    Tot.time        %
elaps:  siesta            1   30833.727   30833.727   100.00
elaps:  Setup             1       0.381       0.381     0.00
elaps:  bands             3      33.757     101.270     0.33
elaps:  writewave         1       0.002       0.002     0.00
elaps:  KSV_init          1       0.000       0.000     0.00
elaps:  IterMD            1   30731.402   30731.402    99.67
elaps:  hsparse           1       0.050       0.050     0.00
elaps:  overlap           1       0.988       0.988     0.00
elaps:  IterSCF          55     558.152   30698.352    99.56
elaps:  kinefsm           2       0.511       1.021     0.00
elaps:  nlefsm            2       2.796       5.592     0.02
elaps:  DHSCF            56      17.671     989.550     3.21
elaps:  DHSCF1            1       0.127       0.127     0.00
elaps:  DHSCF2            1       5.911       5.911     0.02
elaps:  REORD           450       0.001       0.593     0.00
elaps:  POISON           57       0.281      15.989     0.05
elaps:  DHSCF3           56      17.340     971.040     3.15
elaps:  rhoofd           56       7.992     447.577     1.45
elaps:  cellXC           56       0.437      24.486     0.08
elaps:  vmat             56       8.463     473.904     1.54
elaps:  MolMec            2       0.000       0.000     0.00
elaps:  diagon           55     540.479   29726.334    96.41
elaps:  c-eigval      12826       0.838   10746.709    34.85
elaps:  c-buildHS     12826       0.017     219.193     0.71
elaps:  cdiag         25531       0.850   21692.904    70.35
elaps:  cdiag1        25531       0.053    1354.232     4.39
elaps:  cdiag2        25531       0.240    6127.278    19.87
elaps:  cdiag3        25531       0.495   12631.043    40.97
elaps:  cdiag4        25531       0.029     733.257     2.38
elaps:  c-eigvec      12705       0.890   11313.571    36.69
elaps:  c-buildD      12705       0.611    7757.151    25.16
elaps:  DHSCF4            1      12.073      12.073     0.04
elaps:  dfscf             1      11.524      11.524     0.04
elaps:  overfsm           1       0.063       0.063     0.00
elaps:  optical           1       0.000       0.000     0.00
  
>> End of run:  21-APR-2016  23:16:23
