Siesta Version:                                        siesta-3.2-pl-3
Architecture  : x86_64-unknown-linux-gnu--unknown
Compiler flags: mpiifort -g -O2 -fPIC -xSSE4.1 -fp-model source -shared-intel 
PARALLEL version

* Running on    8 nodes in parallel
>> Start of run:  30-APR-2016  13:48:32

                           ***********************       
                           *  WELCOME TO SIESTA  *       
                           ***********************       

reinit: Reading from standard input
************************** Dump of input data file ****************************
#(1) General system descriptors
SystemName            GRP_doping    # Descriptive name of the system
SystemLabel           GRP_doping    # Short name for naming files
%include STRUCT.fdf
%include KPT.fdf
%include BASIS.fdf
#%include TS.fdf # for transiesta calculation
#(4) DFT, Grid, SCF
XC.functional         GGA           # LDA or GGA (default = LDA)
XC.authors            PBE           # CA (Ceperley-Aldr) = PZ
                                    #    (Perdew-Zunger) - LDA - Default
                                    # PW92 (Perdew-Wang-92) - LDA
                                    # PBE (Perdew-Burke-Ernzerhof) - GGA
MeshCutoff            200.000000    Ry      # Default: 50.0 Ry ~ 0.444 Bohr
                                    #         100.0 Ry ~ 0.314 Bohr
MaxSCFIterations      500           # Default: 50
DM.MixingWeight       0.05          # Default: 0.25
DM.NumberPulay        10            # Default: 0
DM.PulayOnFile        F             # SystemLabel.P1, SystemLabel.P2
DM.Tolerance          1.d-4         # Default: 1.d-4
DM.UseSaveDM          .true.        # because of the bug
SCFMustConverge       .true.
NeglNonOverlapInt     F             # Default: F
#(5) Eigenvalue problem: order-N or diagonalization
SolutionMethod        Diagon        # or Transiesta
ElectronicTemperature 300.0 K       # Default: 300.0 K
#(6) Molecular dynamics and relaxations
#MD.TypeOfRun          CG            # Type of dynamics:
#MD.VariableCell       F
#MD.NumCGsteps         0           # 0 for single-point / 100 for gopt
#MD.MaxCGDispl         0.2 Bohr      # Default: 0.2 Bohr
#MD.MaxForceTol        0.02 eV/Ang   # Default: 0.04 eV/Ang
#MD.MaxStressTol       1.0 GPa       # Default: 1.0 GPa
# Geometry Constraints
#%block GeometryConstraints
#	position from 1 to 44
#%endblock GeometryConstraints
BandLinesScale   pi/a
%block BandLines
 1   0.00000000  0.00000000  0.00000000
50   0.00000000  0.07809418  0.00000000
50   0.04509075  0.07809242  0.00000000
20   0.00000000  0.00000000  0.00000000
%endblock BandLines
************************** End of input data file *****************************

reinit: -----------------------------------------------------------------------
reinit: System Name: GRP_doping
reinit: -----------------------------------------------------------------------
reinit: System Label: GRP_doping                                                  
reinit: -----------------------------------------------------------------------

initatom: Reading input for the pseudopotentials and atomic orbitals ----------
 Species number:            1  Label: B Atomic number:           5
 Species number:            2  Label: C Atomic number:           6
Ground state valence configuration:   2s02  2p01
Reading pseudopotential information in formatted form from B.psf

Valence configuration for pseudopotential generation:
2s( 2.00) rc: 1.74
2p( 1.00) rc: 1.74
3d( 0.00) rc: 1.74
4f( 0.00) rc: 1.74
Ground state valence configuration:   2s02  2p02
Reading pseudopotential information in formatted form from C.psf

Valence configuration for pseudopotential generation:
2s( 2.00) rc: 1.54
2p( 2.00) rc: 1.54
3d( 0.00) rc: 1.54
4f( 0.00) rc: 1.54
For B, standard SIESTA heuristics set lmxkb to 3
 (one more than the basis l, including polarization orbitals).
Use PS.lmax or PS.KBprojectors blocks to override.
For C, standard SIESTA heuristics set lmxkb to 3
 (one more than the basis l, including polarization orbitals).
Use PS.lmax or PS.KBprojectors blocks to override.

<basis_specs>
===============================================================================
B                    Z=   5    Mass=  10.810        Charge= 0.17977+309
Lmxo=1 Lmxkb= 3    BasisType=split      Semic=F
L=0  Nsemic=0  Cnfigmx=2
          n=1  nzeta=2  polorb=0
            splnorm:   0.15000    
               vcte:    0.0000    
               rinn:    0.0000    
                rcs:    0.0000      0.0000    
            lambdas:    1.0000      1.0000    
L=1  Nsemic=0  Cnfigmx=2
          n=1  nzeta=2  polorb=1
            splnorm:   0.15000    
               vcte:    0.0000    
               rinn:    0.0000    
                rcs:    0.0000      0.0000    
            lambdas:    1.0000      1.0000    
-------------------------------------------------------------------------------
L=0  Nkbl=1  erefs: 0.17977+309
L=1  Nkbl=1  erefs: 0.17977+309
L=2  Nkbl=1  erefs: 0.17977+309
L=3  Nkbl=1  erefs: 0.17977+309
===============================================================================
</basis_specs>

atom: Called for B                     (Z =   5)

read_vps: Pseudopotential generation method:
read_vps: ATM3      Troullier-Martins                       
Total valence charge:    3.00000

read_vps: Pseudopotential includes a core correction:
read_vps: Pseudo-core for xc-correction

xc_check: Exchange-correlation functional:
xc_check: GGA Perdew, Burke & Ernzerhof 1996
V l=0 = -2*Zval/r beyond r=  1.7165
V l=1 = -2*Zval/r beyond r=  1.7165
V l=2 = -2*Zval/r beyond r=  1.7165
V l=3 = -2*Zval/r beyond r=  1.6951
All V_l potentials equal beyond r=  1.7165
This should be close to max(r_c) in ps generation
All pots = -2*Zval/r beyond r=  1.7165

VLOCAL1: 99.0% of the norm of Vloc inside     14.733 Ry
VLOCAL1: 99.9% of the norm of Vloc inside     33.577 Ry
atom: Maximum radius for 4*pi*r*r*local-pseudopot. charge    2.04484
atom: Maximum radius for r*vlocal+2*Zval:    1.75994
GHOST: No ghost state for L =  0
GHOST: No ghost state for L =  1
GHOST: No ghost state for L =  2
GHOST: No ghost state for L =  3

KBgen: Kleinman-Bylander projectors: 
   l= 0   rc=  1.897051   el= -0.693730   Ekb=  4.595746   kbcos=  0.286105
   l= 1   rc=  1.920920   el= -0.265236   Ekb= -2.350715   kbcos= -0.315747
   l= 2   rc=  2.044840   el=  0.002055   Ekb= -0.690767   kbcos= -0.013822
   l= 3   rc=  2.149707   el=  0.003188   Ekb= -0.315358   kbcos= -0.002055

KBgen: Total number of  Kleinman-Bylander projectors:   16
atom: -------------------------------------------------------------------------

atom: SANKEY-TYPE ORBITALS:
atom: Selected multiple-zeta basis: split     

SPLIT: Orbitals with angular momentum L= 0

SPLIT: Basis orbitals for state 2s

SPLIT: PAO cut-off radius determined from an
SPLIT: energy shift=  0.007350 Ry

   izeta = 1
                 lambda =    1.000000
                     rc =    5.422032
                 energy =   -0.686029
                kinetic =    0.576707
    potential(screened) =   -1.262736
       potential(ionic) =   -3.271094

   izeta = 2
                 rmatch =    4.222573
              splitnorm =    0.150000
                 energy =   -0.602132
                kinetic =    0.858975
    potential(screened) =   -1.461107
       potential(ionic) =   -3.582536

SPLIT: Orbitals with angular momentum L= 1

SPLIT: Basis orbitals for state 2p

SPLIT: PAO cut-off radius determined from an
SPLIT: energy shift=  0.007350 Ry

   izeta = 1
                 lambda =    1.000000
                     rc =    6.790259
                 energy =   -0.258578
                kinetic =    1.481412
    potential(screened) =   -1.739989
       potential(ionic) =   -3.657461

   izeta = 2
                 rmatch =    4.608740
              splitnorm =    0.150000
                 energy =   -0.173757
                kinetic =    2.186690
    potential(screened) =   -2.360447
       potential(ionic) =   -4.464260

POLgen: Perturbative polarization orbital with L=  2

POLgen: Polarization orbital for state 2p

   izeta = 1
                     rc =    6.790259
                 energy =    0.684082
                kinetic =    1.471481
    potential(screened) =   -0.787399
       potential(ionic) =   -2.406985
atom: Total number of Sankey-type orbitals: 13

atm_pop: Valence configuration (for local Pseudopot. screening):
 2s( 2.00)                                                            
 2p( 1.00)                                                            
Vna: chval, zval:    3.00000   3.00000

Vna:  Cut-off radius for the neutral-atom potential:   6.790259
comcore: Pseudo-core radius Rcore=  2.122997

atom: _________________________________________________________________________

<basis_specs>
===============================================================================
C                    Z=   6    Mass=  12.010        Charge= 0.17977+309
Lmxo=1 Lmxkb= 3    BasisType=split      Semic=F
L=0  Nsemic=0  Cnfigmx=2
          n=1  nzeta=2  polorb=0
            splnorm:   0.15000    
               vcte:    0.0000    
               rinn:    0.0000    
                rcs:    0.0000      0.0000    
            lambdas:    1.0000      1.0000    
L=1  Nsemic=0  Cnfigmx=2
          n=1  nzeta=2  polorb=1
            splnorm:   0.15000    
               vcte:    0.0000    
               rinn:    0.0000    
                rcs:    0.0000      0.0000    
            lambdas:    1.0000      1.0000    
-------------------------------------------------------------------------------
L=0  Nkbl=1  erefs: 0.17977+309
L=1  Nkbl=1  erefs: 0.17977+309
L=2  Nkbl=1  erefs: 0.17977+309
L=3  Nkbl=1  erefs: 0.17977+309
===============================================================================
</basis_specs>

atom: Called for C                     (Z =   6)

read_vps: Pseudopotential generation method:
read_vps: ATM3      Troullier-Martins                       
Total valence charge:    4.00000

read_vps: Pseudopotential includes a core correction:
read_vps: Pseudo-core for xc-correction

xc_check: Exchange-correlation functional:
xc_check: GGA Perdew, Burke & Ernzerhof 1996
V l=0 = -2*Zval/r beyond r=  1.5227
V l=1 = -2*Zval/r beyond r=  1.5227
V l=2 = -2*Zval/r beyond r=  1.5227
V l=3 = -2*Zval/r beyond r=  1.5038
All V_l potentials equal beyond r=  1.5227
This should be close to max(r_c) in ps generation
All pots = -2*Zval/r beyond r=  1.5227

VLOCAL1: 99.0% of the norm of Vloc inside     18.722 Ry
VLOCAL1: 99.9% of the norm of Vloc inside     42.668 Ry
atom: Maximum radius for 4*pi*r*r*local-pseudopot. charge    1.83678
atom: Maximum radius for r*vlocal+2*Zval:    1.58088
GHOST: No ghost state for L =  0
GHOST: No ghost state for L =  1
GHOST: No ghost state for L =  2
GHOST: No ghost state for L =  3

KBgen: Kleinman-Bylander projectors: 
   l= 0   rc=  1.704034   el= -1.009801   Ekb=  5.335044   kbcos=  0.316824
   l= 1   rc=  1.704034   el= -0.388707   Ekb= -3.785862   kbcos= -0.366464
   l= 2   rc=  1.791422   el=  0.001971   Ekb= -0.970471   kbcos= -0.009212
   l= 3   rc=  1.859892   el=  0.003065   Ekb= -0.399525   kbcos= -0.001223

KBgen: Total number of  Kleinman-Bylander projectors:   16
atom: -------------------------------------------------------------------------

atom: SANKEY-TYPE ORBITALS:
atom: Selected multiple-zeta basis: split     

SPLIT: Orbitals with angular momentum L= 0

SPLIT: Basis orbitals for state 2s

SPLIT: PAO cut-off radius determined from an
SPLIT: energy shift=  0.007350 Ry

   izeta = 1
                 lambda =    1.000000
                     rc =    4.632753
                 energy =   -1.002270
                kinetic =    0.855760
    potential(screened) =   -1.858031
       potential(ionic) =   -5.417575

   izeta = 2
                 rmatch =    3.431921
              splitnorm =    0.150000
                 energy =   -0.867111
                kinetic =    1.300804
    potential(screened) =   -2.167915
       potential(ionic) =   -5.962684

SPLIT: Orbitals with angular momentum L= 1

SPLIT: Basis orbitals for state 2p

SPLIT: PAO cut-off radius determined from an
SPLIT: energy shift=  0.007350 Ry

   izeta = 1
                 lambda =    1.000000
                     rc =    5.658549
                 energy =   -0.381140
                kinetic =    2.399701
    potential(screened) =   -2.780841
       potential(ionic) =   -6.206085

   izeta = 2
                 rmatch =    3.653288
              splitnorm =    0.150000
                 energy =   -0.249149
                kinetic =    3.542762
    potential(screened) =   -3.791911
       potential(ionic) =   -7.581078

POLgen: Perturbative polarization orbital with L=  2

POLgen: Polarization orbital for state 2p

   izeta = 1
                     rc =    5.658549
                 energy =    1.109913
                kinetic =    2.304789
    potential(screened) =   -1.194876
       potential(ionic) =   -4.013592
atom: Total number of Sankey-type orbitals: 13

atm_pop: Valence configuration (for local Pseudopot. screening):
 2s( 2.00)                                                            
 2p( 2.00)                                                            
Vna: chval, zval:    4.00000   4.00000

Vna:  Cut-off radius for the neutral-atom potential:   5.658549
comcore: Pseudo-core radius Rcore=  1.791422

atom: _________________________________________________________________________

prinput: Basis input ----------------------------------------------------------

PAO.BasisType split     

%block ChemicalSpeciesLabel
    1    5 B                       # Species index, atomic number, species label
    2    6 C                       # Species index, atomic number, species label
%endblock ChemicalSpeciesLabel

%block PAO.Basis                 # Define Basis set
B                     2                    # Species label, number of l-shells
 n=2   0   2                         # n, l, Nzeta 
   5.422      4.223   
   1.000      1.000   
 n=2   1   2 P   1                   # n, l, Nzeta, Polarization, NzetaPol
   6.790      4.609   
   1.000      1.000   
C                     2                    # Species label, number of l-shells
 n=2   0   2                         # n, l, Nzeta 
   4.633      3.432   
   1.000      1.000   
 n=2   1   2 P   1                   # n, l, Nzeta, Polarization, NzetaPol
   5.659      3.653   
   1.000      1.000   
%endblock PAO.Basis

prinput: ----------------------------------------------------------------------

coor:   Atomic-coordinates input format  =     Fractional

siesta: Atomic coordinates (Bohr) and species
siesta:      9.28770  26.79272   0.00000  1        1
siesta:      9.28770  21.41544   0.00000  1        2
siesta:     11.61608  22.75985   0.00000  1        3
siesta:     11.61608  25.44831   0.00000  1        4
siesta:     -0.02582  13.34970   0.00000  1        5
siesta:      6.95932  22.75985   0.00000  1        6
siesta:      6.95932  25.44831   0.00000  1        7
siesta:     -2.35420  14.69411   0.00000  1        8
siesta:     -2.35420  17.38257   0.00000  1        9
siesta:     -9.33934  21.41544   0.00000  1       10
siesta:     -7.01096  22.75985   0.00000  1       11
siesta:     -7.01096  25.44831   0.00000  1       12
siesta:    -11.66772  22.75985   0.00000  1       13
siesta:    -11.66772  25.44831   0.00000  1       14
siesta:     -9.33934  26.79272   0.00000  1       15
siesta:      4.63094  29.48119   0.00000  1       16
siesta:      2.30256  30.82560   0.00000  1       17
siesta:      2.30256  33.51406   0.00000  1       18
siesta:     -0.02582  34.85847   0.00000  1       19
siesta:     -0.02582   2.59549   0.00000  2       20
siesta:     -0.02582   5.28395   0.00000  2       21
siesta:     -2.35420  38.89134   0.00000  2       22
siesta:     -2.35420  41.57980   0.00000  2       23
siesta:      2.30256  38.89134   0.00000  2       24
siesta:      2.30256  41.57980   0.00000  2       25
siesta:      4.63094  34.85847   0.00000  2       26
siesta:      4.63094  37.54693   0.00000  2       27
siesta:      6.95932  30.82560   0.00000  2       28
siesta:      6.95932  33.51406   0.00000  2       29
siesta:      9.28770  29.48119   0.00000  2       30
siesta:     -4.68258  34.85847   0.00000  2       31
siesta:     -4.68258  37.54693   0.00000  2       32
siesta:      2.30256   6.62836   0.00000  2       33
siesta:      2.30256   9.31683   0.00000  2       34
siesta:      4.63094  10.66124   0.00000  2       35
siesta:      4.63094  13.34970   0.00000  2       36
siesta:      6.95932  14.69411   0.00000  2       37
siesta:      6.95932  17.38257   0.00000  2       38
siesta:      9.28770  18.72698   0.00000  2       39
siesta:     -2.35420   6.62836   0.00000  2       40
siesta:     -2.35420   9.31683   0.00000  2       41
siesta:     -0.02582  10.66124   0.00000  2       42
siesta:      2.30256  14.69411   0.00000  2       43
siesta:      2.30256  17.38257   0.00000  2       44
siesta:      4.63094  18.72698   0.00000  2       45
siesta:      4.63094  21.41544   0.00000  2       46
siesta:     -4.68258  10.66124   0.00000  2       47
siesta:     -4.68258  13.34970   0.00000  2       48
siesta:     -0.02582  18.72698   0.00000  2       49
siesta:     -0.02582  21.41544   0.00000  2       50
siesta:      2.30256  22.75985   0.00000  2       51
siesta:      2.30256  25.44831   0.00000  2       52
siesta:     -7.01096  14.69411   0.00000  2       53
siesta:     -7.01096  17.38257   0.00000  2       54
siesta:     -4.68258  18.72698   0.00000  2       55
siesta:     -4.68258  21.41544   0.00000  2       56
siesta:     -2.35420  22.75985   0.00000  2       57
siesta:     -2.35420  25.44831   0.00000  2       58
siesta:     -9.33934  18.72698   0.00000  2       59
siesta:     -9.33934  29.48119   0.00000  2       60
siesta:      4.63094  26.79272   0.00000  2       61
siesta:     -0.02582  26.79272   0.00000  2       62
siesta:     -0.02582  29.48119   0.00000  2       63
siesta:     -4.68258  26.79272   0.00000  2       64
siesta:     -4.68258  29.48119   0.00000  2       65
siesta:     -2.35420  30.82560   0.00000  2       66
siesta:     -2.35420  33.51406   0.00000  2       67
siesta:     -7.01096  30.82560   0.00000  2       68
siesta:     -7.01096  33.51406   0.00000  2       69
siesta:     -0.02582  37.54693   0.00000  2       70
siesta:     -0.02582  42.92421   0.00000  2       71
siesta:     -0.02582  45.61267   0.00000  2       72

siesta: System type = slab      

initatomlists: Number of atoms, orbitals, and projectors:     72   936  1152

siesta: ******************** Simulation parameters ****************************
siesta:
siesta: The following are some of the parameters of the simulation.
siesta: A complete list of the parameters used, including default values,
siesta: can be found in file out.fdf
siesta:
redata: Non-Collinear-spin run           =     F
redata: SpinPolarized (Up/Down) run      =     F
redata: Number of spin components        =     1
redata: Long output                      =     F
redata: Number of Atomic Species         =        2
redata: Charge density info will appear in .RHO file
redata: Write Mulliken Pop.              =     NO
redata: Mesh Cutoff                      =   200.0000  Ry
redata: Net charge of the system         =     0.0000 |e|
redata: Max. number of SCF Iter          =      500
redata: SCF convergence failure will abort job
redata: Performing Pulay mixing using    =    10 iterations
redata: Mix DM in first SCF step ?       =     F
redata: Write Pulay info on disk?        =     F
redata: Discard 1st Pulay DM after  kick =     F
redata: New DM Mixing Weight             =     0.0500
redata: New DM Occupancy tolerance       = 0.000000000001
redata: No kicks to SCF
redata: DM Mixing Weight for Kicks       =     0.5000
redata: DM Tolerance for SCF             =     0.000100
redata: Require Energy convergence for SCF =     F
redata: DM Energy tolerance for SCF      =     0.000100 eV
redata: Require Harris convergence for SCF =     F
redata: DM Harris energy tolerance for SCF =     0.000100 eV
redata: Using Saved Data (generic)   =     F
redata: Use continuation files for DM    =     T
redata: Neglect nonoverlap interactions  =     F
redata: Method of Calculation            =     Diagonalization
redata: Divide and Conquer               =     T
redata: Electronic Temperature           =     0.0019  Ry
redata: Fix the spin of the system       =     F
redata: Dynamics option                  =     Verlet MD run
redata: Initial MD time step             =        1
redata:   Final MD time step             =        1
redata: Length of MD time step           =     1.0000  fs
redata: Initial Temperature of MD run    =     0.0000  K
redata: Perform a MD quench              =     F
redata: ***********************************************************************
Total number of electrons:   269.000000
Total ionic charge:   269.000000

* ProcessorY, Blocksize:    2  24

k-point displ. along   1 input, could be:     0.50    0.00
k-point displ. along   2 input, could be:     0.50    0.00
 Kpoints in:          231 . Kpoints trimmed:          231

siesta: k-grid: Number of k-points =   231
siesta: k-grid: Cutoff (effective) =     5.000 Ang
siesta: k-grid: Supercell and displacements
siesta: k-grid:   21   0   0      0.500
siesta: k-grid:    0  21   0      0.500
siesta: k-grid:    0   0   1      0.000
Naive supercell factors:     2    2    2

superc: Internal auxiliary supercell:     2 x     2 x     2  =       8
superc: Number of atoms, orbitals, and projectors:    576   7488   9216

* Maximum dynamic memory allocated =     4 MB

siesta:                 ==============================
                            Begin MD step =      1
                        ==============================

superc: Internal auxiliary supercell:     2 x     2 x     2  =       8
superc: Number of atoms, orbitals, and projectors:    576   7488   9216

outcell: Unit cell vectors (Ang):
       12.804619    7.392750    0.000000
        0.000000   14.785500    0.000000
        0.000000    0.000000   10.000000

outcell: Cell vector modules (Ang)   :   14.785500   14.785500   10.000000
outcell: Cell angles (23,13,12) (deg):     90.0000     90.0000     60.0000
outcell: Cell volume (Ang**3)        :   1893.2269
New_DM. Step:     1
Initializing Density Matrix...

InitMesh: MESH =   120 x   120 x    90 =     1296000
InitMesh: Mesh cutoff (required, used) =   200.000   223.865 Ry

* Maximum dynamic memory allocated =   222 MB

stepf: Fermi-Dirac step function

siesta: Program's energy decomposition (eV):
siesta: Ebs     =     -5574.536634
siesta: Eions   =     15969.933558
siesta: Ena     =      4278.504148
siesta: Ekin    =      5376.155659
siesta: Enl     =       800.179272
siesta: DEna    =        -0.000009
siesta: DUscf   =         0.000000
siesta: DUext   =         0.000000
siesta: Exc     =     -4200.241177
siesta: eta*DQ  =         0.000000
siesta: Emadel  =         0.000000
siesta: Emeta   =         0.000000
siesta: Emolmec =         0.000000
siesta: Ekinion =         0.000000
siesta: Eharris =     -9462.411090
siesta: Etot    =     -9715.335664
siesta: FreeEng =     -9715.335664

siesta: iscf   Eharris(eV)      E_KS(eV)   FreeEng(eV)   dDmax  Ef(eV)
siesta:    1    -9462.4111    -9715.3357    -9715.3357  6.4570 -8.2002
timer: Routine,Calls,Time,% = IterSCF        1    4533.723  99.72
elaps: Routine,Calls,Wall,% = IterSCF        1     567.508  99.72
siesta:    2   -12693.4043    -8811.2107    -8811.2699 15.9293 -1.7667
siesta:    3    -9426.2694    -9526.1707    -9526.2110  2.1112 -6.1795
siesta:    4    -9384.7537    -9450.5933    -9450.6279  1.4108 -5.5060
siesta:    5    -9352.4879    -9394.0583    -9394.0751  1.1497 -4.8704
siesta:    6    -9320.1302    -9358.0420    -9358.0882  0.7608 -4.8055
siesta:    7    -9313.8420    -9342.1280    -9342.1761  0.7752 -4.7892
siesta:    8    -9311.4625    -9335.1378    -9335.1925  0.7955 -4.8615
siesta:    9    -9307.2370    -9319.9374    -9320.0085  0.6236 -4.9383
siesta:   10    -9307.0542    -9306.6476    -9306.6809  0.3903 -4.9810
siesta:   11    -9307.7630    -9295.0208    -9295.0803  0.2302 -4.9511
siesta:   12    -9305.4867    -9291.6824    -9291.7550  0.1863 -4.9317
siesta:   13    -9305.4852    -9289.3931    -9289.4442  0.2752 -4.9641
siesta:   14    -9305.1285    -9292.4084    -9292.4626  0.2623 -4.9111
siesta:   15    -9304.7929    -9296.0370    -9296.0871  0.1062 -4.9290
siesta:   16    -9304.7623    -9299.3341    -9299.3875  0.0811 -4.9153
siesta:   17    -9304.6589    -9300.2021    -9300.2558  0.0387 -4.9444
siesta:   18    -9304.6306    -9301.0310    -9301.0861  0.0312 -4.9489
siesta:   19    -9304.6147    -9303.1671    -9303.2198  0.0247 -4.9624
siesta:   20    -9304.6108    -9303.8532    -9303.9095  0.0184 -4.9609
siesta:   21    -9304.6047    -9304.7140    -9304.7680  0.0145 -4.9679
siesta:   22    -9304.6018    -9305.1074    -9305.1629  0.0148 -4.9683
siesta:   23    -9304.6011    -9305.4171    -9305.4726  0.0103 -4.9593
siesta:   24    -9304.6008    -9305.4932    -9305.5488  0.0071 -4.9560
siesta:   25    -9304.5998    -9305.2452    -9305.3008  0.0038 -4.9563
siesta:   26    -9304.5996    -9304.9892    -9305.0452  0.0031 -4.9563
siesta:   27    -9304.5995    -9304.8973    -9304.9530  0.0026 -4.9568
siesta:   28    -9304.5995    -9304.8583    -9304.9140  0.0017 -4.9567
siesta:   29    -9304.5995    -9304.7226    -9304.7783  0.0014 -4.9562
siesta:   30    -9304.5995    -9304.6742    -9304.7300  0.0006 -4.9565
siesta:   31    -9304.5995    -9304.6499    -9304.7056  0.0004 -4.9569
siesta:   32    -9304.5995    -9304.6288    -9304.6845  0.0004 -4.9571
siesta:   33    -9304.5995    -9304.6113    -9304.6671  0.0002 -4.9571
siesta:   34    -9304.5995    -9304.6005    -9304.6562  0.0002 -4.9572
siesta:   35    -9304.5995    -9304.5970    -9304.6527  0.0002 -4.9572
siesta:   36    -9304.5995    -9304.5980    -9304.6537  0.0002 -4.9571
siesta:   37    -9304.5995    -9304.6000    -9304.6557  0.0001 -4.9571
siesta:   38    -9304.5995    -9304.5983    -9304.6540  0.0001 -4.9572

siesta: E_KS(eV) =            -9304.5967

siesta: E_KS - E_eggbox =     -9304.5967

siesta: Atomic forces (eV/Ang):
----------------------------------------
   Tot   -0.067538    0.061445    0.000000
----------------------------------------
   Max  558.544893
   Res  153.025349    sqrt( Sum f_i^2 / 3N )
----------------------------------------
   Max  558.544893    constrained

Stress-tensor-Voigt (kbar):     -778.23    -2766.22       -0.61       17.71        0.00        0.00
(Free)E + p*V (eV/cell)    -7908.3188
Target enthalpy (eV/cell)    -9304.6524

siesta: Stress tensor (static) (eV/Ang**3):
        -0.485725    0.011052    0.000000
         0.011052   -1.726519    0.000000
         0.000000    0.000000   -0.000381

siesta: Pressure (static):       1181.68473763  kBar

siesta: Stress tensor (total) (eV/Ang**3):
        -0.485725    0.011052    0.000000
         0.011052   -1.726519    0.000000
         0.000000    0.000000   -0.000381

siesta: Pressure (total):       1181.68473763  kBar

siesta: Temp_ion =       0.000 K

* Maximum dynamic memory allocated =   238 MB
Computing bands...

siesta: Program's energy decomposition (eV):
siesta: Ebs     =     -4195.781274
siesta: Eions   =     15969.933558
siesta: Ena     =      4278.504148
siesta: Ekin    =      8275.360067
siesta: Enl     =      -818.410915
siesta: DEna    =      -804.780548
siesta: DUscf   =       109.857403
siesta: DUext   =         0.000000
siesta: Exc     =     -4375.193298
siesta: eta*DQ  =         0.000000
siesta: Emadel  =         0.000000
siesta: Emeta   =         0.000000
siesta: Emolmec =         0.000000
siesta: Ekinion =         0.000000
siesta: Eharris =     -9304.599480
siesta: Etot    =     -9304.596701
siesta: FreeEng =     -9304.652413

siesta: Final energy (eV):
siesta:  Band Struct. =   -4195.781274
siesta:       Kinetic =    8275.360067
siesta:       Hartree =   27487.521794
siesta:    Ext. field =       0.000000
siesta:   Exch.-corr. =   -4375.193298
siesta:  Ion-electron =  -62963.985024
siesta:       Ion-ion =   22271.699760
siesta:       Ekinion =       0.000000
siesta:         Total =   -9304.596701

siesta: Atomic forces (eV/Ang):
siesta:      1    4.972099    6.504251    0.000000
siesta:      2    5.587644   -6.103182    0.000000
siesta:      3    6.162152   -2.644088    0.000000
siesta:      4    6.421186    2.234054    0.000000
siesta:      5   -1.294072 -107.820718    0.000000
siesta:      6   -5.234575   -3.293950    0.000000
siesta:      7   -4.749149    3.038579    0.000000
siesta:      8  -19.319356  397.426302    0.000000
siesta:      9  -19.642191   -1.009570    0.000000
siesta:     10   -4.978686   -6.446954    0.000000
siesta:     11    5.028217   -3.120905    0.000000
siesta:     12    4.815641    3.039040    0.000000
siesta:     13   -6.363476   -2.210355    0.000000
siesta:     14   -6.090209    2.669622    0.000000
siesta:     15   -5.457206    6.335315    0.000000
siesta:     16    1.126834   -1.850511    0.000000
siesta:     17   15.415755    2.458253    0.000000
siesta:     18   17.899404 -398.024340    0.000000
siesta:     19    1.347581  107.063093    0.000000
siesta:     20   -7.272969  548.676362    0.000000
siesta:     21   10.596652 -134.125189    0.000000
siesta:     22    4.019184  124.182532    0.000000
siesta:     23  -17.009533 -404.335697    0.000000
siesta:     24   -2.937258  127.024302    0.000000
siesta:     25   25.987219 -555.076606    0.000000
siesta:     26   24.903423   -0.481239    0.000000
siesta:     27   29.870751 -550.572318    0.000000
siesta:     28    7.293889    3.454271    0.000000
siesta:     29   -2.330344    2.546755    0.000000
siesta:     30   -4.291451    1.345799    0.000000
siesta:     31  -26.037328    4.756879    0.000000
siesta:     32  -35.001202 -551.132167    0.000000
siesta:     33   18.174631  404.530620    0.000000
siesta:     34   -3.963139 -123.723325    0.000000
siesta:     35   34.944859  551.248100    0.000000
siesta:     36   26.141796   -4.763507    0.000000
siesta:     37   -2.199624   -1.892938    0.000000
siesta:     38    2.457507   -1.682004    0.000000
siesta:     39   -3.180358   -1.288338    0.000000
siesta:     40  -25.800299  554.781635    0.000000
siesta:     41    2.794082 -127.305715    0.000000
siesta:     42   -6.951430  554.654422    0.000000
siesta:     43   16.886248  552.219670    0.000000
siesta:     44   22.101554   -7.503267    0.000000
siesta:     45   -1.213009    2.857949    0.000000
siesta:     46   -1.794515   -1.871087    0.000000
siesta:     47  -29.765267  550.447302    0.000000
siesta:     48  -24.883785    1.035580    0.000000
siesta:     49   -4.844984  557.992412    0.000000
siesta:     50    0.770538    2.251539    0.000000
siesta:     51   -1.484169   -1.208963    0.000000
siesta:     52   -0.290227    0.807159    0.000000
siesta:     53    1.997909   -2.666327    0.000000
siesta:     54   -3.324466   -1.171429    0.000000
siesta:     55    0.388215    2.050792    0.000000
siesta:     56    1.602205   -0.976508    0.000000
siesta:     57    0.557278   -0.805787    0.000000
siesta:     58    1.397643    0.815332    0.000000
siesta:     59    3.875177   -1.573339    0.000000
siesta:     60    3.194444    1.237740    0.000000
siesta:     61   -2.316546   -2.385371    0.000000
siesta:     62   -0.870068   -2.317923    0.000000
siesta:     63    6.415194 -558.544893    0.000000
siesta:     64    1.694311    1.976904    0.000000
siesta:     65    1.301548   -2.981931    0.000000
siesta:     66  -22.159243    8.133550    0.000000
siesta:     67  -17.366122 -552.085422    0.000000
siesta:     68   -2.583195    1.779774    0.000000
siesta:     69    2.254558    1.922369    0.000000
siesta:     70    7.060969 -554.463165    0.000000
siesta:     71  -10.159183  134.060232    0.000000
siesta:     72    5.632797 -548.038019    0.000000
siesta: ----------------------------------------
siesta:    Tot   -0.067538    0.061445    0.000000

siesta: Stress tensor (static) (eV/Ang**3):
siesta:    -0.485725    0.011052    0.000000
siesta:     0.011052   -1.726519    0.000000
siesta:     0.000000    0.000000   -0.000381

siesta: Cell volume =       1893.226884 Ang**3

siesta: Pressure (static):
siesta:                Solid            Molecule  Units
siesta:           0.00803277          0.11813981  Ry/Bohr**3
siesta:           0.73754163         10.84719513  eV/Ang**3
siesta:        1181.68473763      17379.31043759  kBar
(Free)E+ p_basis*V_orbitals  =       -9267.911681
(Free)Eharris+ p_basis*V_orbitals  =       -9267.912827

siesta: Electric dipole (a.u.)  =    0.000000    0.000000    0.000000
siesta: Electric dipole (Debye) =    0.000000    0.000000    0.000000

* Maximum dynamic memory allocated : Node    0 =   238 MB
* Maximum dynamic memory allocated : Node    1 =    84 MB
* Maximum dynamic memory allocated : Node    2 =    86 MB
* Maximum dynamic memory allocated : Node    3 =   226 MB
* Maximum dynamic memory allocated : Node    4 =   227 MB
* Maximum dynamic memory allocated : Node    5 =    82 MB
* Maximum dynamic memory allocated : Node    6 =    86 MB
* Maximum dynamic memory allocated : Node    7 =   209 MB

* Maximum memory occured during matrixMtoO                    

timer: CPU execution times:
timer:  Routine       Calls   Time/call    Tot.time        %
timer:  siesta            1  169391.933  169391.933   100.00
timer:  Setup             1       3.916       3.916     0.00
timer:  bands             3     269.289     807.868     0.48
timer:  writewave         1       0.044       0.044     0.00
timer:  KSV_init          1       0.005       0.005     0.00
timer:  IterMD            1  168574.435  168574.435    99.52
timer:  hsparse           1       0.399       0.399     0.00
timer:  overlap           1       7.790       7.790     0.00
timer:  IterSCF          38    4430.233  168348.864    99.38
timer:  kinefsm           2       4.036       8.073     0.00
timer:  nlefsm            2      21.702      43.403     0.03
timer:  DHSCF            39     118.327    4614.751     2.72
timer:  DHSCF1            1       0.998       0.998     0.00
timer:  DHSCF2            1      44.758      44.758     0.03
timer:  REORD           314       0.010       3.103     0.00
timer:  POISON           40       2.238      89.501     0.05
timer:  DHSCF3           39     116.023    4524.912     2.67
timer:  rhoofd           39      24.491     955.133     0.56
timer:  cellXC           39       3.470     135.332     0.08
timer:  vmat             39      57.555    2244.630     1.33
timer:  MolMec            2       0.000       0.000     0.00
timer:  diagon           38    4310.199  163787.552    96.69
timer:  c-eigval       8899       6.676   59409.314    35.07
timer:  c-buildHS      8899       0.123    1093.949     0.65
timer:  cdiag         17677       6.904  122040.717    72.05
timer:  cdiag1        17677       0.428    7573.283     4.47
timer:  cdiag2        17677       1.913   33808.003    19.96
timer:  cdiag3        17677       3.937   69586.283    41.08
timer:  cdiag4        17677       0.226    4001.876     2.36
timer:  c-eigvec       8778       7.323   64285.623    37.95
timer:  c-buildD       8778       4.654   40852.069    24.12
timer:  DHSCF4            1      41.994      41.994     0.02
timer:  dfscf             1      39.299      39.299     0.02
timer:  overfsm           1       0.480       0.480     0.00
timer:  optical           1       5.012       5.012     0.00
  

elaps: ELAPSED times:
elaps:  Routine       Calls   Time/call    Tot.time        %
elaps:  siesta            1   21199.894   21199.894   100.00
elaps:  Setup             1       0.506       0.506     0.00
elaps:  bands             3      33.714     101.141     0.48
elaps:  writewave         1       0.006       0.006     0.00
elaps:  KSV_init          1       0.001       0.001     0.00
elaps:  IterMD            1   21097.585   21097.585    99.52
elaps:  hsparse           1       0.050       0.050     0.00
elaps:  overlap           1       0.976       0.976     0.00
elaps:  IterSCF          38     554.461   21069.505    99.38
elaps:  kinefsm           2       0.508       1.015     0.00
elaps:  nlefsm            2       2.627       5.253     0.02
elaps:  DHSCF            39      14.940     582.667     2.75
elaps:  DHSCF1            1       0.126       0.126     0.00
elaps:  DHSCF2            1       5.600       5.600     0.03
elaps:  REORD           314       0.001       0.411     0.00
elaps:  POISON           40       0.281      11.222     0.05
elaps:  DHSCF3           39      14.515     566.079     2.67
elaps:  rhoofd           39       6.545     255.273     1.20
elaps:  cellXC           39       0.434      16.915     0.08
elaps:  vmat             39       7.200     280.798     1.32
elaps:  MolMec            2       0.000       0.000     0.00
elaps:  diagon           38     539.453   20499.214    96.69
elaps:  c-eigval       8899       0.835    7433.296    35.06
elaps:  c-buildHS      8899       0.017     148.289     0.70
elaps:  cdiag         17677       0.851   15038.169    70.94
elaps:  cdiag1        17677       0.053     936.372     4.42
elaps:  cdiag2        17677       0.239    4230.541    19.96
elaps:  cdiag3        17677       0.493    8718.534    41.13
elaps:  cdiag4        17677       0.029     505.855     2.39
elaps:  c-eigvec       8778       0.894    7851.090    37.03
elaps:  c-buildD       8778       0.605    5308.967    25.04
elaps:  DHSCF4            1      10.576      10.576     0.05
elaps:  dfscf             1      10.054      10.054     0.05
elaps:  overfsm           1       0.058       0.058     0.00
elaps:  optical           1       0.001       0.001     0.00
  
>> End of run:  30-APR-2016  19:41:52
