Siesta Version:                                        siesta-3.2-pl-3
Architecture  : x86_64-unknown-linux-gnu--unknown
Compiler flags: mpiifort -g -O2 -fPIC -xSSE4.1 -fp-model source -shared-intel 
PARALLEL version

* Running on    8 nodes in parallel
>> Start of run:  18-APR-2016  18:53:55

                           ***********************       
                           *  WELCOME TO SIESTA  *       
                           ***********************       

reinit: Reading from standard input
************************** Dump of input data file ****************************
#(1) General system descriptors
SystemName            GRP_doping    # Descriptive name of the system
SystemLabel           GRP_doping    # Short name for naming files
%include STRUCT.fdf
%include KPT.fdf
%include BASIS.fdf
#%include TS.fdf # for transiesta calculation
#(4) DFT, Grid, SCF
XC.functional         GGA           # LDA or GGA (default = LDA)
XC.authors            PBE           # CA (Ceperley-Aldr) = PZ
                                    #    (Perdew-Zunger) - LDA - Default
                                    # PW92 (Perdew-Wang-92) - LDA
                                    # PBE (Perdew-Burke-Ernzerhof) - GGA
MeshCutoff            200.000000    Ry      # Default: 50.0 Ry ~ 0.444 Bohr
                                    #         100.0 Ry ~ 0.314 Bohr
MaxSCFIterations      500           # Default: 50
DM.MixingWeight       0.05          # Default: 0.25
DM.NumberPulay        10            # Default: 0
DM.PulayOnFile        F             # SystemLabel.P1, SystemLabel.P2
DM.Tolerance          1.d-4         # Default: 1.d-4
DM.UseSaveDM          .true.        # because of the bug
SCFMustConverge       .true.
NeglNonOverlapInt     F             # Default: F
#(5) Eigenvalue problem: order-N or diagonalization
SolutionMethod        Diagon        # or Transiesta
ElectronicTemperature 300.0 K       # Default: 300.0 K
#(6) Molecular dynamics and relaxations
#MD.TypeOfRun          CG            # Type of dynamics:
#MD.VariableCell       F
#MD.NumCGsteps         0           # 0 for single-point / 100 for gopt
#MD.MaxCGDispl         0.2 Bohr      # Default: 0.2 Bohr
#MD.MaxForceTol        0.02 eV/Ang   # Default: 0.04 eV/Ang
#MD.MaxStressTol       1.0 GPa       # Default: 1.0 GPa
# Geometry Constraints
#%block GeometryConstraints
#	position from 1 to 44
#%endblock GeometryConstraints
BandLinesScale   pi/a
%block BandLines
 1   0.00000000  0.00000000  0.00000000
50   0.00000000  0.07809418  0.00000000
50   0.04509075  0.07809242  0.00000000
20   0.00000000  0.00000000  0.00000000
%endblock BandLines
************************** End of input data file *****************************

reinit: -----------------------------------------------------------------------
reinit: System Name: GRP_doping
reinit: -----------------------------------------------------------------------
reinit: System Label: GRP_doping                                                  
reinit: -----------------------------------------------------------------------

initatom: Reading input for the pseudopotentials and atomic orbitals ----------
 Species number:            1  Label: B Atomic number:           5
 Species number:            2  Label: C Atomic number:           6
Ground state valence configuration:   2s02  2p01
Reading pseudopotential information in formatted form from B.psf

Valence configuration for pseudopotential generation:
2s( 2.00) rc: 1.74
2p( 1.00) rc: 1.74
3d( 0.00) rc: 1.74
4f( 0.00) rc: 1.74
Ground state valence configuration:   2s02  2p02
Reading pseudopotential information in formatted form from C.psf

Valence configuration for pseudopotential generation:
2s( 2.00) rc: 1.54
2p( 2.00) rc: 1.54
3d( 0.00) rc: 1.54
4f( 0.00) rc: 1.54
For B, standard SIESTA heuristics set lmxkb to 3
 (one more than the basis l, including polarization orbitals).
Use PS.lmax or PS.KBprojectors blocks to override.
For C, standard SIESTA heuristics set lmxkb to 3
 (one more than the basis l, including polarization orbitals).
Use PS.lmax or PS.KBprojectors blocks to override.

<basis_specs>
===============================================================================
B                    Z=   5    Mass=  10.810        Charge= 0.17977+309
Lmxo=1 Lmxkb= 3    BasisType=split      Semic=F
L=0  Nsemic=0  Cnfigmx=2
          n=1  nzeta=2  polorb=0
            splnorm:   0.15000    
               vcte:    0.0000    
               rinn:    0.0000    
                rcs:    0.0000      0.0000    
            lambdas:    1.0000      1.0000    
L=1  Nsemic=0  Cnfigmx=2
          n=1  nzeta=2  polorb=1
            splnorm:   0.15000    
               vcte:    0.0000    
               rinn:    0.0000    
                rcs:    0.0000      0.0000    
            lambdas:    1.0000      1.0000    
-------------------------------------------------------------------------------
L=0  Nkbl=1  erefs: 0.17977+309
L=1  Nkbl=1  erefs: 0.17977+309
L=2  Nkbl=1  erefs: 0.17977+309
L=3  Nkbl=1  erefs: 0.17977+309
===============================================================================
</basis_specs>

atom: Called for B                     (Z =   5)

read_vps: Pseudopotential generation method:
read_vps: ATM3      Troullier-Martins                       
Total valence charge:    3.00000

read_vps: Pseudopotential includes a core correction:
read_vps: Pseudo-core for xc-correction

xc_check: Exchange-correlation functional:
xc_check: GGA Perdew, Burke & Ernzerhof 1996
V l=0 = -2*Zval/r beyond r=  1.7165
V l=1 = -2*Zval/r beyond r=  1.7165
V l=2 = -2*Zval/r beyond r=  1.7165
V l=3 = -2*Zval/r beyond r=  1.6951
All V_l potentials equal beyond r=  1.7165
This should be close to max(r_c) in ps generation
All pots = -2*Zval/r beyond r=  1.7165

VLOCAL1: 99.0% of the norm of Vloc inside     14.733 Ry
VLOCAL1: 99.9% of the norm of Vloc inside     33.577 Ry
atom: Maximum radius for 4*pi*r*r*local-pseudopot. charge    2.04484
atom: Maximum radius for r*vlocal+2*Zval:    1.75994
GHOST: No ghost state for L =  0
GHOST: No ghost state for L =  1
GHOST: No ghost state for L =  2
GHOST: No ghost state for L =  3

KBgen: Kleinman-Bylander projectors: 
   l= 0   rc=  1.897051   el= -0.693730   Ekb=  4.595746   kbcos=  0.286105
   l= 1   rc=  1.920920   el= -0.265236   Ekb= -2.350715   kbcos= -0.315747
   l= 2   rc=  2.044840   el=  0.002055   Ekb= -0.690767   kbcos= -0.013822
   l= 3   rc=  2.149707   el=  0.003188   Ekb= -0.315358   kbcos= -0.002055

KBgen: Total number of  Kleinman-Bylander projectors:   16
atom: -------------------------------------------------------------------------

atom: SANKEY-TYPE ORBITALS:
atom: Selected multiple-zeta basis: split     

SPLIT: Orbitals with angular momentum L= 0

SPLIT: Basis orbitals for state 2s

SPLIT: PAO cut-off radius determined from an
SPLIT: energy shift=  0.007350 Ry

   izeta = 1
                 lambda =    1.000000
                     rc =    5.422032
                 energy =   -0.686029
                kinetic =    0.576707
    potential(screened) =   -1.262736
       potential(ionic) =   -3.271094

   izeta = 2
                 rmatch =    4.222573
              splitnorm =    0.150000
                 energy =   -0.602132
                kinetic =    0.858975
    potential(screened) =   -1.461107
       potential(ionic) =   -3.582536

SPLIT: Orbitals with angular momentum L= 1

SPLIT: Basis orbitals for state 2p

SPLIT: PAO cut-off radius determined from an
SPLIT: energy shift=  0.007350 Ry

   izeta = 1
                 lambda =    1.000000
                     rc =    6.790259
                 energy =   -0.258578
                kinetic =    1.481412
    potential(screened) =   -1.739989
       potential(ionic) =   -3.657461

   izeta = 2
                 rmatch =    4.608740
              splitnorm =    0.150000
                 energy =   -0.173757
                kinetic =    2.186690
    potential(screened) =   -2.360447
       potential(ionic) =   -4.464260

POLgen: Perturbative polarization orbital with L=  2

POLgen: Polarization orbital for state 2p

   izeta = 1
                     rc =    6.790259
                 energy =    0.684082
                kinetic =    1.471481
    potential(screened) =   -0.787399
       potential(ionic) =   -2.406985
atom: Total number of Sankey-type orbitals: 13

atm_pop: Valence configuration (for local Pseudopot. screening):
 2s( 2.00)                                                            
 2p( 1.00)                                                            
Vna: chval, zval:    3.00000   3.00000

Vna:  Cut-off radius for the neutral-atom potential:   6.790259
comcore: Pseudo-core radius Rcore=  2.122997

atom: _________________________________________________________________________

<basis_specs>
===============================================================================
C                    Z=   6    Mass=  12.010        Charge= 0.17977+309
Lmxo=1 Lmxkb= 3    BasisType=split      Semic=F
L=0  Nsemic=0  Cnfigmx=2
          n=1  nzeta=2  polorb=0
            splnorm:   0.15000    
               vcte:    0.0000    
               rinn:    0.0000    
                rcs:    0.0000      0.0000    
            lambdas:    1.0000      1.0000    
L=1  Nsemic=0  Cnfigmx=2
          n=1  nzeta=2  polorb=1
            splnorm:   0.15000    
               vcte:    0.0000    
               rinn:    0.0000    
                rcs:    0.0000      0.0000    
            lambdas:    1.0000      1.0000    
-------------------------------------------------------------------------------
L=0  Nkbl=1  erefs: 0.17977+309
L=1  Nkbl=1  erefs: 0.17977+309
L=2  Nkbl=1  erefs: 0.17977+309
L=3  Nkbl=1  erefs: 0.17977+309
===============================================================================
</basis_specs>

atom: Called for C                     (Z =   6)

read_vps: Pseudopotential generation method:
read_vps: ATM3      Troullier-Martins                       
Total valence charge:    4.00000

read_vps: Pseudopotential includes a core correction:
read_vps: Pseudo-core for xc-correction

xc_check: Exchange-correlation functional:
xc_check: GGA Perdew, Burke & Ernzerhof 1996
V l=0 = -2*Zval/r beyond r=  1.5227
V l=1 = -2*Zval/r beyond r=  1.5227
V l=2 = -2*Zval/r beyond r=  1.5227
V l=3 = -2*Zval/r beyond r=  1.5038
All V_l potentials equal beyond r=  1.5227
This should be close to max(r_c) in ps generation
All pots = -2*Zval/r beyond r=  1.5227

VLOCAL1: 99.0% of the norm of Vloc inside     18.722 Ry
VLOCAL1: 99.9% of the norm of Vloc inside     42.668 Ry
atom: Maximum radius for 4*pi*r*r*local-pseudopot. charge    1.83678
atom: Maximum radius for r*vlocal+2*Zval:    1.58088
GHOST: No ghost state for L =  0
GHOST: No ghost state for L =  1
GHOST: No ghost state for L =  2
GHOST: No ghost state for L =  3

KBgen: Kleinman-Bylander projectors: 
   l= 0   rc=  1.704034   el= -1.009801   Ekb=  5.335044   kbcos=  0.316824
   l= 1   rc=  1.704034   el= -0.388707   Ekb= -3.785862   kbcos= -0.366464
   l= 2   rc=  1.791422   el=  0.001971   Ekb= -0.970471   kbcos= -0.009212
   l= 3   rc=  1.859892   el=  0.003065   Ekb= -0.399525   kbcos= -0.001223

KBgen: Total number of  Kleinman-Bylander projectors:   16
atom: -------------------------------------------------------------------------

atom: SANKEY-TYPE ORBITALS:
atom: Selected multiple-zeta basis: split     

SPLIT: Orbitals with angular momentum L= 0

SPLIT: Basis orbitals for state 2s

SPLIT: PAO cut-off radius determined from an
SPLIT: energy shift=  0.007350 Ry

   izeta = 1
                 lambda =    1.000000
                     rc =    4.632753
                 energy =   -1.002270
                kinetic =    0.855760
    potential(screened) =   -1.858031
       potential(ionic) =   -5.417575

   izeta = 2
                 rmatch =    3.431921
              splitnorm =    0.150000
                 energy =   -0.867111
                kinetic =    1.300804
    potential(screened) =   -2.167915
       potential(ionic) =   -5.962684

SPLIT: Orbitals with angular momentum L= 1

SPLIT: Basis orbitals for state 2p

SPLIT: PAO cut-off radius determined from an
SPLIT: energy shift=  0.007350 Ry

   izeta = 1
                 lambda =    1.000000
                     rc =    5.658549
                 energy =   -0.381140
                kinetic =    2.399701
    potential(screened) =   -2.780841
       potential(ionic) =   -6.206085

   izeta = 2
                 rmatch =    3.653288
              splitnorm =    0.150000
                 energy =   -0.249149
                kinetic =    3.542762
    potential(screened) =   -3.791911
       potential(ionic) =   -7.581078

POLgen: Perturbative polarization orbital with L=  2

POLgen: Polarization orbital for state 2p

   izeta = 1
                     rc =    5.658549
                 energy =    1.109913
                kinetic =    2.304789
    potential(screened) =   -1.194876
       potential(ionic) =   -4.013592
atom: Total number of Sankey-type orbitals: 13

atm_pop: Valence configuration (for local Pseudopot. screening):
 2s( 2.00)                                                            
 2p( 2.00)                                                            
Vna: chval, zval:    4.00000   4.00000

Vna:  Cut-off radius for the neutral-atom potential:   5.658549
comcore: Pseudo-core radius Rcore=  1.791422

atom: _________________________________________________________________________

prinput: Basis input ----------------------------------------------------------

PAO.BasisType split     

%block ChemicalSpeciesLabel
    1    5 B                       # Species index, atomic number, species label
    2    6 C                       # Species index, atomic number, species label
%endblock ChemicalSpeciesLabel

%block PAO.Basis                 # Define Basis set
B                     2                    # Species label, number of l-shells
 n=2   0   2                         # n, l, Nzeta 
   5.422      4.223   
   1.000      1.000   
 n=2   1   2 P   1                   # n, l, Nzeta, Polarization, NzetaPol
   6.790      4.609   
   1.000      1.000   
C                     2                    # Species label, number of l-shells
 n=2   0   2                         # n, l, Nzeta 
   4.633      3.432   
   1.000      1.000   
 n=2   1   2 P   1                   # n, l, Nzeta, Polarization, NzetaPol
   5.659      3.653   
   1.000      1.000   
%endblock PAO.Basis

prinput: ----------------------------------------------------------------------

coor:   Atomic-coordinates input format  =     Fractional

siesta: Atomic coordinates (Bohr) and species
siesta:     -0.02582   2.59549   0.00000  1        1
siesta:     -0.02582   5.28395   0.00000  1        2
siesta:     -2.35420  38.89134   0.00000  1        3
siesta:     -2.35420  41.57980   0.00000  1        4
siesta:     -4.68258  34.85847   0.00000  1        5
siesta:     -4.68258  37.54693   0.00000  1        6
siesta:      2.30256   6.62836   0.00000  1        7
siesta:      2.30256   9.31683   0.00000  1        8
siesta:     -2.35420   6.62836   0.00000  1        9
siesta:     -2.35420   9.31683   0.00000  1       10
siesta:     -0.02582  10.66124   0.00000  1       11
siesta:     -0.02582  13.34970   0.00000  1       12
siesta:     -2.35420  14.69411   0.00000  1       13
siesta:     -2.35420  17.38257   0.00000  1       14
siesta:     -0.02582  18.72698   0.00000  1       15
siesta:     -0.02582  21.41544   0.00000  1       16
siesta:     -4.68258  18.72698   0.00000  1       17
siesta:     -4.68258  21.41544   0.00000  1       18
siesta:     -2.35420  22.75985   0.00000  1       19
siesta:     -2.35420  25.44831   0.00000  1       20
siesta:     -4.68258  26.79272   0.00000  1       21
siesta:     -4.68258  29.48119   0.00000  1       22
siesta:     -2.35420  30.82560   0.00000  1       23
siesta:     -2.35420  33.51406   0.00000  1       24
siesta:     -7.01096  30.82560   0.00000  1       25
siesta:     -7.01096  33.51406   0.00000  1       26
siesta:      2.30256  38.89134   0.00000  2       27
siesta:      2.30256  41.57980   0.00000  2       28
siesta:      4.63094  34.85847   0.00000  2       29
siesta:      4.63094  37.54693   0.00000  2       30
siesta:      6.95932  30.82560   0.00000  2       31
siesta:      6.95932  33.51406   0.00000  2       32
siesta:      9.28770  26.79272   0.00000  2       33
siesta:      9.28770  29.48119   0.00000  2       34
siesta:      4.63094  10.66124   0.00000  2       35
siesta:      4.63094  13.34970   0.00000  2       36
siesta:      6.95932  14.69411   0.00000  2       37
siesta:      6.95932  17.38257   0.00000  2       38
siesta:      9.28770  18.72698   0.00000  2       39
siesta:      9.28770  21.41544   0.00000  2       40
siesta:     11.61608  22.75985   0.00000  2       41
siesta:     11.61608  25.44831   0.00000  2       42
siesta:      2.30256  14.69411   0.00000  2       43
siesta:      2.30256  17.38257   0.00000  2       44
siesta:      4.63094  18.72698   0.00000  2       45
siesta:      4.63094  21.41544   0.00000  2       46
siesta:      6.95932  22.75985   0.00000  2       47
siesta:      6.95932  25.44831   0.00000  2       48
siesta:     -4.68258  10.66124   0.00000  2       49
siesta:     -4.68258  13.34970   0.00000  2       50
siesta:      2.30256  22.75985   0.00000  2       51
siesta:      2.30256  25.44831   0.00000  2       52
siesta:     -7.01096  14.69411   0.00000  2       53
siesta:     -7.01096  17.38257   0.00000  2       54
siesta:     -9.33934  18.72698   0.00000  2       55
siesta:     -9.33934  21.41544   0.00000  2       56
siesta:     -7.01096  22.75985   0.00000  2       57
siesta:     -7.01096  25.44831   0.00000  2       58
siesta:    -11.66772  22.75985   0.00000  2       59
siesta:    -11.66772  25.44831   0.00000  2       60
siesta:     -9.33934  26.79272   0.00000  2       61
siesta:     -9.33934  29.48119   0.00000  2       62
siesta:      4.63094  26.79272   0.00000  2       63
siesta:      4.63094  29.48119   0.00000  2       64
siesta:     -0.02582  26.79272   0.00000  2       65
siesta:     -0.02582  29.48119   0.00000  2       66
siesta:      2.30256  30.82560   0.00000  2       67
siesta:      2.30256  33.51406   0.00000  2       68
siesta:     -0.02582  34.85847   0.00000  2       69
siesta:     -0.02582  37.54693   0.00000  2       70
siesta:     -0.02582  42.92421   0.00000  2       71
siesta:     -0.02582  45.61267   0.00000  2       72

siesta: System type = slab      

initatomlists: Number of atoms, orbitals, and projectors:     72   936  1152

siesta: ******************** Simulation parameters ****************************
siesta:
siesta: The following are some of the parameters of the simulation.
siesta: A complete list of the parameters used, including default values,
siesta: can be found in file out.fdf
siesta:
redata: Non-Collinear-spin run           =     F
redata: SpinPolarized (Up/Down) run      =     F
redata: Number of spin components        =     1
redata: Long output                      =     F
redata: Number of Atomic Species         =        2
redata: Charge density info will appear in .RHO file
redata: Write Mulliken Pop.              =     NO
redata: Mesh Cutoff                      =   200.0000  Ry
redata: Net charge of the system         =     0.0000 |e|
redata: Max. number of SCF Iter          =      500
redata: SCF convergence failure will abort job
redata: Performing Pulay mixing using    =    10 iterations
redata: Mix DM in first SCF step ?       =     F
redata: Write Pulay info on disk?        =     F
redata: Discard 1st Pulay DM after  kick =     F
redata: New DM Mixing Weight             =     0.0500
redata: New DM Occupancy tolerance       = 0.000000000001
redata: No kicks to SCF
redata: DM Mixing Weight for Kicks       =     0.5000
redata: DM Tolerance for SCF             =     0.000100
redata: Require Energy convergence for SCF =     F
redata: DM Energy tolerance for SCF      =     0.000100 eV
redata: Require Harris convergence for SCF =     F
redata: DM Harris energy tolerance for SCF =     0.000100 eV
redata: Using Saved Data (generic)   =     F
redata: Use continuation files for DM    =     T
redata: Neglect nonoverlap interactions  =     F
redata: Method of Calculation            =     Diagonalization
redata: Divide and Conquer               =     T
redata: Electronic Temperature           =     0.0019  Ry
redata: Fix the spin of the system       =     F
redata: Dynamics option                  =     Verlet MD run
redata: Initial MD time step             =        1
redata:   Final MD time step             =        1
redata: Length of MD time step           =     1.0000  fs
redata: Initial Temperature of MD run    =     0.0000  K
redata: Perform a MD quench              =     F
redata: ***********************************************************************
Total number of electrons:   262.000000
Total ionic charge:   262.000000

* ProcessorY, Blocksize:    2  24

k-point displ. along   1 input, could be:     0.50    0.00
k-point displ. along   2 input, could be:     0.50    0.00
 Kpoints in:          231 . Kpoints trimmed:          231

siesta: k-grid: Number of k-points =   231
siesta: k-grid: Cutoff (effective) =     5.000 Ang
siesta: k-grid: Supercell and displacements
siesta: k-grid:   21   0   0      0.500
siesta: k-grid:    0  21   0      0.500
siesta: k-grid:    0   0   1      0.000
Naive supercell factors:     2    2    2

superc: Internal auxiliary supercell:     2 x     2 x     2  =       8
superc: Number of atoms, orbitals, and projectors:    576   7488   9216

* Maximum dynamic memory allocated =     4 MB

siesta:                 ==============================
                            Begin MD step =      1
                        ==============================

superc: Internal auxiliary supercell:     2 x     2 x     2  =       8
superc: Number of atoms, orbitals, and projectors:    576   7488   9216

outcell: Unit cell vectors (Ang):
       12.804619    7.392750    0.000000
        0.000000   14.785500    0.000000
        0.000000    0.000000   10.000000

outcell: Cell vector modules (Ang)   :   14.785500   14.785500   10.000000
outcell: Cell angles (23,13,12) (deg):     90.0000     90.0000     60.0000
outcell: Cell volume (Ang**3)        :   1893.2269
New_DM. Step:     1
Initializing Density Matrix...

InitMesh: MESH =   120 x   120 x    90 =     1296000
InitMesh: Mesh cutoff (required, used) =   200.000   223.865 Ry

* Maximum dynamic memory allocated =   237 MB

stepf: Fermi-Dirac step function

siesta: Program's energy decomposition (eV):
siesta: Ebs     =     -5354.041475
siesta: Eions   =     15073.536580
siesta: Ena     =      4084.828357
siesta: Ekin    =      5006.990805
siesta: Enl     =       869.322740
siesta: DEna    =        -0.000006
siesta: DUscf   =         0.000000
siesta: DUext   =         0.000000
siesta: Exc     =     -4192.196883
siesta: eta*DQ  =         0.000000
siesta: Emadel  =         0.000000
siesta: Emeta   =         0.000000
siesta: Emolmec =         0.000000
siesta: Ekinion =         0.000000
siesta: Eharris =     -9179.942681
siesta: Etot    =     -9304.591565
siesta: FreeEng =     -9304.591565

siesta: iscf   Eharris(eV)      E_KS(eV)   FreeEng(eV)   dDmax  Ef(eV)
siesta:    1    -9179.9427    -9304.5916    -9304.5916  7.3343 -8.4994
timer: Routine,Calls,Time,% = IterSCF        1    5564.540  99.74
elaps: Routine,Calls,Wall,% = IterSCF        1     743.727  99.74
siesta:    2   -16649.2628    -8047.3969    -8047.4487 17.9061 -9.3964
siesta:    3    -9329.7112    -9120.5209    -9120.5490  1.7368 -5.6133
siesta:    4    -9237.5186    -9065.1930    -9065.1935  1.2506 -5.1710
siesta:    5    -9120.6128    -9011.6880    -9011.7601  1.1781 -5.2584
siesta:    6    -9052.9626    -8983.3131    -8983.3141  1.1001 -5.5036
siesta:    7    -9024.1482    -8962.8959    -8962.9492  0.8139 -5.4697
siesta:    8    -9021.3629    -8954.7588    -8954.8112  0.8389 -5.4149
siesta:    9    -9018.9451    -8955.9066    -8955.9246  0.8248 -5.3242
siesta:   10    -9016.2456    -8956.7708    -8956.8072  0.7007 -5.4055
siesta:   11    -9019.9492    -8965.9949    -8966.0373  0.6150 -5.4115
siesta:   12    -9017.5971    -8965.6797    -8965.7334  0.4860 -5.2336
siesta:   13    -9015.5498    -8970.9808    -8971.0375  0.3949 -5.3118
siesta:   14    -9014.1500    -8978.9273    -8978.9775  0.3557 -5.2696
siesta:   15    -9014.2170    -8989.2230    -8989.2746  0.3185 -5.3276
siesta:   16    -9013.5853    -8994.4041    -8994.4608  0.1945 -5.3500
siesta:   17    -9013.2191    -8998.4816    -8998.5462  0.2574 -5.3499
siesta:   18    -9013.2117    -9000.1243    -9000.2001  0.2582 -5.3901
siesta:   19    -9013.0207    -9006.1992    -9006.2531  0.2104 -5.4382
siesta:   20    -9012.9443    -9006.8148    -9006.8784  0.1992 -5.4340
siesta:   21    -9012.8986    -9007.3456    -9007.4080  0.1896 -5.4351
siesta:   22    -9012.8201    -9009.1805    -9009.2408  0.1497 -5.4358
siesta:   23    -9012.7695    -9010.8095    -9010.8686  0.0724 -5.4301
siesta:   24    -9012.7454    -9011.4335    -9011.4955  0.0773 -5.4304
siesta:   25    -9012.7196    -9012.2504    -9012.3140  0.0443 -5.4281
siesta:   26    -9012.7164    -9012.3865    -9012.4530  0.0393 -5.4308
siesta:   27    -9012.7116    -9012.6668    -9012.7343  0.0360 -5.4290
siesta:   28    -9012.7111    -9013.2999    -9013.3684  0.0593 -5.4255
siesta:   29    -9012.7089    -9013.3552    -9013.4196  0.0469 -5.4233
siesta:   30    -9012.7071    -9013.0448    -9013.1098  0.0221 -5.4171
siesta:   31    -9012.7051    -9012.6875    -9012.7535  0.0116 -5.4121
siesta:   32    -9012.7038    -9012.7522    -9012.8189  0.0063 -5.4113
siesta:   33    -9012.7038    -9012.8161    -9012.8835  0.0057 -5.4117
siesta:   34    -9012.7039    -9012.8621    -9012.9293  0.0059 -5.4124
siesta:   35    -9012.7040    -9012.7971    -9012.8642  0.0019 -5.4129
siesta:   36    -9012.7040    -9012.7733    -9012.8401  0.0016 -5.4129
siesta:   37    -9012.7039    -9012.7590    -9012.8259  0.0010 -5.4129
siesta:   38    -9012.7040    -9012.7085    -9012.7754  0.0012 -5.4128
siesta:   39    -9012.7039    -9012.6808    -9012.7476  0.0010 -5.4126
siesta:   40    -9012.7039    -9012.6690    -9012.7360  0.0008 -5.4127
siesta:   41    -9012.7039    -9012.6750    -9012.7419  0.0005 -5.4127
siesta:   42    -9012.7039    -9012.6816    -9012.7486  0.0004 -5.4127
siesta:   43    -9012.7039    -9012.6865    -9012.7534  0.0004 -5.4127
siesta:   44    -9012.7039    -9012.6905    -9012.7575  0.0001 -5.4127
siesta:   45    -9012.7039    -9012.6930    -9012.7600  0.0001 -5.4128
siesta:   46    -9012.7039    -9012.6959    -9012.7628  0.0001 -5.4128
siesta:   47    -9012.7039    -9012.6966    -9012.7636  0.0001 -5.4128

siesta: E_KS(eV) =            -9012.6993

siesta: E_KS - E_eggbox =     -9012.6993

siesta: Atomic forces (eV/Ang):
----------------------------------------
   Tot   -0.090440    0.005479    0.000000
----------------------------------------
   Max  554.428416
   Res  123.727463    sqrt( Sum f_i^2 / 3N )
----------------------------------------
   Max  554.428416    constrained

Stress-tensor-Voigt (kbar):     -658.46    -2273.69       -0.73        8.96        0.00        0.00
(Free)E + p*V (eV/cell)    -7857.5576
Target enthalpy (eV/cell)    -9012.7662

siesta: Stress tensor (static) (eV/Ang**3):
        -0.410973    0.005591    0.000000
         0.005590   -1.419111    0.000000
         0.000000    0.000000   -0.000455

siesta: Pressure (static):        977.62620526  kBar

siesta: Stress tensor (total) (eV/Ang**3):
        -0.410973    0.005591    0.000000
         0.005590   -1.419111    0.000000
         0.000000    0.000000   -0.000455

siesta: Pressure (total):        977.62620526  kBar

siesta: Temp_ion =       0.000 K

* Maximum dynamic memory allocated =   254 MB
Computing bands...

siesta: Program's energy decomposition (eV):
siesta: Ebs     =     -4002.457333
siesta: Eions   =     15073.536580
siesta: Ena     =      4084.828357
siesta: Ekin    =      7653.145237
siesta: Enl     =      -736.300811
siesta: DEna    =      -688.336562
siesta: DUscf   =        89.915511
siesta: DUext   =         0.000000
siesta: Exc     =     -4342.414437
siesta: eta*DQ  =         0.000000
siesta: Emadel  =         0.000000
siesta: Emeta   =         0.000000
siesta: Emolmec =         0.000000
siesta: Ekinion =         0.000000
siesta: Eharris =     -9012.703890
siesta: Etot    =     -9012.699285
siesta: FreeEng =     -9012.766220

siesta: Final energy (eV):
siesta:  Band Struct. =   -4002.457333
siesta:       Kinetic =    7653.145237
siesta:       Hartree =   24046.078283
siesta:    Ext. field =       0.000000
siesta:   Exch.-corr. =   -4342.414437
siesta:  Ion-electron =  -55486.391423
siesta:       Ion-ion =   19116.883056
siesta:       Ekinion =       0.000000
siesta:         Total =   -9012.699285

siesta: Atomic forces (eV/Ang):
siesta:      1    5.057894  403.838659    0.000000
siesta:      2    3.709481 -110.476179    0.000000
siesta:      3   -2.085231   97.802683    0.000000
siesta:      4   -6.633205 -294.404531    0.000000
siesta:      5  -14.584757    2.225779    0.000000
siesta:      6  -18.646667 -397.001177    0.000000
siesta:      7   -3.446329  396.454093    0.000000
siesta:      8   -3.640060 -107.173220    0.000000
siesta:      9   -5.577067  293.445319    0.000000
siesta:     10    0.592571  -98.938835    0.000000
siesta:     11    3.680977  393.692490    0.000000
siesta:     12    4.126635 -113.100775    0.000000
siesta:     13  -21.607351  297.376629    0.000000
siesta:     14  -14.549732    0.423411    0.000000
siesta:     15   -0.355342  409.393622    0.000000
siesta:     16    4.485252    3.025910    0.000000
siesta:     17   -1.520662   -3.528472    0.000000
siesta:     18   -3.100606    3.369795    0.000000
siesta:     19   -2.168511   -3.043192    0.000000
siesta:     20    6.603113    5.059849    0.000000
siesta:     21   -5.239792   -3.218524    0.000000
siesta:     22    2.805843    2.023750    0.000000
siesta:     23  -15.001198   -0.401480    0.000000
siesta:     24  -18.371653 -296.312911    0.000000
siesta:     25   -8.485121    0.366926    0.000000
siesta:     26   -3.368734    2.829116    0.000000
siesta:     27   -3.572164  130.368871    0.000000
siesta:     28   21.354403 -554.083714    0.000000
siesta:     29   24.176956    3.559060    0.000000
siesta:     30   36.022304 -549.611617    0.000000
siesta:     31    2.748566    0.175407    0.000000
siesta:     32   -2.375337    2.283313    0.000000
siesta:     33    2.425652    1.642111    0.000000
siesta:     34   -1.323119    0.712557    0.000000
siesta:     35   26.893427  543.721919    0.000000
siesta:     36   26.787099   -6.138598    0.000000
siesta:     37   -2.670968   -1.883136    0.000000
siesta:     38    2.179986   -0.124896    0.000000
siesta:     39   -0.994887   -0.468986    0.000000
siesta:     40    2.134030   -1.871188    0.000000
siesta:     41    0.349017    6.374566    0.000000
siesta:     42   -0.573077   -6.517268    0.000000
siesta:     43    9.959374  554.428416    0.000000
siesta:     44   22.814524   -2.502926    0.000000
siesta:     45   -1.291089    1.586298    0.000000
siesta:     46    0.366104    0.639395    0.000000
siesta:     47   -0.129818    0.741793    0.000000
siesta:     48   -0.142540   -0.980949    0.000000
siesta:     49  -22.968651  402.762260    0.000000
siesta:     50  -22.070881    2.295911    0.000000
siesta:     51    2.642295    0.958882    0.000000
siesta:     52    0.564012    0.574872    0.000000
siesta:     53    2.134027   -2.140846    0.000000
siesta:     54   -6.663483   -2.065711    0.000000
siesta:     55    1.481646    0.130716    0.000000
siesta:     56   -3.344593   -2.149680    0.000000
siesta:     57   -2.482295    2.917094    0.000000
siesta:     58   -2.348024   -2.900432    0.000000
siesta:     59    0.042756    7.282241    0.000000
siesta:     60   -0.239278   -7.420190    0.000000
siesta:     61   -3.922901    2.218372    0.000000
siesta:     62   -0.749386   -3.095631    0.000000
siesta:     63    0.225430    0.050319    0.000000
siesta:     64   -1.443643   -1.650589    0.000000
siesta:     65    2.718019   -1.247100    0.000000
siesta:     66   -2.885242 -414.289445    0.000000
siesta:     67   22.666117    3.178921    0.000000
siesta:     68   23.449292 -413.353625    0.000000
siesta:     69   -5.576120  116.858333    0.000000
siesta:     70  -15.886432 -404.738416    0.000000
siesta:     71  -15.184366  117.912453    0.000000
siesta:     72    1.933070 -407.862391    0.000000
siesta: ----------------------------------------
siesta:    Tot   -0.090440    0.005479    0.000000

siesta: Stress tensor (static) (eV/Ang**3):
siesta:    -0.410973    0.005591    0.000000
siesta:     0.005590   -1.419111    0.000000
siesta:     0.000000    0.000000   -0.000455

siesta: Cell volume =       1893.226884 Ang**3

siesta: Pressure (static):
siesta:                Solid            Molecule  Units
siesta:           0.00664564          0.09260890  Ry/Bohr**3
siesta:           0.61017969          8.50303471  eV/Ang**3
siesta:         977.62620526      13623.51077923  kBar
(Free)E+ p_basis*V_orbitals  =       -8973.813815
(Free)Eharris+ p_basis*V_orbitals  =       -8973.821090

siesta: Electric dipole (a.u.)  =    0.000000    0.000000    0.000000
siesta: Electric dipole (Debye) =    0.000000    0.000000    0.000000

* Maximum dynamic memory allocated : Node    0 =   254 MB
* Maximum dynamic memory allocated : Node    1 =    88 MB
* Maximum dynamic memory allocated : Node    2 =    92 MB
* Maximum dynamic memory allocated : Node    3 =   242 MB
* Maximum dynamic memory allocated : Node    4 =   230 MB
* Maximum dynamic memory allocated : Node    5 =    83 MB
* Maximum dynamic memory allocated : Node    6 =    85 MB
* Maximum dynamic memory allocated : Node    7 =   212 MB

* Maximum memory occured during matrixMtoO                    

timer: CPU execution times:
timer:  Routine       Calls   Time/call    Tot.time        %
timer:  siesta            1  258764.781  258764.781   100.00
timer:  Setup             1       4.907       4.907     0.00
timer:  bands             3     417.268    1251.805     0.48
timer:  writewave         1       0.039       0.039     0.00
timer:  KSV_init          1       0.007       0.007     0.00
timer:  IterMD            1  257501.838  257501.838    99.51
timer:  hsparse           1       0.518       0.518     0.00
timer:  overlap           1       7.212       7.212     0.00
timer:  IterSCF          47    5473.710  257264.377    99.42
timer:  kinefsm           2       3.574       7.148     0.00
timer:  nlefsm            2      19.582      39.164     0.02
timer:  DHSCF            48     115.351    5536.849     2.14
timer:  DHSCF1            1       0.938       0.938     0.00
timer:  DHSCF2            1      42.270      42.270     0.02
timer:  REORD           386       0.005       1.946     0.00
timer:  POISON           49       1.098      53.816     0.02
timer:  DHSCF3           48     113.525    5449.203     2.11
timer:  rhoofd           48      24.762    1188.591     0.46
timer:  cellXC           48       3.645     174.938     0.07
timer:  vmat             48      52.533    2521.585     0.97
timer:  MolMec            2       0.000       0.001     0.00
timer:  diagon           47    5357.110  251784.151    97.30
timer:  c-eigval      10978      10.333  113434.707    43.84
timer:  c-buildHS     10978       0.048     527.152     0.20
timer:  cdiag         21835      10.623  231962.947    89.64
timer:  cdiag1        21835       0.677   14784.883     5.71
timer:  cdiag2        21835       3.012   65762.354    25.41
timer:  cdiag3        21835       6.397  139672.755    53.98
timer:  cdiag4        21835       0.278    6079.962     2.35
timer:  c-eigvec      10857      11.007  119507.992    46.18
timer:  c-buildD      10857       1.846   20041.610     7.75
timer:  DHSCF4            1      43.357      43.357     0.02
timer:  dfscf             1      40.656      40.656     0.02
timer:  overfsm           1       0.443       0.443     0.00
timer:  optical           1       5.641       5.641     0.00
  

elaps: ELAPSED times:
elaps:  Routine       Calls   Time/call    Tot.time        %
elaps:  siesta            1   34578.878   34578.878   100.00
elaps:  Setup             1       0.646       0.646     0.00
elaps:  bands             3      55.779     167.336     0.48
elaps:  writewave         1       0.005       0.005     0.00
elaps:  KSV_init          1       0.001       0.001     0.00
elaps:  IterMD            1   34410.115   34410.115    99.51
elaps:  hsparse           1       0.134       0.134     0.00
elaps:  overlap           1       1.104       1.104     0.00
elaps:  IterSCF          47     731.459   34378.554    99.42
elaps:  kinefsm           2       0.492       0.985     0.00
elaps:  nlefsm            2       2.603       5.206     0.02
elaps:  DHSCF            48      15.534     745.633     2.16
elaps:  DHSCF1            1       0.169       0.169     0.00
elaps:  DHSCF2            1       5.608       5.608     0.02
elaps:  REORD           386       0.001       0.245     0.00
elaps:  POISON           49       0.143       6.997     0.02
elaps:  DHSCF3           48      15.162     727.783     2.10
elaps:  rhoofd           48       7.412     355.781     1.03
elaps:  cellXC           48       0.488      23.406     0.07
elaps:  vmat             48       7.015     336.701     0.97
elaps:  MolMec            2       0.000       0.000     0.00
elaps:  diagon           47     715.881   33646.404    97.30
elaps:  c-eigval      10978       1.381   15158.694    43.84
elaps:  c-buildHS     10978       0.007      76.349     0.22
elaps:  cdiag         21835       1.416   30922.366    89.43
elaps:  cdiag1        21835       0.090    1965.668     5.68
elaps:  cdiag2        21835       0.402    8787.801    25.41
elaps:  cdiag3        21835       0.857   18714.860    54.12
elaps:  cdiag4        21835       0.036     792.913     2.29
elaps:  c-eigvec      10857       1.465   15903.260    45.99
elaps:  c-buildD      10857       0.253    2743.663     7.93
elaps:  DHSCF4            1      11.958      11.958     0.03
elaps:  dfscf             1      11.355      11.355     0.03
elaps:  overfsm           1       0.056       0.056     0.00
elaps:  optical           1       0.001       0.001     0.00
  
>> End of run:  19-APR-2016   4:30:14
