Siesta Version:                                        siesta-3.2-pl-3
Architecture  : x86_64-unknown-linux-gnu--unknown
Compiler flags: mpiifort -g -O2 -fPIC -xSSE4.1 -fp-model source -shared-intel 
PARALLEL version

* Running on   12 nodes in parallel
>> Start of run:   6-MAY-2016  10:06:54

                           ***********************       
                           *  WELCOME TO SIESTA  *       
                           ***********************       

reinit: Reading from standard input
************************** Dump of input data file ****************************
#(1) General system descriptors
SystemName            GRP_doping    # Descriptive name of the system
SystemLabel           GRP_doping    # Short name for naming files
%include STRUCT.fdf
%include KPT.fdf
%include BASIS.fdf
#%include TS.fdf # for transiesta calculation
#(4) DFT, Grid, SCF
XC.functional         GGA           # LDA or GGA (default = LDA)
XC.authors            PBE           # CA (Ceperley-Aldr) = PZ
                                    #    (Perdew-Zunger) - LDA - Default
                                    # PW92 (Perdew-Wang-92) - LDA
                                    # PBE (Perdew-Burke-Ernzerhof) - GGA
MeshCutoff            200.000000    Ry      # Default: 50.0 Ry ~ 0.444 Bohr
                                    #         100.0 Ry ~ 0.314 Bohr
MaxSCFIterations      500           # Default: 50
DM.MixingWeight       0.05          # Default: 0.25
DM.NumberPulay        10            # Default: 0
DM.PulayOnFile        F             # SystemLabel.P1, SystemLabel.P2
DM.Tolerance          1.d-4         # Default: 1.d-4
DM.UseSaveDM          .true.        # because of the bug
SCFMustConverge       .true.
NeglNonOverlapInt     F             # Default: F
#(5) Eigenvalue problem: order-N or diagonalization
SolutionMethod        Diagon        # or Transiesta
ElectronicTemperature 300.0 K       # Default: 300.0 K
#(6) Molecular dynamics and relaxations
#MD.TypeOfRun          CG            # Type of dynamics:
#MD.VariableCell       F
#MD.NumCGsteps         0           # 0 for single-point / 100 for gopt
#MD.MaxCGDispl         0.2 Bohr      # Default: 0.2 Bohr
#MD.MaxForceTol        0.02 eV/Ang   # Default: 0.04 eV/Ang
#MD.MaxStressTol       1.0 GPa       # Default: 1.0 GPa
# Geometry Constraints
#%block GeometryConstraints
#	position from 1 to 44
#%endblock GeometryConstraints
BandLinesScale   pi/a
%block BandLines
 1   0.00000000  0.00000000  0.00000000
50   0.00000000  0.07809418  0.00000000
50   0.04509075  0.07809242  0.00000000
20   0.00000000  0.00000000  0.00000000
%endblock BandLines
************************** End of input data file *****************************

reinit: -----------------------------------------------------------------------
reinit: System Name: GRP_doping
reinit: -----------------------------------------------------------------------
reinit: System Label: GRP_doping                                                  
reinit: -----------------------------------------------------------------------

initatom: Reading input for the pseudopotentials and atomic orbitals ----------
 Species number:            1  Label: N Atomic number:           7
 Species number:            2  Label: C Atomic number:           6
Ground state valence configuration:   2s02  2p03
Reading pseudopotential information in formatted form from N.psf

Valence configuration for pseudopotential generation:
2s( 2.00) rc: 1.48
2p( 3.00) rc: 1.48
3d( 0.00) rc: 1.48
4f( 0.00) rc: 1.48
Ground state valence configuration:   2s02  2p02
Reading pseudopotential information in formatted form from C.psf

Valence configuration for pseudopotential generation:
2s( 2.00) rc: 1.54
2p( 2.00) rc: 1.54
3d( 0.00) rc: 1.54
4f( 0.00) rc: 1.54
For N, standard SIESTA heuristics set lmxkb to 3
 (one more than the basis l, including polarization orbitals).
Use PS.lmax or PS.KBprojectors blocks to override.
For C, standard SIESTA heuristics set lmxkb to 3
 (one more than the basis l, including polarization orbitals).
Use PS.lmax or PS.KBprojectors blocks to override.

<basis_specs>
===============================================================================
N                    Z=   7    Mass=  14.010        Charge= 0.17977+309
Lmxo=1 Lmxkb= 3    BasisType=split      Semic=F
L=0  Nsemic=0  Cnfigmx=2
          n=1  nzeta=2  polorb=0
            splnorm:   0.15000    
               vcte:    0.0000    
               rinn:    0.0000    
                rcs:    0.0000      0.0000    
            lambdas:    1.0000      1.0000    
L=1  Nsemic=0  Cnfigmx=2
          n=1  nzeta=2  polorb=1
            splnorm:   0.15000    
               vcte:    0.0000    
               rinn:    0.0000    
                rcs:    0.0000      0.0000    
            lambdas:    1.0000      1.0000    
-------------------------------------------------------------------------------
L=0  Nkbl=1  erefs: 0.17977+309
L=1  Nkbl=1  erefs: 0.17977+309
L=2  Nkbl=1  erefs: 0.17977+309
L=3  Nkbl=1  erefs: 0.17977+309
===============================================================================
</basis_specs>

atom: Called for N                     (Z =   7)

read_vps: Pseudopotential generation method:
read_vps: ATM3      Troullier-Martins                       
Total valence charge:    5.00000

read_vps: Pseudopotential includes a core correction:
read_vps: Pseudo-core for xc-correction

xc_check: Exchange-correlation functional:
xc_check: GGA Perdew, Burke & Ernzerhof 1996
V l=0 = -2*Zval/r beyond r=  1.4606
V l=1 = -2*Zval/r beyond r=  1.4606
V l=2 = -2*Zval/r beyond r=  1.4606
V l=3 = -2*Zval/r beyond r=  1.4606
All V_l potentials equal beyond r=  1.4606
This should be close to max(r_c) in ps generation
All pots = -2*Zval/r beyond r=  1.4606

VLOCAL1: 99.0% of the norm of Vloc inside     20.347 Ry
VLOCAL1: 99.9% of the norm of Vloc inside     46.372 Ry
atom: Maximum radius for 4*pi*r*r*local-pseudopot. charge    1.76189
atom: Maximum radius for r*vlocal+2*Zval:    1.53550
GHOST: No ghost state for L =  0
GHOST: No ghost state for L =  1
GHOST: No ghost state for L =  2
GHOST: No ghost state for L =  3

KBgen: Kleinman-Bylander projectors: 
   l= 0   rc=  1.634559   el= -1.363963   Ekb=  5.296955   kbcos=  0.335621
   l= 1   rc=  1.614250   el= -0.521451   Ekb= -5.259161   kbcos= -0.433408
   l= 2   rc=  1.718383   el=  0.001991   Ekb= -1.271464   kbcos= -0.007566
   l= 3   rc=  1.761893   el=  0.003093   Ekb= -0.494769   kbcos= -0.001015

KBgen: Total number of  Kleinman-Bylander projectors:   16
atom: -------------------------------------------------------------------------

atom: SANKEY-TYPE ORBITALS:
atom: Selected multiple-zeta basis: split     

SPLIT: Orbitals with angular momentum L= 0

SPLIT: Basis orbitals for state 2s

SPLIT: PAO cut-off radius determined from an
SPLIT: energy shift=  0.007350 Ry

   izeta = 1
                 lambda =    1.000000
                     rc =    4.071465
                 energy =   -1.356470
                kinetic =    1.176977
    potential(screened) =   -2.533447
       potential(ionic) =   -8.057990

   izeta = 2
                 rmatch =    2.905100
              splitnorm =    0.150000
                 energy =   -1.158343
                kinetic =    1.813009
    potential(screened) =   -2.971352
       potential(ionic) =   -8.901931

SPLIT: Orbitals with angular momentum L= 1

SPLIT: Basis orbitals for state 2p

SPLIT: PAO cut-off radius determined from an
SPLIT: energy shift=  0.007350 Ry

   izeta = 1
                 lambda =    1.000000
                     rc =    4.972977
                 energy =   -0.513884
                kinetic =    3.441732
    potential(screened) =   -3.955616
       potential(ionic) =   -9.287901

   izeta = 2
                 rmatch =    3.054066
              splitnorm =    0.150000
                 energy =   -0.318226
                kinetic =    5.125348
    potential(screened) =   -5.443573
       potential(ionic) =  -11.380999

POLgen: Perturbative polarization orbital with L=  2

POLgen: Polarization orbital for state 2p

   izeta = 1
                     rc =    4.972977
                 energy =    1.607437
                kinetic =    3.268125
    potential(screened) =   -1.660688
       potential(ionic) =   -5.973652
atom: Total number of Sankey-type orbitals: 13

atm_pop: Valence configuration (for local Pseudopot. screening):
 2s( 2.00)                                                            
 2p( 3.00)                                                            
Vna: chval, zval:    5.00000   5.00000

Vna:  Cut-off radius for the neutral-atom potential:   4.972977
comcore: Pseudo-core radius Rcore=  1.554824

atom: _________________________________________________________________________

<basis_specs>
===============================================================================
C                    Z=   6    Mass=  12.010        Charge= 0.17977+309
Lmxo=1 Lmxkb= 3    BasisType=split      Semic=F
L=0  Nsemic=0  Cnfigmx=2
          n=1  nzeta=2  polorb=0
            splnorm:   0.15000    
               vcte:    0.0000    
               rinn:    0.0000    
                rcs:    0.0000      0.0000    
            lambdas:    1.0000      1.0000    
L=1  Nsemic=0  Cnfigmx=2
          n=1  nzeta=2  polorb=1
            splnorm:   0.15000    
               vcte:    0.0000    
               rinn:    0.0000    
                rcs:    0.0000      0.0000    
            lambdas:    1.0000      1.0000    
-------------------------------------------------------------------------------
L=0  Nkbl=1  erefs: 0.17977+309
L=1  Nkbl=1  erefs: 0.17977+309
L=2  Nkbl=1  erefs: 0.17977+309
L=3  Nkbl=1  erefs: 0.17977+309
===============================================================================
</basis_specs>

atom: Called for C                     (Z =   6)

read_vps: Pseudopotential generation method:
read_vps: ATM3      Troullier-Martins                       
Total valence charge:    4.00000

read_vps: Pseudopotential includes a core correction:
read_vps: Pseudo-core for xc-correction

xc_check: Exchange-correlation functional:
xc_check: GGA Perdew, Burke & Ernzerhof 1996
V l=0 = -2*Zval/r beyond r=  1.5227
V l=1 = -2*Zval/r beyond r=  1.5227
V l=2 = -2*Zval/r beyond r=  1.5227
V l=3 = -2*Zval/r beyond r=  1.5038
All V_l potentials equal beyond r=  1.5227
This should be close to max(r_c) in ps generation
All pots = -2*Zval/r beyond r=  1.5227

VLOCAL1: 99.0% of the norm of Vloc inside     18.722 Ry
VLOCAL1: 99.9% of the norm of Vloc inside     42.668 Ry
atom: Maximum radius for 4*pi*r*r*local-pseudopot. charge    1.83678
atom: Maximum radius for r*vlocal+2*Zval:    1.58088
GHOST: No ghost state for L =  0
GHOST: No ghost state for L =  1
GHOST: No ghost state for L =  2
GHOST: No ghost state for L =  3

KBgen: Kleinman-Bylander projectors: 
   l= 0   rc=  1.704034   el= -1.009801   Ekb=  5.335044   kbcos=  0.316824
   l= 1   rc=  1.704034   el= -0.388707   Ekb= -3.785862   kbcos= -0.366464
   l= 2   rc=  1.791422   el=  0.001971   Ekb= -0.970471   kbcos= -0.009212
   l= 3   rc=  1.859892   el=  0.003065   Ekb= -0.399525   kbcos= -0.001223

KBgen: Total number of  Kleinman-Bylander projectors:   16
atom: -------------------------------------------------------------------------

atom: SANKEY-TYPE ORBITALS:
atom: Selected multiple-zeta basis: split     

SPLIT: Orbitals with angular momentum L= 0

SPLIT: Basis orbitals for state 2s

SPLIT: PAO cut-off radius determined from an
SPLIT: energy shift=  0.007350 Ry

   izeta = 1
                 lambda =    1.000000
                     rc =    4.632753
                 energy =   -1.002270
                kinetic =    0.855760
    potential(screened) =   -1.858031
       potential(ionic) =   -5.417575

   izeta = 2
                 rmatch =    3.431921
              splitnorm =    0.150000
                 energy =   -0.867111
                kinetic =    1.300804
    potential(screened) =   -2.167915
       potential(ionic) =   -5.962684

SPLIT: Orbitals with angular momentum L= 1

SPLIT: Basis orbitals for state 2p

SPLIT: PAO cut-off radius determined from an
SPLIT: energy shift=  0.007350 Ry

   izeta = 1
                 lambda =    1.000000
                     rc =    5.658549
                 energy =   -0.381140
                kinetic =    2.399701
    potential(screened) =   -2.780841
       potential(ionic) =   -6.206085

   izeta = 2
                 rmatch =    3.653288
              splitnorm =    0.150000
                 energy =   -0.249149
                kinetic =    3.542762
    potential(screened) =   -3.791911
       potential(ionic) =   -7.581078

POLgen: Perturbative polarization orbital with L=  2

POLgen: Polarization orbital for state 2p

   izeta = 1
                     rc =    5.658549
                 energy =    1.109913
                kinetic =    2.304789
    potential(screened) =   -1.194876
       potential(ionic) =   -4.013592
atom: Total number of Sankey-type orbitals: 13

atm_pop: Valence configuration (for local Pseudopot. screening):
 2s( 2.00)                                                            
 2p( 2.00)                                                            
Vna: chval, zval:    4.00000   4.00000

Vna:  Cut-off radius for the neutral-atom potential:   5.658549
comcore: Pseudo-core radius Rcore=  1.791422

atom: _________________________________________________________________________

prinput: Basis input ----------------------------------------------------------

PAO.BasisType split     

%block ChemicalSpeciesLabel
    1    7 N                       # Species index, atomic number, species label
    2    6 C                       # Species index, atomic number, species label
%endblock ChemicalSpeciesLabel

%block PAO.Basis                 # Define Basis set
N                     2                    # Species label, number of l-shells
 n=2   0   2                         # n, l, Nzeta 
   4.071      2.905   
   1.000      1.000   
 n=2   1   2 P   1                   # n, l, Nzeta, Polarization, NzetaPol
   4.973      3.054   
   1.000      1.000   
C                     2                    # Species label, number of l-shells
 n=2   0   2                         # n, l, Nzeta 
   4.633      3.432   
   1.000      1.000   
 n=2   1   2 P   1                   # n, l, Nzeta, Polarization, NzetaPol
   5.659      3.653   
   1.000      1.000   
%endblock PAO.Basis

prinput: ----------------------------------------------------------------------

coor:   Atomic-coordinates input format  =     Fractional

siesta: Atomic coordinates (Bohr) and species
siesta:      2.30256   9.31683   0.00000  1        1
siesta:      9.28770  21.41544   0.00000  1        2
siesta:     -0.02582  10.66124   0.00000  1        3
siesta:     -0.02582  13.34970   0.00000  1        4
siesta:      4.63094  21.41544   0.00000  1        5
siesta:      6.95932  22.75985   0.00000  1        6
siesta:     -2.35420  14.69411   0.00000  1        7
siesta:     -2.35420  17.38257   0.00000  1        8
siesta:     -0.02582  18.72698   0.00000  1        9
siesta:     -0.02582  21.41544   0.00000  1       10
siesta:      2.30256  22.75985   0.00000  1       11
siesta:     -9.33934  21.41544   0.00000  1       12
siesta:    -11.66772  22.75985   0.00000  1       13
siesta:      2.30256  33.51406   0.00000  1       14
siesta:     -0.02582  34.85847   0.00000  1       15
siesta:     -0.02582   2.59549   0.00000  2       16
siesta:     -0.02582   5.28395   0.00000  2       17
siesta:     -2.35420  38.89134   0.00000  2       18
siesta:     -2.35420  41.57980   0.00000  2       19
siesta:      2.30256  38.89134   0.00000  2       20
siesta:      2.30256  41.57980   0.00000  2       21
siesta:      4.63094  34.85847   0.00000  2       22
siesta:      4.63094  37.54693   0.00000  2       23
siesta:      6.95932  30.82560   0.00000  2       24
siesta:      6.95932  33.51406   0.00000  2       25
siesta:      9.28770  26.79272   0.00000  2       26
siesta:      9.28770  29.48119   0.00000  2       27
siesta:     -4.68258  34.85847   0.00000  2       28
siesta:     -4.68258  37.54693   0.00000  2       29
siesta:      2.30256   6.62836   0.00000  2       30
siesta:      4.63094  10.66124   0.00000  2       31
siesta:      4.63094  13.34970   0.00000  2       32
siesta:      6.95932  14.69411   0.00000  2       33
siesta:      6.95932  17.38257   0.00000  2       34
siesta:      9.28770  18.72698   0.00000  2       35
siesta:     11.61608  22.75985   0.00000  2       36
siesta:     11.61608  25.44831   0.00000  2       37
siesta:     -2.35420   6.62836   0.00000  2       38
siesta:     -2.35420   9.31683   0.00000  2       39
siesta:      2.30256  14.69411   0.00000  2       40
siesta:      2.30256  17.38257   0.00000  2       41
siesta:      4.63094  18.72698   0.00000  2       42
siesta:      6.95932  25.44831   0.00000  2       43
siesta:     -4.68258  10.66124   0.00000  2       44
siesta:     -4.68258  13.34970   0.00000  2       45
siesta:      2.30256  25.44831   0.00000  2       46
siesta:     -7.01096  14.69411   0.00000  2       47
siesta:     -7.01096  17.38257   0.00000  2       48
siesta:     -4.68258  18.72698   0.00000  2       49
siesta:     -4.68258  21.41544   0.00000  2       50
siesta:     -2.35420  22.75985   0.00000  2       51
siesta:     -2.35420  25.44831   0.00000  2       52
siesta:     -9.33934  18.72698   0.00000  2       53
siesta:     -7.01096  22.75985   0.00000  2       54
siesta:     -7.01096  25.44831   0.00000  2       55
siesta:    -11.66772  25.44831   0.00000  2       56
siesta:     -9.33934  26.79272   0.00000  2       57
siesta:     -9.33934  29.48119   0.00000  2       58
siesta:      4.63094  26.79272   0.00000  2       59
siesta:      4.63094  29.48119   0.00000  2       60
siesta:     -0.02582  26.79272   0.00000  2       61
siesta:     -0.02582  29.48119   0.00000  2       62
siesta:     -4.68258  26.79272   0.00000  2       63
siesta:     -4.68258  29.48119   0.00000  2       64
siesta:      2.30256  30.82560   0.00000  2       65
siesta:     -2.35420  30.82560   0.00000  2       66
siesta:     -2.35420  33.51406   0.00000  2       67
siesta:     -7.01096  30.82560   0.00000  2       68
siesta:     -7.01096  33.51406   0.00000  2       69
siesta:     -0.02582  37.54693   0.00000  2       70
siesta:     -0.02582  42.92421   0.00000  2       71
siesta:     -0.02582  45.61267   0.00000  2       72

siesta: System type = slab      

initatomlists: Number of atoms, orbitals, and projectors:     72   936  1152

siesta: ******************** Simulation parameters ****************************
siesta:
siesta: The following are some of the parameters of the simulation.
siesta: A complete list of the parameters used, including default values,
siesta: can be found in file out.fdf
siesta:
redata: Non-Collinear-spin run           =     F
redata: SpinPolarized (Up/Down) run      =     F
redata: Number of spin components        =     1
redata: Long output                      =     F
redata: Number of Atomic Species         =        2
redata: Charge density info will appear in .RHO file
redata: Write Mulliken Pop.              =     NO
redata: Mesh Cutoff                      =   200.0000  Ry
redata: Net charge of the system         =     0.0000 |e|
redata: Max. number of SCF Iter          =      500
redata: SCF convergence failure will abort job
redata: Performing Pulay mixing using    =    10 iterations
redata: Mix DM in first SCF step ?       =     F
redata: Write Pulay info on disk?        =     F
redata: Discard 1st Pulay DM after  kick =     F
redata: New DM Mixing Weight             =     0.0500
redata: New DM Occupancy tolerance       = 0.000000000001
redata: No kicks to SCF
redata: DM Mixing Weight for Kicks       =     0.5000
redata: DM Tolerance for SCF             =     0.000100
redata: Require Energy convergence for SCF =     F
redata: DM Energy tolerance for SCF      =     0.000100 eV
redata: Require Harris convergence for SCF =     F
redata: DM Harris energy tolerance for SCF =     0.000100 eV
redata: Using Saved Data (generic)   =     F
redata: Use continuation files for DM    =     T
redata: Neglect nonoverlap interactions  =     F
redata: Method of Calculation            =     Diagonalization
redata: Divide and Conquer               =     T
redata: Electronic Temperature           =     0.0019  Ry
redata: Fix the spin of the system       =     F
redata: Dynamics option                  =     Verlet MD run
redata: Initial MD time step             =        1
redata:   Final MD time step             =        1
redata: Length of MD time step           =     1.0000  fs
redata: Initial Temperature of MD run    =     0.0000  K
redata: Perform a MD quench              =     F
redata: ***********************************************************************
Total number of electrons:   303.000000
Total ionic charge:   303.000000

* ProcessorY, Blocksize:    3  24

k-point displ. along   1 input, could be:     0.50    0.00
k-point displ. along   2 input, could be:     0.50    0.00
 Kpoints in:          231 . Kpoints trimmed:          231

siesta: k-grid: Number of k-points =   231
siesta: k-grid: Cutoff (effective) =     5.000 Ang
siesta: k-grid: Supercell and displacements
siesta: k-grid:   21   0   0      0.500
siesta: k-grid:    0  21   0      0.500
siesta: k-grid:    0   0   1      0.000
Naive supercell factors:     2    2    2

superc: Internal auxiliary supercell:     2 x     2 x     2  =       8
superc: Number of atoms, orbitals, and projectors:    576   7488   9216

* Maximum dynamic memory allocated =     4 MB

siesta:                 ==============================
                            Begin MD step =      1
                        ==============================

superc: Internal auxiliary supercell:     2 x     2 x     2  =       8
superc: Number of atoms, orbitals, and projectors:    576   7488   9216

outcell: Unit cell vectors (Ang):
       12.804619    7.392750    0.000000
        0.000000   14.785500    0.000000
        0.000000    0.000000   10.000000

outcell: Cell vector modules (Ang)   :   14.785500   14.785500   10.000000
outcell: Cell angles (23,13,12) (deg):     90.0000     90.0000     60.0000
outcell: Cell volume (Ang**3)        :   1893.2269
New_DM. Step:     1
Initializing Density Matrix...

InitMesh: MESH =   120 x   120 x    90 =     1296000
InitMesh: Mesh cutoff (required, used) =   200.000   223.865 Ry

* Maximum dynamic memory allocated =   135 MB

stepf: Fermi-Dirac step function

siesta: Program's energy decomposition (eV):
siesta: Ebs     =     -6203.823850
siesta: Eions   =     20814.213734
siesta: Ena     =      4880.227824
siesta: Ekin    =      7637.016727
siesta: Enl     =       182.902477
siesta: DEna    =        -0.000015
siesta: DUscf   =         0.000000
siesta: DUext   =         0.000000
siesta: Exc     =     -4550.301946
siesta: eta*DQ  =         0.000000
siesta: Emadel  =         0.000000
siesta: Emeta   =         0.000000
siesta: Emolmec =         0.000000
siesta: Ekinion =         0.000000
siesta: Eharris =    -12291.050058
siesta: Etot    =    -12664.368667
siesta: FreeEng =    -12664.368667

siesta: iscf   Eharris(eV)      E_KS(eV)   FreeEng(eV)   dDmax  Ef(eV)
siesta:    1   -12291.0501   -12664.3687   -12664.3687  6.1754 -6.9961
timer: Routine,Calls,Time,% = IterSCF        1    3011.844  99.59
elaps: Routine,Calls,Wall,% = IterSCF        1     251.584  99.59
siesta:    2   -15860.5039   -11747.1782   -11747.2173 13.0901 -2.1975
siesta:    3   -12210.2773   -12418.3477   -12418.4000  1.7688 -4.5366
siesta:    4   -12171.4798   -12302.7334   -12302.7814  0.9298 -4.1822
siesta:    5   -12146.3867   -12235.1745   -12235.1866  0.7342 -4.0905
siesta:    6   -12143.1465   -12220.2486   -12220.2640  0.8149 -4.0537
siesta:    7   -12140.6681   -12212.6647   -12212.7075  0.6874 -4.0408
siesta:    8   -12136.9748   -12189.0241   -12189.0854  0.5147 -4.0435
siesta:    9   -12136.5144   -12164.9541   -12164.9986  0.3955 -3.9829
siesta:   10   -12136.4032   -12149.2330   -12149.3021  0.4373 -3.9346
siesta:   11   -12136.1737   -12140.3255   -12140.4022  0.3565 -3.9071
siesta:   12   -12135.9244   -12130.9924   -12131.0857  0.1830 -3.9385
siesta:   13   -12135.6407   -12127.1021   -12127.1500  0.2070 -3.9724
siesta:   14   -12135.4429   -12128.8796   -12128.9544  0.1076 -3.9924
siesta:   15   -12135.3182   -12129.6921   -12129.7723  0.0850 -3.9977
siesta:   16   -12135.2490   -12131.4071   -12131.4859  0.0502 -4.0044
siesta:   17   -12135.2247   -12132.9920   -12133.0709  0.0259 -4.0023
siesta:   18   -12135.2187   -12133.4390   -12133.5107  0.0219 -3.9991
siesta:   19   -12135.2090   -12133.9809   -12134.0551  0.0158 -3.9952
siesta:   20   -12135.2047   -12133.9360   -12134.0130  0.0133 -3.9929
siesta:   21   -12135.2032   -12134.3974   -12134.4750  0.0102 -3.9913
siesta:   22   -12135.2020   -12134.4212   -12134.4994  0.0102 -3.9896
siesta:   23   -12135.2019   -12134.4625   -12134.5404  0.0092 -3.9881
siesta:   24   -12135.2010   -12134.5144   -12134.5917  0.0076 -3.9879
siesta:   25   -12135.2010   -12134.6947   -12134.7726  0.0047 -3.9885
siesta:   26   -12135.2005   -12134.8138   -12134.8916  0.0037 -3.9890
siesta:   27   -12135.2006   -12134.9763   -12135.0544  0.0045 -3.9899
siesta:   28   -12135.2005   -12135.0487   -12135.1267  0.0038 -3.9903
siesta:   29   -12135.2006   -12135.0592   -12135.1372  0.0018 -3.9907
siesta:   30   -12135.2005   -12135.0820   -12135.1600  0.0007 -3.9909
siesta:   31   -12135.2005   -12135.0885   -12135.1665  0.0005 -3.9910
siesta:   32   -12135.2005   -12135.1051   -12135.1832  0.0004 -3.9911
siesta:   33   -12135.2005   -12135.1161   -12135.1941  0.0002 -3.9911
siesta:   34   -12135.2005   -12135.1378   -12135.2158  0.0002 -3.9910
siesta:   35   -12135.2005   -12135.1587   -12135.2367  0.0001 -3.9909

siesta: E_KS(eV) =           -12135.1656

siesta: E_KS - E_eggbox =    -12135.1656

siesta: Atomic forces (eV/Ang):
----------------------------------------
   Tot   -0.298845    0.062056    0.000000
----------------------------------------
   Max  684.277910
   Res  176.481402    sqrt( Sum f_i^2 / 3N )
----------------------------------------
   Max  684.277910    constrained

Stress-tensor-Voigt (kbar):     -653.78    -3162.01       -0.11      -27.14        0.00        0.00
(Free)E + p*V (eV/cell)   -10632.2284
Target enthalpy (eV/cell)   -12135.2436

siesta: Stress tensor (static) (eV/Ang**3):
        -0.408054   -0.016941    0.000000
        -0.016941   -1.973547    0.000000
         0.000000    0.000000   -0.000071

siesta: Pressure (static):       1271.96680968  kBar

siesta: Stress tensor (total) (eV/Ang**3):
        -0.408054   -0.016941    0.000000
        -0.016941   -1.973547    0.000000
         0.000000    0.000000   -0.000071

siesta: Pressure (total):       1271.96680968  kBar

siesta: Temp_ion =       0.000 K

* Maximum dynamic memory allocated =   147 MB
Computing bands...

siesta: Program's energy decomposition (eV):
siesta: Ebs     =     -4932.816543
siesta: Eions   =     20814.213734
siesta: Ena     =      4880.227824
siesta: Ekin    =     10770.573674
siesta: Enl     =     -1539.488700
siesta: DEna    =      -813.120162
siesta: DUscf   =       109.817944
siesta: DUext   =         0.000000
siesta: Exc     =     -4728.962432
siesta: eta*DQ  =         0.000000
siesta: Emadel  =         0.000000
siesta: Emeta   =         0.000000
siesta: Emolmec =         0.000000
siesta: Ekinion =         0.000000
siesta: Eharris =    -12135.200511
siesta: Etot    =    -12135.165584
siesta: FreeEng =    -12135.243574

siesta: Final energy (eV):
siesta:  Band Struct. =   -4932.816543
siesta:       Kinetic =   10770.573674
siesta:       Hartree =   35137.948738
siesta:    Ext. field =       0.000000
siesta:   Exch.-corr. =   -4728.962432
siesta:  Ion-electron =  -80602.641920
siesta:       Ion-ion =   27287.916356
siesta:       Ekinion =       0.000000
siesta:         Total =  -12135.165584

siesta: Atomic forces (eV/Ang):
siesta:      1   -1.299823 -110.600574    0.000000
siesta:      2    2.664896   -3.156032    0.000000
siesta:      3   -6.033039  663.860622    0.000000
siesta:      4    3.273173 -109.678778    0.000000
siesta:      5    0.310092   -1.542302    0.000000
siesta:      6   -1.382818    3.009852    0.000000
siesta:      7   -8.091100  677.084576    0.000000
siesta:      8  -35.542757  -10.172612    0.000000
siesta:      9   19.316497  681.849485    0.000000
siesta:     10    0.084176   -3.937552    0.000000
siesta:     11    2.331712    2.229675    0.000000
siesta:     12    1.124352   -1.755394    0.000000
siesta:     13   -0.081717    4.116149    0.000000
siesta:     14   14.302350 -684.277910    0.000000
siesta:     15    2.215278  117.347893    0.000000
siesta:     16    2.887945  548.458650    0.000000
siesta:     17   -4.463702 -124.093256    0.000000
siesta:     18    1.356019  119.218112    0.000000
siesta:     19  -13.077944 -658.130931    0.000000
siesta:     20    3.497116  117.283834    0.000000
siesta:     21   -1.564093 -546.389523    0.000000
siesta:     22   28.699168    7.434023    0.000000
siesta:     23   23.198379 -549.089359    0.000000
siesta:     24    1.847259    0.251569    0.000000
siesta:     25   -3.327984    1.608581    0.000000
siesta:     26    1.767469    1.836899    0.000000
siesta:     27   -1.360316   -0.146422    0.000000
siesta:     28  -27.083180    5.621799    0.000000
siesta:     29  -34.251466 -550.997164    0.000000
siesta:     30   10.490642  651.409799    0.000000
siesta:     31   32.939741  554.305820    0.000000
siesta:     32   27.176990   -5.119876    0.000000
siesta:     33   -3.061245   -0.758571    0.000000
siesta:     34    1.545353   -0.021675    0.000000
siesta:     35    0.538321    1.647519    0.000000
siesta:     36   -1.709802    3.466566    0.000000
siesta:     37    0.022931   -5.547371    0.000000
siesta:     38    1.949216  544.800702    0.000000
siesta:     39    0.920515 -123.597964    0.000000
siesta:     40   25.489529  561.868761    0.000000
siesta:     41   27.376397   -8.788304    0.000000
siesta:     42   -2.101331    3.468485    0.000000
siesta:     43   -0.537222   -1.418764    0.000000
siesta:     44  -31.392796  549.423918    0.000000
siesta:     45  -26.792924  -10.128747    0.000000
siesta:     46   -1.199957    0.064557    0.000000
siesta:     47    2.020345   -1.324754    0.000000
siesta:     48   -0.593450   -0.355614    0.000000
siesta:     49    0.774227    2.351975    0.000000
siesta:     50    0.596812   -0.976827    0.000000
siesta:     51   -0.830233    1.511410    0.000000
siesta:     52   -0.054949   -1.308350    0.000000
siesta:     53   -1.025155    2.459161    0.000000
siesta:     54   -1.064744    0.380864    0.000000
siesta:     55    0.019389   -0.808664    0.000000
siesta:     56   -0.274176   -6.494782    0.000000
siesta:     57   -1.539773    2.561983    0.000000
siesta:     58    1.456162   -0.653064    0.000000
siesta:     59    0.694985   -0.984382    0.000000
siesta:     60   -1.497066   -1.989597    0.000000
siesta:     61    1.526182   -1.363873    0.000000
siesta:     62   -2.355596 -565.487628    0.000000
siesta:     63   -0.304047   -0.358867    0.000000
siesta:     64    1.426672   -2.387932    0.000000
siesta:     65   22.809075    5.587665    0.000000
siesta:     66  -23.826842    4.217878    0.000000
siesta:     67  -24.850556 -562.834219    0.000000
siesta:     68   -1.603818    0.036399    0.000000
siesta:     69    3.186113    2.072650    0.000000
siesta:     70    7.742997 -664.084206    0.000000
siesta:     71    1.343550  118.344235    0.000000
siesta:     72  -17.045249 -640.368169    0.000000
siesta: ----------------------------------------
siesta:    Tot   -0.298845    0.062056    0.000000

siesta: Stress tensor (static) (eV/Ang**3):
siesta:    -0.408054   -0.016941    0.000000
siesta:    -0.016941   -1.973547    0.000000
siesta:     0.000000    0.000000   -0.000071

siesta: Cell volume =       1893.226884 Ang**3

siesta: Pressure (static):
siesta:                Solid            Molecule  Units
siesta:           0.00864648          0.13971861  Ry/Bohr**3
siesta:           0.79389066         12.82848807  eV/Ang**3
siesta:        1271.96680968      20553.72600555  kBar
(Free)E+ p_basis*V_orbitals  =      -12106.650410
(Free)Eharris+ p_basis*V_orbitals  =      -12106.692179

siesta: Electric dipole (a.u.)  =    0.000000    0.000000    0.000000
siesta: Electric dipole (Debye) =    0.000000    0.000000    0.000000

* Maximum dynamic memory allocated : Node    0 =   147 MB
* Maximum dynamic memory allocated : Node    1 =    58 MB
* Maximum dynamic memory allocated : Node    2 =    59 MB
* Maximum dynamic memory allocated : Node    3 =   136 MB
* Maximum dynamic memory allocated : Node    4 =   143 MB
* Maximum dynamic memory allocated : Node    5 =    52 MB
* Maximum dynamic memory allocated : Node    6 =    52 MB
* Maximum dynamic memory allocated : Node    7 =   135 MB
* Maximum dynamic memory allocated : Node    8 =   130 MB
* Maximum dynamic memory allocated : Node    9 =    53 MB
* Maximum dynamic memory allocated : Node   10 =    54 MB
* Maximum dynamic memory allocated : Node   11 =   123 MB

* Maximum memory occured during matrixMtoO                    

timer: CPU execution times:
timer:  Routine       Calls   Time/call    Tot.time        %
timer:  siesta            1  103044.878  103044.878   100.00
timer:  Setup             1       3.468       3.468     0.00
timer:  bands             3     225.895     677.685     0.66
timer:  writewave         1       0.023       0.023     0.00
timer:  KSV_init          1       0.004       0.004     0.00
timer:  IterMD            1  102356.651  102356.651    99.33
timer:  hsparse           1       0.166       0.166     0.00
timer:  overlap           1       7.155       7.155     0.01
timer:  IterSCF          35    2921.035  102236.240    99.22
timer:  kinefsm           2       3.621       7.242     0.01
timer:  nlefsm            2      18.378      36.755     0.04
timer:  DHSCF            36      61.213    2203.679     2.14
timer:  DHSCF1            1       0.904       0.904     0.00
timer:  DHSCF2            1      24.217      24.217     0.02
timer:  REORD           290       0.002       0.653     0.00
timer:  POISON           37       0.449      16.627     0.02
timer:  DHSCF3           36      59.930    2157.474     2.09
timer:  rhoofd           36      12.478     449.217     0.44
timer:  cellXC           36       2.408      86.674     0.08
timer:  vmat             36      27.119     976.298     0.95
timer:  MolMec            2       0.000       0.000     0.00
timer:  diagon           35    2858.533  100048.666    97.09
timer:  c-eigval       8206       5.595   45916.284    44.56
timer:  c-buildHS      8206       0.033     270.193     0.26
timer:  cdiag         16291       5.690   92697.653    89.96
timer:  cdiag1        16291       0.259    4219.096     4.09
timer:  cdiag2        16291       1.833   29863.284    28.98
timer:  cdiag3        16291       3.395   55309.178    53.67
timer:  cdiag4        16291       0.088    1437.160     1.39
timer:  c-eigvec       8085       5.847   47274.261    45.88
timer:  c-buildD       8085       0.927    7491.163     7.27
timer:  DHSCF4            1      20.829      20.829     0.02
timer:  dfscf             1      19.408      19.408     0.02
timer:  overfsm           1       0.281       0.281     0.00
timer:  optical           1       6.449       6.449     0.01
  

elaps: ELAPSED times:
elaps:  Routine       Calls   Time/call    Tot.time        %
elaps:  siesta            1    8607.259    8607.259   100.00
elaps:  Setup             1       0.289       0.289     0.00
elaps:  bands             3      18.885      56.654     0.66
elaps:  writewave         1       0.002       0.002     0.00
elaps:  KSV_init          1       0.000       0.000     0.00
elaps:  IterMD            1    8549.772    8549.772    99.33
elaps:  hsparse           1       0.016       0.016     0.00
elaps:  overlap           1       0.710       0.710     0.01
elaps:  IterSCF          35     243.992    8539.714    99.22
elaps:  kinefsm           2       0.362       0.725     0.01
elaps:  nlefsm            2       1.620       3.240     0.04
elaps:  DHSCF            36       5.164     185.908     2.16
elaps:  DHSCF1            1       0.077       0.077     0.00
elaps:  DHSCF2            1       2.022       2.022     0.02
elaps:  REORD           290       0.000       0.087     0.00
elaps:  POISON           37       0.038       1.407     0.02
elaps:  DHSCF3           36       5.007     180.252     2.09
elaps:  rhoofd           36       2.491      89.661     1.04
elaps:  cellXC           36       0.201       7.222     0.08
elaps:  vmat             36       2.266      81.587     0.95
elaps:  MolMec            2       0.000       0.000     0.00
elaps:  diagon           35     238.777    8357.178    97.09
elaps:  c-eigval       8206       0.467    3835.297    44.56
elaps:  c-buildHS      8206       0.003      28.302     0.33
elaps:  cdiag         16291       0.471    7672.386    89.14
elaps:  cdiag1        16291       0.021     344.529     4.00
elaps:  cdiag2        16291       0.153    2496.562    29.01
elaps:  cdiag3        16291       0.284    4626.913    53.76
elaps:  cdiag4        16291       0.007     115.348     1.34
elaps:  c-eigvec       8085       0.481    3889.517    45.19
elaps:  c-buildD       8085       0.085     684.703     7.95
elaps:  DHSCF4            1       3.516       3.516     0.04
elaps:  dfscf             1       3.325       3.325     0.04
elaps:  overfsm           1       0.030       0.030     0.00
elaps:  optical           1       0.000       0.000     0.00
  
>> End of run:   6-MAY-2016  12:30:21
