Siesta Version:                                        siesta-3.2-pl-3
Architecture  : x86_64-unknown-linux-gnu--unknown
Compiler flags: mpiifort -g -O2 -fPIC -xSSE4.1 -fp-model source -shared-intel 
PARALLEL version

* Running on    8 nodes in parallel
>> Start of run:  26-APR-2016   3:21:36

                           ***********************       
                           *  WELCOME TO SIESTA  *       
                           ***********************       

reinit: Reading from standard input
************************** Dump of input data file ****************************
#(1) General system descriptors
SystemName            GRP_doping    # Descriptive name of the system
SystemLabel           GRP_doping    # Short name for naming files
%include STRUCT.fdf
%include KPT.fdf
%include BASIS.fdf
#%include TS.fdf # for transiesta calculation
#(4) DFT, Grid, SCF
XC.functional         GGA           # LDA or GGA (default = LDA)
XC.authors            PBE           # CA (Ceperley-Aldr) = PZ
                                    #    (Perdew-Zunger) - LDA - Default
                                    # PW92 (Perdew-Wang-92) - LDA
                                    # PBE (Perdew-Burke-Ernzerhof) - GGA
MeshCutoff            200.000000    Ry      # Default: 50.0 Ry ~ 0.444 Bohr
                                    #         100.0 Ry ~ 0.314 Bohr
MaxSCFIterations      500           # Default: 50
DM.MixingWeight       0.05          # Default: 0.25
DM.NumberPulay        10            # Default: 0
DM.PulayOnFile        F             # SystemLabel.P1, SystemLabel.P2
DM.Tolerance          1.d-4         # Default: 1.d-4
DM.UseSaveDM          .true.        # because of the bug
SCFMustConverge       .true.
NeglNonOverlapInt     F             # Default: F
#(5) Eigenvalue problem: order-N or diagonalization
SolutionMethod        Diagon        # or Transiesta
ElectronicTemperature 300.0 K       # Default: 300.0 K
#(6) Molecular dynamics and relaxations
#MD.TypeOfRun          CG            # Type of dynamics:
#MD.VariableCell       F
#MD.NumCGsteps         0           # 0 for single-point / 100 for gopt
#MD.MaxCGDispl         0.2 Bohr      # Default: 0.2 Bohr
#MD.MaxForceTol        0.02 eV/Ang   # Default: 0.04 eV/Ang
#MD.MaxStressTol       1.0 GPa       # Default: 1.0 GPa
# Geometry Constraints
#%block GeometryConstraints
#	position from 1 to 44
#%endblock GeometryConstraints
BandLinesScale   pi/a
%block BandLines
 1   0.00000000  0.00000000  0.00000000
50   0.00000000  0.07809418  0.00000000
50   0.04509075  0.07809242  0.00000000
20   0.00000000  0.00000000  0.00000000
%endblock BandLines
************************** End of input data file *****************************

reinit: -----------------------------------------------------------------------
reinit: System Name: GRP_doping
reinit: -----------------------------------------------------------------------
reinit: System Label: GRP_doping                                                  
reinit: -----------------------------------------------------------------------

initatom: Reading input for the pseudopotentials and atomic orbitals ----------
 Species number:            1  Label: N Atomic number:           7
 Species number:            2  Label: C Atomic number:           6
Ground state valence configuration:   2s02  2p03
Reading pseudopotential information in formatted form from N.psf

Valence configuration for pseudopotential generation:
2s( 2.00) rc: 1.48
2p( 3.00) rc: 1.48
3d( 0.00) rc: 1.48
4f( 0.00) rc: 1.48
Ground state valence configuration:   2s02  2p02
Reading pseudopotential information in formatted form from C.psf

Valence configuration for pseudopotential generation:
2s( 2.00) rc: 1.54
2p( 2.00) rc: 1.54
3d( 0.00) rc: 1.54
4f( 0.00) rc: 1.54
For N, standard SIESTA heuristics set lmxkb to 3
 (one more than the basis l, including polarization orbitals).
Use PS.lmax or PS.KBprojectors blocks to override.
For C, standard SIESTA heuristics set lmxkb to 3
 (one more than the basis l, including polarization orbitals).
Use PS.lmax or PS.KBprojectors blocks to override.

<basis_specs>
===============================================================================
N                    Z=   7    Mass=  14.010        Charge= 0.17977+309
Lmxo=1 Lmxkb= 3    BasisType=split      Semic=F
L=0  Nsemic=0  Cnfigmx=2
          n=1  nzeta=2  polorb=0
            splnorm:   0.15000    
               vcte:    0.0000    
               rinn:    0.0000    
                rcs:    0.0000      0.0000    
            lambdas:    1.0000      1.0000    
L=1  Nsemic=0  Cnfigmx=2
          n=1  nzeta=2  polorb=1
            splnorm:   0.15000    
               vcte:    0.0000    
               rinn:    0.0000    
                rcs:    0.0000      0.0000    
            lambdas:    1.0000      1.0000    
-------------------------------------------------------------------------------
L=0  Nkbl=1  erefs: 0.17977+309
L=1  Nkbl=1  erefs: 0.17977+309
L=2  Nkbl=1  erefs: 0.17977+309
L=3  Nkbl=1  erefs: 0.17977+309
===============================================================================
</basis_specs>

atom: Called for N                     (Z =   7)

read_vps: Pseudopotential generation method:
read_vps: ATM3      Troullier-Martins                       
Total valence charge:    5.00000

read_vps: Pseudopotential includes a core correction:
read_vps: Pseudo-core for xc-correction

xc_check: Exchange-correlation functional:
xc_check: GGA Perdew, Burke & Ernzerhof 1996
V l=0 = -2*Zval/r beyond r=  1.4606
V l=1 = -2*Zval/r beyond r=  1.4606
V l=2 = -2*Zval/r beyond r=  1.4606
V l=3 = -2*Zval/r beyond r=  1.4606
All V_l potentials equal beyond r=  1.4606
This should be close to max(r_c) in ps generation
All pots = -2*Zval/r beyond r=  1.4606

VLOCAL1: 99.0% of the norm of Vloc inside     20.347 Ry
VLOCAL1: 99.9% of the norm of Vloc inside     46.372 Ry
atom: Maximum radius for 4*pi*r*r*local-pseudopot. charge    1.76189
atom: Maximum radius for r*vlocal+2*Zval:    1.53550
GHOST: No ghost state for L =  0
GHOST: No ghost state for L =  1
GHOST: No ghost state for L =  2
GHOST: No ghost state for L =  3

KBgen: Kleinman-Bylander projectors: 
   l= 0   rc=  1.634559   el= -1.363963   Ekb=  5.296955   kbcos=  0.335621
   l= 1   rc=  1.614250   el= -0.521451   Ekb= -5.259161   kbcos= -0.433408
   l= 2   rc=  1.718383   el=  0.001991   Ekb= -1.271464   kbcos= -0.007566
   l= 3   rc=  1.761893   el=  0.003093   Ekb= -0.494769   kbcos= -0.001015

KBgen: Total number of  Kleinman-Bylander projectors:   16
atom: -------------------------------------------------------------------------

atom: SANKEY-TYPE ORBITALS:
atom: Selected multiple-zeta basis: split     

SPLIT: Orbitals with angular momentum L= 0

SPLIT: Basis orbitals for state 2s

SPLIT: PAO cut-off radius determined from an
SPLIT: energy shift=  0.007350 Ry

   izeta = 1
                 lambda =    1.000000
                     rc =    4.071465
                 energy =   -1.356470
                kinetic =    1.176977
    potential(screened) =   -2.533447
       potential(ionic) =   -8.057990

   izeta = 2
                 rmatch =    2.905100
              splitnorm =    0.150000
                 energy =   -1.158343
                kinetic =    1.813009
    potential(screened) =   -2.971352
       potential(ionic) =   -8.901931

SPLIT: Orbitals with angular momentum L= 1

SPLIT: Basis orbitals for state 2p

SPLIT: PAO cut-off radius determined from an
SPLIT: energy shift=  0.007350 Ry

   izeta = 1
                 lambda =    1.000000
                     rc =    4.972977
                 energy =   -0.513884
                kinetic =    3.441732
    potential(screened) =   -3.955616
       potential(ionic) =   -9.287901

   izeta = 2
                 rmatch =    3.054066
              splitnorm =    0.150000
                 energy =   -0.318226
                kinetic =    5.125348
    potential(screened) =   -5.443573
       potential(ionic) =  -11.380999

POLgen: Perturbative polarization orbital with L=  2

POLgen: Polarization orbital for state 2p

   izeta = 1
                     rc =    4.972977
                 energy =    1.607437
                kinetic =    3.268125
    potential(screened) =   -1.660688
       potential(ionic) =   -5.973652
atom: Total number of Sankey-type orbitals: 13

atm_pop: Valence configuration (for local Pseudopot. screening):
 2s( 2.00)                                                            
 2p( 3.00)                                                            
Vna: chval, zval:    5.00000   5.00000

Vna:  Cut-off radius for the neutral-atom potential:   4.972977
comcore: Pseudo-core radius Rcore=  1.554824

atom: _________________________________________________________________________

<basis_specs>
===============================================================================
C                    Z=   6    Mass=  12.010        Charge= 0.17977+309
Lmxo=1 Lmxkb= 3    BasisType=split      Semic=F
L=0  Nsemic=0  Cnfigmx=2
          n=1  nzeta=2  polorb=0
            splnorm:   0.15000    
               vcte:    0.0000    
               rinn:    0.0000    
                rcs:    0.0000      0.0000    
            lambdas:    1.0000      1.0000    
L=1  Nsemic=0  Cnfigmx=2
          n=1  nzeta=2  polorb=1
            splnorm:   0.15000    
               vcte:    0.0000    
               rinn:    0.0000    
                rcs:    0.0000      0.0000    
            lambdas:    1.0000      1.0000    
-------------------------------------------------------------------------------
L=0  Nkbl=1  erefs: 0.17977+309
L=1  Nkbl=1  erefs: 0.17977+309
L=2  Nkbl=1  erefs: 0.17977+309
L=3  Nkbl=1  erefs: 0.17977+309
===============================================================================
</basis_specs>

atom: Called for C                     (Z =   6)

read_vps: Pseudopotential generation method:
read_vps: ATM3      Troullier-Martins                       
Total valence charge:    4.00000

read_vps: Pseudopotential includes a core correction:
read_vps: Pseudo-core for xc-correction

xc_check: Exchange-correlation functional:
xc_check: GGA Perdew, Burke & Ernzerhof 1996
V l=0 = -2*Zval/r beyond r=  1.5227
V l=1 = -2*Zval/r beyond r=  1.5227
V l=2 = -2*Zval/r beyond r=  1.5227
V l=3 = -2*Zval/r beyond r=  1.5038
All V_l potentials equal beyond r=  1.5227
This should be close to max(r_c) in ps generation
All pots = -2*Zval/r beyond r=  1.5227

VLOCAL1: 99.0% of the norm of Vloc inside     18.722 Ry
VLOCAL1: 99.9% of the norm of Vloc inside     42.668 Ry
atom: Maximum radius for 4*pi*r*r*local-pseudopot. charge    1.83678
atom: Maximum radius for r*vlocal+2*Zval:    1.58088
GHOST: No ghost state for L =  0
GHOST: No ghost state for L =  1
GHOST: No ghost state for L =  2
GHOST: No ghost state for L =  3

KBgen: Kleinman-Bylander projectors: 
   l= 0   rc=  1.704034   el= -1.009801   Ekb=  5.335044   kbcos=  0.316824
   l= 1   rc=  1.704034   el= -0.388707   Ekb= -3.785862   kbcos= -0.366464
   l= 2   rc=  1.791422   el=  0.001971   Ekb= -0.970471   kbcos= -0.009212
   l= 3   rc=  1.859892   el=  0.003065   Ekb= -0.399525   kbcos= -0.001223

KBgen: Total number of  Kleinman-Bylander projectors:   16
atom: -------------------------------------------------------------------------

atom: SANKEY-TYPE ORBITALS:
atom: Selected multiple-zeta basis: split     

SPLIT: Orbitals with angular momentum L= 0

SPLIT: Basis orbitals for state 2s

SPLIT: PAO cut-off radius determined from an
SPLIT: energy shift=  0.007350 Ry

   izeta = 1
                 lambda =    1.000000
                     rc =    4.632753
                 energy =   -1.002270
                kinetic =    0.855760
    potential(screened) =   -1.858031
       potential(ionic) =   -5.417575

   izeta = 2
                 rmatch =    3.431921
              splitnorm =    0.150000
                 energy =   -0.867111
                kinetic =    1.300804
    potential(screened) =   -2.167915
       potential(ionic) =   -5.962684

SPLIT: Orbitals with angular momentum L= 1

SPLIT: Basis orbitals for state 2p

SPLIT: PAO cut-off radius determined from an
SPLIT: energy shift=  0.007350 Ry

   izeta = 1
                 lambda =    1.000000
                     rc =    5.658549
                 energy =   -0.381140
                kinetic =    2.399701
    potential(screened) =   -2.780841
       potential(ionic) =   -6.206085

   izeta = 2
                 rmatch =    3.653288
              splitnorm =    0.150000
                 energy =   -0.249149
                kinetic =    3.542762
    potential(screened) =   -3.791911
       potential(ionic) =   -7.581078

POLgen: Perturbative polarization orbital with L=  2

POLgen: Polarization orbital for state 2p

   izeta = 1
                     rc =    5.658549
                 energy =    1.109913
                kinetic =    2.304789
    potential(screened) =   -1.194876
       potential(ionic) =   -4.013592
atom: Total number of Sankey-type orbitals: 13

atm_pop: Valence configuration (for local Pseudopot. screening):
 2s( 2.00)                                                            
 2p( 2.00)                                                            
Vna: chval, zval:    4.00000   4.00000

Vna:  Cut-off radius for the neutral-atom potential:   5.658549
comcore: Pseudo-core radius Rcore=  1.791422

atom: _________________________________________________________________________

prinput: Basis input ----------------------------------------------------------

PAO.BasisType split     

%block ChemicalSpeciesLabel
    1    7 N                       # Species index, atomic number, species label
    2    6 C                       # Species index, atomic number, species label
%endblock ChemicalSpeciesLabel

%block PAO.Basis                 # Define Basis set
N                     2                    # Species label, number of l-shells
 n=2   0   2                         # n, l, Nzeta 
   4.071      2.905   
   1.000      1.000   
 n=2   1   2 P   1                   # n, l, Nzeta, Polarization, NzetaPol
   4.973      3.054   
   1.000      1.000   
C                     2                    # Species label, number of l-shells
 n=2   0   2                         # n, l, Nzeta 
   4.633      3.432   
   1.000      1.000   
 n=2   1   2 P   1                   # n, l, Nzeta, Polarization, NzetaPol
   5.659      3.653   
   1.000      1.000   
%endblock PAO.Basis

prinput: ----------------------------------------------------------------------

coor:   Atomic-coordinates input format  =     Fractional

siesta: Atomic coordinates (Bohr) and species
siesta:     -2.35420  38.89134   0.00000  1        1
siesta:     -2.35420  41.57980   0.00000  1        2
siesta:      2.30256  38.89134   0.00000  1        3
siesta:     -4.68258  34.85847   0.00000  1        4
siesta:     -4.68258  37.54693   0.00000  1        5
siesta:      2.30256  14.69411   0.00000  1        6
siesta:      2.30256  17.38257   0.00000  1        7
siesta:     -0.02582  18.72698   0.00000  1        8
siesta:     -0.02582  21.41544   0.00000  1        9
siesta:     -4.68258  21.41544   0.00000  1       10
siesta:     -2.35420  22.75985   0.00000  1       11
siesta:     -7.01096  22.75985   0.00000  1       12
siesta:     -7.01096  25.44831   0.00000  1       13
siesta:     -9.33934  26.79272   0.00000  1       14
siesta:     -9.33934  29.48119   0.00000  1       15
siesta:     -4.68258  26.79272   0.00000  1       16
siesta:     -4.68258  29.48119   0.00000  1       17
siesta:     -2.35420  30.82560   0.00000  1       18
siesta:     -2.35420  33.51406   0.00000  1       19
siesta:     -7.01096  30.82560   0.00000  1       20
siesta:     -7.01096  33.51406   0.00000  1       21
siesta:     -0.02582  34.85847   0.00000  1       22
siesta:     -0.02582  37.54693   0.00000  1       23
siesta:     -0.02582   2.59549   0.00000  2       24
siesta:     -0.02582   5.28395   0.00000  2       25
siesta:      2.30256  41.57980   0.00000  2       26
siesta:      4.63094  34.85847   0.00000  2       27
siesta:      4.63094  37.54693   0.00000  2       28
siesta:      6.95932  30.82560   0.00000  2       29
siesta:      6.95932  33.51406   0.00000  2       30
siesta:      9.28770  26.79272   0.00000  2       31
siesta:      9.28770  29.48119   0.00000  2       32
siesta:      2.30256   6.62836   0.00000  2       33
siesta:      2.30256   9.31683   0.00000  2       34
siesta:      4.63094  10.66124   0.00000  2       35
siesta:      4.63094  13.34970   0.00000  2       36
siesta:      6.95932  14.69411   0.00000  2       37
siesta:      6.95932  17.38257   0.00000  2       38
siesta:      9.28770  18.72698   0.00000  2       39
siesta:      9.28770  21.41544   0.00000  2       40
siesta:     11.61608  22.75985   0.00000  2       41
siesta:     11.61608  25.44831   0.00000  2       42
siesta:     -2.35420   6.62836   0.00000  2       43
siesta:     -2.35420   9.31683   0.00000  2       44
siesta:     -0.02582  10.66124   0.00000  2       45
siesta:     -0.02582  13.34970   0.00000  2       46
siesta:      4.63094  18.72698   0.00000  2       47
siesta:      4.63094  21.41544   0.00000  2       48
siesta:      6.95932  22.75985   0.00000  2       49
siesta:      6.95932  25.44831   0.00000  2       50
siesta:     -4.68258  10.66124   0.00000  2       51
siesta:     -4.68258  13.34970   0.00000  2       52
siesta:     -2.35420  14.69411   0.00000  2       53
siesta:     -2.35420  17.38257   0.00000  2       54
siesta:      2.30256  22.75985   0.00000  2       55
siesta:      2.30256  25.44831   0.00000  2       56
siesta:     -7.01096  14.69411   0.00000  2       57
siesta:     -7.01096  17.38257   0.00000  2       58
siesta:     -4.68258  18.72698   0.00000  2       59
siesta:     -2.35420  25.44831   0.00000  2       60
siesta:     -9.33934  18.72698   0.00000  2       61
siesta:     -9.33934  21.41544   0.00000  2       62
siesta:    -11.66772  22.75985   0.00000  2       63
siesta:    -11.66772  25.44831   0.00000  2       64
siesta:      4.63094  26.79272   0.00000  2       65
siesta:      4.63094  29.48119   0.00000  2       66
siesta:     -0.02582  26.79272   0.00000  2       67
siesta:     -0.02582  29.48119   0.00000  2       68
siesta:      2.30256  30.82560   0.00000  2       69
siesta:      2.30256  33.51406   0.00000  2       70
siesta:     -0.02582  42.92421   0.00000  2       71
siesta:     -0.02582  45.61267   0.00000  2       72

siesta: System type = slab      

initatomlists: Number of atoms, orbitals, and projectors:     72   936  1152

siesta: ******************** Simulation parameters ****************************
siesta:
siesta: The following are some of the parameters of the simulation.
siesta: A complete list of the parameters used, including default values,
siesta: can be found in file out.fdf
siesta:
redata: Non-Collinear-spin run           =     F
redata: SpinPolarized (Up/Down) run      =     F
redata: Number of spin components        =     1
redata: Long output                      =     F
redata: Number of Atomic Species         =        2
redata: Charge density info will appear in .RHO file
redata: Write Mulliken Pop.              =     NO
redata: Mesh Cutoff                      =   200.0000  Ry
redata: Net charge of the system         =     0.0000 |e|
redata: Max. number of SCF Iter          =      500
redata: SCF convergence failure will abort job
redata: Performing Pulay mixing using    =    10 iterations
redata: Mix DM in first SCF step ?       =     F
redata: Write Pulay info on disk?        =     F
redata: Discard 1st Pulay DM after  kick =     F
redata: New DM Mixing Weight             =     0.0500
redata: New DM Occupancy tolerance       = 0.000000000001
redata: No kicks to SCF
redata: DM Mixing Weight for Kicks       =     0.5000
redata: DM Tolerance for SCF             =     0.000100
redata: Require Energy convergence for SCF =     F
redata: DM Energy tolerance for SCF      =     0.000100 eV
redata: Require Harris convergence for SCF =     F
redata: DM Harris energy tolerance for SCF =     0.000100 eV
redata: Using Saved Data (generic)   =     F
redata: Use continuation files for DM    =     T
redata: Neglect nonoverlap interactions  =     F
redata: Method of Calculation            =     Diagonalization
redata: Divide and Conquer               =     T
redata: Electronic Temperature           =     0.0019  Ry
redata: Fix the spin of the system       =     F
redata: Dynamics option                  =     Verlet MD run
redata: Initial MD time step             =        1
redata:   Final MD time step             =        1
redata: Length of MD time step           =     1.0000  fs
redata: Initial Temperature of MD run    =     0.0000  K
redata: Perform a MD quench              =     F
redata: ***********************************************************************
Total number of electrons:   311.000000
Total ionic charge:   311.000000

* ProcessorY, Blocksize:    2  24

k-point displ. along   1 input, could be:     0.50    0.00
k-point displ. along   2 input, could be:     0.50    0.00
 Kpoints in:          231 . Kpoints trimmed:          231

siesta: k-grid: Number of k-points =   231
siesta: k-grid: Cutoff (effective) =     5.000 Ang
siesta: k-grid: Supercell and displacements
siesta: k-grid:   21   0   0      0.500
siesta: k-grid:    0  21   0      0.500
siesta: k-grid:    0   0   1      0.000
Naive supercell factors:     2    2    2

superc: Internal auxiliary supercell:     2 x     2 x     2  =       8
superc: Number of atoms, orbitals, and projectors:    576   7488   9216

* Maximum dynamic memory allocated =     4 MB

siesta:                 ==============================
                            Begin MD step =      1
                        ==============================

superc: Internal auxiliary supercell:     2 x     2 x     2  =       8
superc: Number of atoms, orbitals, and projectors:    576   7488   9216

outcell: Unit cell vectors (Ang):
       12.804619    7.392750    0.000000
        0.000000   14.785500    0.000000
        0.000000    0.000000   10.000000

outcell: Cell vector modules (Ang)   :   14.785500   14.785500   10.000000
outcell: Cell angles (23,13,12) (deg):     90.0000     90.0000     60.0000
outcell: Cell volume (Ang**3)        :   1893.2269
New_DM. Step:     1
Initializing Density Matrix...

InitMesh: MESH =   120 x   120 x    90 =     1296000
InitMesh: Mesh cutoff (required, used) =   200.000   223.865 Ry

* Maximum dynamic memory allocated =   179 MB

stepf: Fermi-Dirac step function

siesta: Program's energy decomposition (eV):
siesta: Ebs     =     -6363.139940
siesta: Eions   =     22100.188487
siesta: Ena     =      4971.214576
siesta: Ekin    =      8308.399223
siesta: Enl     =       -42.411645
siesta: DEna    =        -0.000015
siesta: DUscf   =         0.000000
siesta: DUext   =         0.000000
siesta: Exc     =     -4753.210584
siesta: eta*DQ  =         0.000000
siesta: Emadel  =         0.000000
siesta: Emeta   =         0.000000
siesta: Emolmec =         0.000000
siesta: Ekinion =         0.000000
siesta: Eharris =    -13226.924342
siesta: Etot    =    -13616.196932
siesta: FreeEng =    -13616.196932

siesta: iscf   Eharris(eV)      E_KS(eV)   FreeEng(eV)   dDmax  Ef(eV)
siesta:    1   -13226.9243   -13616.1969   -13616.1969  5.9338 -6.7402
timer: Routine,Calls,Time,% = IterSCF        1    3371.173  99.66
elaps: Routine,Calls,Wall,% = IterSCF        1     422.268  99.66
siesta:    2   -17376.4524   -12621.9306   -12621.9501 25.9815 -2.9403
siesta:    3   -13114.2182   -13438.3359   -13438.3780  2.8279 -5.2209
siesta:    4   -13092.8571   -13246.1773   -13246.2251  1.0323 -4.0807
siesta:    5   -13065.5482   -13176.4071   -13176.4852  1.0839 -3.8202
siesta:    6   -13062.5639   -13159.1987   -13159.2403  0.8964 -3.7729
siesta:    7   -13059.0456   -13125.5441   -13125.5845  0.7707 -3.8575
siesta:    8   -13057.8820   -13115.4537   -13115.4937  0.7208 -3.8613
siesta:    9   -13057.1904   -13097.9391   -13097.9850  0.6030 -3.8703
siesta:   10   -13057.2041   -13076.4868   -13076.5405  0.4401 -3.8776
siesta:   11   -13056.8080   -13057.8123   -13057.8894  0.3232 -3.8498
siesta:   12   -13056.7476   -13044.4793   -13044.5432  0.3591 -3.7137
siesta:   13   -13056.5002   -13041.0353   -13041.1161  0.1630 -3.7298
siesta:   14   -13056.0295   -13042.2916   -13042.3703  0.1799 -3.7370
siesta:   15   -13055.7999   -13044.2316   -13044.3089  0.2564 -3.7656
siesta:   16   -13055.7179   -13047.3150   -13047.3901  0.1209 -3.7931
siesta:   17   -13055.6886   -13048.9535   -13049.0338  0.0878 -3.7924
siesta:   18   -13055.6671   -13051.3529   -13051.4308  0.0837 -3.8029
siesta:   19   -13055.6560   -13052.5360   -13052.6169  0.0657 -3.8046
siesta:   20   -13055.6464   -13054.0010   -13054.0798  0.0573 -3.8036
siesta:   21   -13055.6461   -13054.9510   -13055.0302  0.0200 -3.8010
siesta:   22   -13055.6431   -13055.2128   -13055.2916  0.0174 -3.7956
siesta:   23   -13055.6414   -13055.0720   -13055.1517  0.0125 -3.7908
siesta:   24   -13055.6399   -13055.1816   -13055.2615  0.0089 -3.7883
siesta:   25   -13055.6396   -13055.1576   -13055.2373  0.0057 -3.7863
siesta:   26   -13055.6391   -13055.2176   -13055.2968  0.0059 -3.7856
siesta:   27   -13055.6389   -13055.3937   -13055.4731  0.0026 -3.7856
siesta:   28   -13055.6390   -13055.5544   -13055.6338  0.0030 -3.7859
siesta:   29   -13055.6388   -13055.6002   -13055.6796  0.0026 -3.7863
siesta:   30   -13055.6389   -13055.6376   -13055.7171  0.0021 -3.7865
siesta:   31   -13055.6388   -13055.6306   -13055.7099  0.0013 -3.7867
siesta:   32   -13055.6388   -13055.6537   -13055.7331  0.0008 -3.7868
siesta:   33   -13055.6388   -13055.6472   -13055.7267  0.0006 -3.7868
siesta:   34   -13055.6388   -13055.6429   -13055.7223  0.0004 -3.7868
siesta:   35   -13055.6388   -13055.6434   -13055.7228  0.0003 -3.7868
siesta:   36   -13055.6388   -13055.6367   -13055.7161  0.0002 -3.7867
siesta:   37   -13055.6388   -13055.6363   -13055.7157  0.0002 -3.7867
siesta:   38   -13055.6388   -13055.6383   -13055.7177  0.0001 -3.7867
siesta:   39   -13055.6388   -13055.6412   -13055.7206  0.0001 -3.7867

siesta: E_KS(eV) =           -13055.6424

siesta: E_KS - E_eggbox =    -13055.6424

siesta: Atomic forces (eV/Ang):
----------------------------------------
   Tot   -0.191681   -0.016217    0.000000
----------------------------------------
   Max  683.770491
   Res  183.627006    sqrt( Sum f_i^2 / 3N )
----------------------------------------
   Max  683.770491    constrained

Stress-tensor-Voigt (kbar):     -648.64    -3340.03       -0.07       27.45        0.00        0.00
(Free)E + p*V (eV/cell)   -11484.6314
Target enthalpy (eV/cell)   -13055.7218

siesta: Stress tensor (static) (eV/Ang**3):
        -0.404843    0.017131    0.000000
         0.017132   -2.084659    0.000000
         0.000000    0.000000   -0.000042

siesta: Pressure (static):       1329.57735487  kBar

siesta: Stress tensor (total) (eV/Ang**3):
        -0.404843    0.017131    0.000000
         0.017132   -2.084659    0.000000
         0.000000    0.000000   -0.000042

siesta: Pressure (total):       1329.57735487  kBar

siesta: Temp_ion =       0.000 K

* Maximum dynamic memory allocated =   195 MB
Computing bands...

siesta: Program's energy decomposition (eV):
siesta: Ebs     =     -5080.533792
siesta: Eions   =     22100.188487
siesta: Ena     =      4971.214576
siesta: Ekin    =     11511.239862
siesta: Enl     =     -1778.212543
siesta: DEna    =      -839.076722
siesta: DUscf   =       117.051139
siesta: DUext   =         0.000000
siesta: Exc     =     -4937.670222
siesta: eta*DQ  =         0.000000
siesta: Emadel  =         0.000000
siesta: Emeta   =         0.000000
siesta: Emolmec =         0.000000
siesta: Ekinion =         0.000000
siesta: Eharris =    -13055.638837
siesta: Etot    =    -13055.642397
siesta: FreeEng =    -13055.721807

siesta: Final energy (eV):
siesta:  Band Struct. =   -5080.533792
siesta:       Kinetic =   11511.239862
siesta:       Hartree =   37419.796116
siesta:    Ext. field =       0.000000
siesta:   Exch.-corr. =   -4937.670222
siesta:  Ion-electron =  -85810.269054
siesta:       Ion-ion =   28761.260901
siesta:       Ekinion =       0.000000
siesta:         Total =  -13055.642397

siesta: Atomic forces (eV/Ang):
siesta:      1    2.103831  106.789059    0.000000
siesta:      2  -19.079258 -650.357902    0.000000
siesta:      3    2.139256  109.213313    0.000000
siesta:      4  -31.027199    8.253433    0.000000
siesta:      5  -26.950003 -657.770207    0.000000
siesta:      6    6.199862  682.019782    0.000000
siesta:      7   34.065219  -10.132196    0.000000
siesta:      8  -13.593235  683.770491    0.000000
siesta:      9    0.278279   -4.289965    0.000000
siesta:     10    0.504948   -1.060558    0.000000
siesta:     11   -3.341449    2.142502    0.000000
siesta:     12   -0.304921    0.082314    0.000000
siesta:     13    1.798988   -0.091072    0.000000
siesta:     14   -2.647052    0.904129    0.000000
siesta:     15    0.794532    0.278107    0.000000
siesta:     16    0.544479   -1.870289    0.000000
siesta:     17   -2.165251   -3.599664    0.000000
siesta:     18  -26.790711    7.004091    0.000000
siesta:     19    3.069356 -677.114653    0.000000
siesta:     20   -1.361872   -0.187924    0.000000
siesta:     21   -1.195347   -3.452106    0.000000
siesta:     22    2.424721  107.093645    0.000000
siesta:     23    0.242622 -665.313645    0.000000
siesta:     24  -13.823541  549.004183    0.000000
siesta:     25   -1.094120 -121.355829    0.000000
siesta:     26   18.867644 -654.199573    0.000000
siesta:     27   27.285468    4.062060    0.000000
siesta:     28   32.530048 -553.739575    0.000000
siesta:     29    2.158832    0.200236    0.000000
siesta:     30   -3.049781    1.664239    0.000000
siesta:     31    2.266845    2.613456    0.000000
siesta:     32   -1.440179   -0.227723    0.000000
siesta:     33   -3.507189  547.242607    0.000000
siesta:     34   -0.861998 -120.467500    0.000000
siesta:     35   20.740924  549.434118    0.000000
siesta:     36   27.862742   -4.985273    0.000000
siesta:     37   -3.236612   -1.858781    0.000000
siesta:     38    1.718047   -0.174468    0.000000
siesta:     39   -1.392180    0.359213    0.000000
siesta:     40    1.647900   -2.626118    0.000000
siesta:     41    0.121981    7.778872    0.000000
siesta:     42   -0.299428   -7.712703    0.000000
siesta:     43  -24.236117  655.130816    0.000000
siesta:     44    2.049062 -115.807065    0.000000
siesta:     45   -5.739677  672.530696    0.000000
siesta:     46   -2.243804 -118.425966    0.000000
siesta:     47   -0.652016    2.733114    0.000000
siesta:     48   -0.894697   -1.230030    0.000000
siesta:     49    0.091755    1.122585    0.000000
siesta:     50   -0.318502   -0.920561    0.000000
siesta:     51  -21.758352  659.468196    0.000000
siesta:     52  -26.690079   -3.457093    0.000000
siesta:     53  -15.151153  681.053511    0.000000
siesta:     54  -27.148349  -10.496073    0.000000
siesta:     55    0.650897    1.366853    0.000000
siesta:     56   -0.319719   -1.693892    0.000000
siesta:     57    2.325701   -0.776539    0.000000
siesta:     58   -1.587682    0.040382    0.000000
siesta:     59    1.682462    3.580099    0.000000
siesta:     60   -0.449243    1.511645    0.000000
siesta:     61    0.669743    0.115534    0.000000
siesta:     62   -1.680691   -1.379581    0.000000
siesta:     63    0.969718    3.557874    0.000000
siesta:     64    1.705480   -0.994974    0.000000
siesta:     65    0.494826    0.315754    0.000000
siesta:     66   -1.369117   -2.557076    0.000000
siesta:     67   -1.323072   -0.680444    0.000000
siesta:     68   19.378260 -575.399531    0.000000
siesta:     69   23.720086    4.590215    0.000000
siesta:     70   27.678842 -562.305864    0.000000
siesta:     71    5.085510  121.618137    0.000000
siesta:     72   12.663046 -639.949064    0.000000
siesta: ----------------------------------------
siesta:    Tot   -0.191681   -0.016217    0.000000

siesta: Stress tensor (static) (eV/Ang**3):
siesta:    -0.404843    0.017131    0.000000
siesta:     0.017132   -2.084659    0.000000
siesta:     0.000000    0.000000   -0.000042

siesta: Cell volume =       1893.226884 Ang**3

siesta: Pressure (static):
siesta:                Solid            Molecule  Units
siesta:           0.00903810          0.14665923  Ry/Bohr**3
siesta:           0.82984794         13.46575148  eV/Ang**3
siesta:        1329.57735487      21574.74557967  kBar
(Free)E+ p_basis*V_orbitals  =      -13028.272352
(Free)Eharris+ p_basis*V_orbitals  =      -13028.269963

siesta: Electric dipole (a.u.)  =    0.000000    0.000000    0.000000
siesta: Electric dipole (Debye) =    0.000000    0.000000    0.000000

* Maximum dynamic memory allocated : Node    0 =   195 MB
* Maximum dynamic memory allocated : Node    1 =    70 MB
* Maximum dynamic memory allocated : Node    2 =    71 MB
* Maximum dynamic memory allocated : Node    3 =   187 MB
* Maximum dynamic memory allocated : Node    4 =   189 MB
* Maximum dynamic memory allocated : Node    5 =    71 MB
* Maximum dynamic memory allocated : Node    6 =    72 MB
* Maximum dynamic memory allocated : Node    7 =   173 MB

* Maximum memory occured during matrixMtoO                    

timer: CPU execution times:
timer:  Routine       Calls   Time/call    Tot.time        %
timer:  siesta            1  130449.143  130449.143   100.00
timer:  Setup             1       3.836       3.836     0.00
timer:  bands             3     243.975     731.925     0.56
timer:  writewave         1       0.043       0.043     0.00
timer:  KSV_init          1       0.007       0.007     0.00
timer:  IterMD            1  129708.152  129708.152    99.43
timer:  hsparse           1       0.284       0.284     0.00
timer:  overlap           1       7.130       7.130     0.01
timer:  IterSCF          39    3322.154  129563.991    99.32
timer:  kinefsm           2       3.667       7.334     0.01
timer:  nlefsm            2      17.273      34.545     0.03
timer:  DHSCF            40      70.969    2838.767     2.18
timer:  DHSCF1            1       0.743       0.743     0.00
timer:  DHSCF2            1      29.835      29.835     0.02
timer:  REORD           322       0.005       1.599     0.00
timer:  POISON           41       0.874      35.815     0.03
timer:  DHSCF3           40      69.496    2779.842     2.13
timer:  rhoofd           40      15.000     600.009     0.46
timer:  cellXC           40       3.263     130.526     0.10
timer:  vmat             40      32.281    1291.222     0.99
timer:  MolMec            2       0.000       0.000     0.00
timer:  diagon           39    3250.045  126751.767    97.17
timer:  c-eigval       9130       6.026   55014.933    42.17
timer:  c-buildHS      9130       0.047     429.236     0.33
timer:  cdiag         18139       6.160  111741.530    85.66
timer:  cdiag1        18139       0.384    6969.813     5.34
timer:  cdiag2        18139       1.767   32051.321    24.57
timer:  cdiag3        18139       3.738   67794.533    51.97
timer:  cdiag4        18139       0.151    2739.326     2.10
timer:  c-eigvec       9009       6.382   57491.712    44.07
timer:  c-buildD       9009       1.657   14931.229    11.45
timer:  DHSCF4            1      27.575      27.575     0.02
timer:  dfscf             1      25.719      25.719     0.02
timer:  overfsm           1       0.379       0.379     0.00
timer:  optical           1       4.601       4.601     0.00
  

elaps: ELAPSED times:
elaps:  Routine       Calls   Time/call    Tot.time        %
elaps:  siesta            1   16336.960   16336.960   100.00
elaps:  Setup             1       0.499       0.499     0.00
elaps:  bands             3      30.573      91.719     0.56
elaps:  writewave         1       0.006       0.006     0.00
elaps:  KSV_init          1       0.001       0.001     0.00
elaps:  IterMD            1   16244.136   16244.136    99.43
elaps:  hsparse           1       0.036       0.036     0.00
elaps:  overlap           1       0.892       0.892     0.01
elaps:  IterSCF          39     416.056   16226.196    99.32
elaps:  kinefsm           2       0.459       0.918     0.01
elaps:  nlefsm            2       2.191       4.381     0.03
elaps:  DHSCF            40       8.977     359.061     2.20
elaps:  DHSCF1            1       0.095       0.095     0.00
elaps:  DHSCF2            1       3.734       3.734     0.02
elaps:  REORD           322       0.001       0.214     0.00
elaps:  POISON           41       0.110       4.501     0.03
elaps:  DHSCF3           40       8.704     348.152     2.13
elaps:  rhoofd           40       4.105     164.193     1.01
elaps:  cellXC           40       0.408      16.334     0.10
elaps:  vmat             40       4.043     161.722     0.99
elaps:  MolMec            2       0.000       0.000     0.00
elaps:  diagon           39     407.020   15873.771    97.16
elaps:  c-eigval       9130       0.755    6889.665    42.17
elaps:  c-buildHS      9130       0.006      59.246     0.36
elaps:  cdiag         18139       0.768   13934.765    85.30
elaps:  cdiag1        18139       0.048     872.875     5.34
elaps:  cdiag2        18139       0.221    4014.894    24.58
elaps:  cdiag3        18139       0.469    8501.424    52.04
elaps:  cdiag4        18139       0.019     335.897     2.06
elaps:  c-eigvec       9009       0.794    7151.948    43.78
elaps:  c-buildD       9009       0.213    1917.574    11.74
elaps:  DHSCF4            1       6.981       6.981     0.04
elaps:  dfscf             1       6.590       6.590     0.04
elaps:  overfsm           1       0.047       0.047     0.00
elaps:  optical           1       0.001       0.001     0.00
  
>> End of run:  26-APR-2016   7:53:53
