Siesta Version:                                        siesta-3.2-pl-3
Architecture  : x86_64-unknown-linux-gnu--unknown
Compiler flags: mpiifort -g -O2 -fPIC -xSSE4.1 -fp-model source -shared-intel 
PARALLEL version

* Running on   12 nodes in parallel
>> Start of run:   7-MAY-2016   6:27:20

                           ***********************       
                           *  WELCOME TO SIESTA  *       
                           ***********************       

reinit: Reading from standard input
************************** Dump of input data file ****************************
#(1) General system descriptors
SystemName            GRP_doping    # Descriptive name of the system
SystemLabel           GRP_doping    # Short name for naming files
%include STRUCT.fdf
%include KPT.fdf
%include BASIS.fdf
#%include TS.fdf # for transiesta calculation
#(4) DFT, Grid, SCF
XC.functional         GGA           # LDA or GGA (default = LDA)
XC.authors            PBE           # CA (Ceperley-Aldr) = PZ
                                    #    (Perdew-Zunger) - LDA - Default
                                    # PW92 (Perdew-Wang-92) - LDA
                                    # PBE (Perdew-Burke-Ernzerhof) - GGA
MeshCutoff            200.000000    Ry      # Default: 50.0 Ry ~ 0.444 Bohr
                                    #         100.0 Ry ~ 0.314 Bohr
MaxSCFIterations      500           # Default: 50
DM.MixingWeight       0.05          # Default: 0.25
DM.NumberPulay        10            # Default: 0
DM.PulayOnFile        F             # SystemLabel.P1, SystemLabel.P2
DM.Tolerance          1.d-4         # Default: 1.d-4
DM.UseSaveDM          .true.        # because of the bug
SCFMustConverge       .true.
NeglNonOverlapInt     F             # Default: F
#(5) Eigenvalue problem: order-N or diagonalization
SolutionMethod        Diagon        # or Transiesta
ElectronicTemperature 300.0 K       # Default: 300.0 K
#(6) Molecular dynamics and relaxations
#MD.TypeOfRun          CG            # Type of dynamics:
#MD.VariableCell       F
#MD.NumCGsteps         0           # 0 for single-point / 100 for gopt
#MD.MaxCGDispl         0.2 Bohr      # Default: 0.2 Bohr
#MD.MaxForceTol        0.02 eV/Ang   # Default: 0.04 eV/Ang
#MD.MaxStressTol       1.0 GPa       # Default: 1.0 GPa
# Geometry Constraints
#%block GeometryConstraints
#	position from 1 to 44
#%endblock GeometryConstraints
BandLinesScale   pi/a
%block BandLines
 1   0.00000000  0.00000000  0.00000000
50   0.00000000  0.07809418  0.00000000
50   0.04509075  0.07809242  0.00000000
20   0.00000000  0.00000000  0.00000000
%endblock BandLines
************************** End of input data file *****************************

reinit: -----------------------------------------------------------------------
reinit: System Name: GRP_doping
reinit: -----------------------------------------------------------------------
reinit: System Label: GRP_doping                                                  
reinit: -----------------------------------------------------------------------

initatom: Reading input for the pseudopotentials and atomic orbitals ----------
 Species number:            1  Label: N Atomic number:           7
 Species number:            2  Label: C Atomic number:           6
Ground state valence configuration:   2s02  2p03
Reading pseudopotential information in formatted form from N.psf

Valence configuration for pseudopotential generation:
2s( 2.00) rc: 1.48
2p( 3.00) rc: 1.48
3d( 0.00) rc: 1.48
4f( 0.00) rc: 1.48
Ground state valence configuration:   2s02  2p02
Reading pseudopotential information in formatted form from C.psf

Valence configuration for pseudopotential generation:
2s( 2.00) rc: 1.54
2p( 2.00) rc: 1.54
3d( 0.00) rc: 1.54
4f( 0.00) rc: 1.54
For N, standard SIESTA heuristics set lmxkb to 3
 (one more than the basis l, including polarization orbitals).
Use PS.lmax or PS.KBprojectors blocks to override.
For C, standard SIESTA heuristics set lmxkb to 3
 (one more than the basis l, including polarization orbitals).
Use PS.lmax or PS.KBprojectors blocks to override.

<basis_specs>
===============================================================================
N                    Z=   7    Mass=  14.010        Charge= 0.17977+309
Lmxo=1 Lmxkb= 3    BasisType=split      Semic=F
L=0  Nsemic=0  Cnfigmx=2
          n=1  nzeta=2  polorb=0
            splnorm:   0.15000    
               vcte:    0.0000    
               rinn:    0.0000    
                rcs:    0.0000      0.0000    
            lambdas:    1.0000      1.0000    
L=1  Nsemic=0  Cnfigmx=2
          n=1  nzeta=2  polorb=1
            splnorm:   0.15000    
               vcte:    0.0000    
               rinn:    0.0000    
                rcs:    0.0000      0.0000    
            lambdas:    1.0000      1.0000    
-------------------------------------------------------------------------------
L=0  Nkbl=1  erefs: 0.17977+309
L=1  Nkbl=1  erefs: 0.17977+309
L=2  Nkbl=1  erefs: 0.17977+309
L=3  Nkbl=1  erefs: 0.17977+309
===============================================================================
</basis_specs>

atom: Called for N                     (Z =   7)

read_vps: Pseudopotential generation method:
read_vps: ATM3      Troullier-Martins                       
Total valence charge:    5.00000

read_vps: Pseudopotential includes a core correction:
read_vps: Pseudo-core for xc-correction

xc_check: Exchange-correlation functional:
xc_check: GGA Perdew, Burke & Ernzerhof 1996
V l=0 = -2*Zval/r beyond r=  1.4606
V l=1 = -2*Zval/r beyond r=  1.4606
V l=2 = -2*Zval/r beyond r=  1.4606
V l=3 = -2*Zval/r beyond r=  1.4606
All V_l potentials equal beyond r=  1.4606
This should be close to max(r_c) in ps generation
All pots = -2*Zval/r beyond r=  1.4606

VLOCAL1: 99.0% of the norm of Vloc inside     20.347 Ry
VLOCAL1: 99.9% of the norm of Vloc inside     46.372 Ry
atom: Maximum radius for 4*pi*r*r*local-pseudopot. charge    1.76189
atom: Maximum radius for r*vlocal+2*Zval:    1.53550
GHOST: No ghost state for L =  0
GHOST: No ghost state for L =  1
GHOST: No ghost state for L =  2
GHOST: No ghost state for L =  3

KBgen: Kleinman-Bylander projectors: 
   l= 0   rc=  1.634559   el= -1.363963   Ekb=  5.296955   kbcos=  0.335621
   l= 1   rc=  1.614250   el= -0.521451   Ekb= -5.259161   kbcos= -0.433408
   l= 2   rc=  1.718383   el=  0.001991   Ekb= -1.271464   kbcos= -0.007566
   l= 3   rc=  1.761893   el=  0.003093   Ekb= -0.494769   kbcos= -0.001015

KBgen: Total number of  Kleinman-Bylander projectors:   16
atom: -------------------------------------------------------------------------

atom: SANKEY-TYPE ORBITALS:
atom: Selected multiple-zeta basis: split     

SPLIT: Orbitals with angular momentum L= 0

SPLIT: Basis orbitals for state 2s

SPLIT: PAO cut-off radius determined from an
SPLIT: energy shift=  0.007350 Ry

   izeta = 1
                 lambda =    1.000000
                     rc =    4.071465
                 energy =   -1.356470
                kinetic =    1.176977
    potential(screened) =   -2.533447
       potential(ionic) =   -8.057990

   izeta = 2
                 rmatch =    2.905100
              splitnorm =    0.150000
                 energy =   -1.158343
                kinetic =    1.813009
    potential(screened) =   -2.971352
       potential(ionic) =   -8.901931

SPLIT: Orbitals with angular momentum L= 1

SPLIT: Basis orbitals for state 2p

SPLIT: PAO cut-off radius determined from an
SPLIT: energy shift=  0.007350 Ry

   izeta = 1
                 lambda =    1.000000
                     rc =    4.972977
                 energy =   -0.513884
                kinetic =    3.441732
    potential(screened) =   -3.955616
       potential(ionic) =   -9.287901

   izeta = 2
                 rmatch =    3.054066
              splitnorm =    0.150000
                 energy =   -0.318226
                kinetic =    5.125348
    potential(screened) =   -5.443573
       potential(ionic) =  -11.380999

POLgen: Perturbative polarization orbital with L=  2

POLgen: Polarization orbital for state 2p

   izeta = 1
                     rc =    4.972977
                 energy =    1.607437
                kinetic =    3.268125
    potential(screened) =   -1.660688
       potential(ionic) =   -5.973652
atom: Total number of Sankey-type orbitals: 13

atm_pop: Valence configuration (for local Pseudopot. screening):
 2s( 2.00)                                                            
 2p( 3.00)                                                            
Vna: chval, zval:    5.00000   5.00000

Vna:  Cut-off radius for the neutral-atom potential:   4.972977
comcore: Pseudo-core radius Rcore=  1.554824

atom: _________________________________________________________________________

<basis_specs>
===============================================================================
C                    Z=   6    Mass=  12.010        Charge= 0.17977+309
Lmxo=1 Lmxkb= 3    BasisType=split      Semic=F
L=0  Nsemic=0  Cnfigmx=2
          n=1  nzeta=2  polorb=0
            splnorm:   0.15000    
               vcte:    0.0000    
               rinn:    0.0000    
                rcs:    0.0000      0.0000    
            lambdas:    1.0000      1.0000    
L=1  Nsemic=0  Cnfigmx=2
          n=1  nzeta=2  polorb=1
            splnorm:   0.15000    
               vcte:    0.0000    
               rinn:    0.0000    
                rcs:    0.0000      0.0000    
            lambdas:    1.0000      1.0000    
-------------------------------------------------------------------------------
L=0  Nkbl=1  erefs: 0.17977+309
L=1  Nkbl=1  erefs: 0.17977+309
L=2  Nkbl=1  erefs: 0.17977+309
L=3  Nkbl=1  erefs: 0.17977+309
===============================================================================
</basis_specs>

atom: Called for C                     (Z =   6)

read_vps: Pseudopotential generation method:
read_vps: ATM3      Troullier-Martins                       
Total valence charge:    4.00000

read_vps: Pseudopotential includes a core correction:
read_vps: Pseudo-core for xc-correction

xc_check: Exchange-correlation functional:
xc_check: GGA Perdew, Burke & Ernzerhof 1996
V l=0 = -2*Zval/r beyond r=  1.5227
V l=1 = -2*Zval/r beyond r=  1.5227
V l=2 = -2*Zval/r beyond r=  1.5227
V l=3 = -2*Zval/r beyond r=  1.5038
All V_l potentials equal beyond r=  1.5227
This should be close to max(r_c) in ps generation
All pots = -2*Zval/r beyond r=  1.5227

VLOCAL1: 99.0% of the norm of Vloc inside     18.722 Ry
VLOCAL1: 99.9% of the norm of Vloc inside     42.668 Ry
atom: Maximum radius for 4*pi*r*r*local-pseudopot. charge    1.83678
atom: Maximum radius for r*vlocal+2*Zval:    1.58088
GHOST: No ghost state for L =  0
GHOST: No ghost state for L =  1
GHOST: No ghost state for L =  2
GHOST: No ghost state for L =  3

KBgen: Kleinman-Bylander projectors: 
   l= 0   rc=  1.704034   el= -1.009801   Ekb=  5.335044   kbcos=  0.316824
   l= 1   rc=  1.704034   el= -0.388707   Ekb= -3.785862   kbcos= -0.366464
   l= 2   rc=  1.791422   el=  0.001971   Ekb= -0.970471   kbcos= -0.009212
   l= 3   rc=  1.859892   el=  0.003065   Ekb= -0.399525   kbcos= -0.001223

KBgen: Total number of  Kleinman-Bylander projectors:   16
atom: -------------------------------------------------------------------------

atom: SANKEY-TYPE ORBITALS:
atom: Selected multiple-zeta basis: split     

SPLIT: Orbitals with angular momentum L= 0

SPLIT: Basis orbitals for state 2s

SPLIT: PAO cut-off radius determined from an
SPLIT: energy shift=  0.007350 Ry

   izeta = 1
                 lambda =    1.000000
                     rc =    4.632753
                 energy =   -1.002270
                kinetic =    0.855760
    potential(screened) =   -1.858031
       potential(ionic) =   -5.417575

   izeta = 2
                 rmatch =    3.431921
              splitnorm =    0.150000
                 energy =   -0.867111
                kinetic =    1.300804
    potential(screened) =   -2.167915
       potential(ionic) =   -5.962684

SPLIT: Orbitals with angular momentum L= 1

SPLIT: Basis orbitals for state 2p

SPLIT: PAO cut-off radius determined from an
SPLIT: energy shift=  0.007350 Ry

   izeta = 1
                 lambda =    1.000000
                     rc =    5.658549
                 energy =   -0.381140
                kinetic =    2.399701
    potential(screened) =   -2.780841
       potential(ionic) =   -6.206085

   izeta = 2
                 rmatch =    3.653288
              splitnorm =    0.150000
                 energy =   -0.249149
                kinetic =    3.542762
    potential(screened) =   -3.791911
       potential(ionic) =   -7.581078

POLgen: Perturbative polarization orbital with L=  2

POLgen: Polarization orbital for state 2p

   izeta = 1
                     rc =    5.658549
                 energy =    1.109913
                kinetic =    2.304789
    potential(screened) =   -1.194876
       potential(ionic) =   -4.013592
atom: Total number of Sankey-type orbitals: 13

atm_pop: Valence configuration (for local Pseudopot. screening):
 2s( 2.00)                                                            
 2p( 2.00)                                                            
Vna: chval, zval:    4.00000   4.00000

Vna:  Cut-off radius for the neutral-atom potential:   5.658549
comcore: Pseudo-core radius Rcore=  1.791422

atom: _________________________________________________________________________

prinput: Basis input ----------------------------------------------------------

PAO.BasisType split     

%block ChemicalSpeciesLabel
    1    7 N                       # Species index, atomic number, species label
    2    6 C                       # Species index, atomic number, species label
%endblock ChemicalSpeciesLabel

%block PAO.Basis                 # Define Basis set
N                     2                    # Species label, number of l-shells
 n=2   0   2                         # n, l, Nzeta 
   4.071      2.905   
   1.000      1.000   
 n=2   1   2 P   1                   # n, l, Nzeta, Polarization, NzetaPol
   4.973      3.054   
   1.000      1.000   
C                     2                    # Species label, number of l-shells
 n=2   0   2                         # n, l, Nzeta 
   4.633      3.432   
   1.000      1.000   
 n=2   1   2 P   1                   # n, l, Nzeta, Polarization, NzetaPol
   5.659      3.653   
   1.000      1.000   
%endblock PAO.Basis

prinput: ----------------------------------------------------------------------

coor:   Atomic-coordinates input format  =     Fractional

siesta: Atomic coordinates (Bohr) and species
siesta:     -4.68258  21.41544   0.00000  1        1
siesta:     -2.35420  25.44831   0.00000  1        2
siesta:     -7.01096  22.75985   0.00000  1        3
siesta:     -0.02582  29.48119   0.00000  1        4
siesta:     -4.68258  26.79272   0.00000  1        5
siesta:      2.30256  33.51406   0.00000  1        6
siesta:     -2.35420  30.82560   0.00000  1        7
siesta:     -0.02582  34.85847   0.00000  1        8
siesta:     -0.02582   2.59549   0.00000  2        9
siesta:     -0.02582   5.28395   0.00000  2       10
siesta:     -2.35420  38.89134   0.00000  2       11
siesta:     -2.35420  41.57980   0.00000  2       12
siesta:      2.30256  38.89134   0.00000  2       13
siesta:      2.30256  41.57980   0.00000  2       14
siesta:      4.63094  34.85847   0.00000  2       15
siesta:      4.63094  37.54693   0.00000  2       16
siesta:      6.95932  30.82560   0.00000  2       17
siesta:      6.95932  33.51406   0.00000  2       18
siesta:      9.28770  26.79272   0.00000  2       19
siesta:      9.28770  29.48119   0.00000  2       20
siesta:     -4.68258  34.85847   0.00000  2       21
siesta:     -4.68258  37.54693   0.00000  2       22
siesta:      2.30256   6.62836   0.00000  2       23
siesta:      2.30256   9.31683   0.00000  2       24
siesta:      4.63094  10.66124   0.00000  2       25
siesta:      4.63094  13.34970   0.00000  2       26
siesta:      6.95932  14.69411   0.00000  2       27
siesta:      6.95932  17.38257   0.00000  2       28
siesta:      9.28770  18.72698   0.00000  2       29
siesta:      9.28770  21.41544   0.00000  2       30
siesta:     11.61608  22.75985   0.00000  2       31
siesta:     11.61608  25.44831   0.00000  2       32
siesta:     -2.35420   6.62836   0.00000  2       33
siesta:     -2.35420   9.31683   0.00000  2       34
siesta:     -0.02582  10.66124   0.00000  2       35
siesta:     -0.02582  13.34970   0.00000  2       36
siesta:      2.30256  14.69411   0.00000  2       37
siesta:      2.30256  17.38257   0.00000  2       38
siesta:      4.63094  18.72698   0.00000  2       39
siesta:      4.63094  21.41544   0.00000  2       40
siesta:      6.95932  22.75985   0.00000  2       41
siesta:      6.95932  25.44831   0.00000  2       42
siesta:     -4.68258  10.66124   0.00000  2       43
siesta:     -4.68258  13.34970   0.00000  2       44
siesta:     -2.35420  14.69411   0.00000  2       45
siesta:     -2.35420  17.38257   0.00000  2       46
siesta:     -0.02582  18.72698   0.00000  2       47
siesta:     -0.02582  21.41544   0.00000  2       48
siesta:      2.30256  22.75985   0.00000  2       49
siesta:      2.30256  25.44831   0.00000  2       50
siesta:     -7.01096  14.69411   0.00000  2       51
siesta:     -7.01096  17.38257   0.00000  2       52
siesta:     -4.68258  18.72698   0.00000  2       53
siesta:     -2.35420  22.75985   0.00000  2       54
siesta:     -9.33934  18.72698   0.00000  2       55
siesta:     -9.33934  21.41544   0.00000  2       56
siesta:     -7.01096  25.44831   0.00000  2       57
siesta:    -11.66772  22.75985   0.00000  2       58
siesta:    -11.66772  25.44831   0.00000  2       59
siesta:     -9.33934  26.79272   0.00000  2       60
siesta:     -9.33934  29.48119   0.00000  2       61
siesta:      4.63094  26.79272   0.00000  2       62
siesta:      4.63094  29.48119   0.00000  2       63
siesta:     -0.02582  26.79272   0.00000  2       64
siesta:     -4.68258  29.48119   0.00000  2       65
siesta:      2.30256  30.82560   0.00000  2       66
siesta:     -2.35420  33.51406   0.00000  2       67
siesta:     -7.01096  30.82560   0.00000  2       68
siesta:     -7.01096  33.51406   0.00000  2       69
siesta:     -0.02582  37.54693   0.00000  2       70
siesta:     -0.02582  42.92421   0.00000  2       71
siesta:     -0.02582  45.61267   0.00000  2       72

siesta: System type = slab      

initatomlists: Number of atoms, orbitals, and projectors:     72   936  1152

siesta: ******************** Simulation parameters ****************************
siesta:
siesta: The following are some of the parameters of the simulation.
siesta: A complete list of the parameters used, including default values,
siesta: can be found in file out.fdf
siesta:
redata: Non-Collinear-spin run           =     F
redata: SpinPolarized (Up/Down) run      =     F
redata: Number of spin components        =     1
redata: Long output                      =     F
redata: Number of Atomic Species         =        2
redata: Charge density info will appear in .RHO file
redata: Write Mulliken Pop.              =     NO
redata: Mesh Cutoff                      =   200.0000  Ry
redata: Net charge of the system         =     0.0000 |e|
redata: Max. number of SCF Iter          =      500
redata: SCF convergence failure will abort job
redata: Performing Pulay mixing using    =    10 iterations
redata: Mix DM in first SCF step ?       =     F
redata: Write Pulay info on disk?        =     F
redata: Discard 1st Pulay DM after  kick =     F
redata: New DM Mixing Weight             =     0.0500
redata: New DM Occupancy tolerance       = 0.000000000001
redata: No kicks to SCF
redata: DM Mixing Weight for Kicks       =     0.5000
redata: DM Tolerance for SCF             =     0.000100
redata: Require Energy convergence for SCF =     F
redata: DM Energy tolerance for SCF      =     0.000100 eV
redata: Require Harris convergence for SCF =     F
redata: DM Harris energy tolerance for SCF =     0.000100 eV
redata: Using Saved Data (generic)   =     F
redata: Use continuation files for DM    =     T
redata: Neglect nonoverlap interactions  =     F
redata: Method of Calculation            =     Diagonalization
redata: Divide and Conquer               =     T
redata: Electronic Temperature           =     0.0019  Ry
redata: Fix the spin of the system       =     F
redata: Dynamics option                  =     Verlet MD run
redata: Initial MD time step             =        1
redata:   Final MD time step             =        1
redata: Length of MD time step           =     1.0000  fs
redata: Initial Temperature of MD run    =     0.0000  K
redata: Perform a MD quench              =     F
redata: ***********************************************************************
Total number of electrons:   296.000000
Total ionic charge:   296.000000

* ProcessorY, Blocksize:    3  24

k-point displ. along   1 input, could be:     0.50    0.00
k-point displ. along   2 input, could be:     0.50    0.00
 Kpoints in:          231 . Kpoints trimmed:          231

siesta: k-grid: Number of k-points =   231
siesta: k-grid: Cutoff (effective) =     5.000 Ang
siesta: k-grid: Supercell and displacements
siesta: k-grid:   21   0   0      0.500
siesta: k-grid:    0  21   0      0.500
siesta: k-grid:    0   0   1      0.000
Naive supercell factors:     2    2    2

superc: Internal auxiliary supercell:     2 x     2 x     2  =       8
superc: Number of atoms, orbitals, and projectors:    576   7488   9216

* Maximum dynamic memory allocated =     4 MB

siesta:                 ==============================
                            Begin MD step =      1
                        ==============================

superc: Internal auxiliary supercell:     2 x     2 x     2  =       8
superc: Number of atoms, orbitals, and projectors:    576   7488   9216

outcell: Unit cell vectors (Ang):
       12.804619    7.392750    0.000000
        0.000000   14.785500    0.000000
        0.000000    0.000000   10.000000

outcell: Cell vector modules (Ang)   :   14.785500   14.785500   10.000000
outcell: Cell angles (23,13,12) (deg):     90.0000     90.0000     60.0000
outcell: Cell volume (Ang**3)        :   1893.2269
New_DM. Step:     1
Initializing Density Matrix...

InitMesh: MESH =   120 x   120 x    90 =     1296000
InitMesh: Mesh cutoff (required, used) =   200.000   223.865 Ry

* Maximum dynamic memory allocated =   137 MB

stepf: Fermi-Dirac step function

siesta: Program's energy decomposition (eV):
siesta: Ebs     =     -6047.374751
siesta: Eions   =     19688.985824
siesta: Ena     =      4803.183855
siesta: Ekin    =      7049.557044
siesta: Enl     =       391.934762
siesta: DEna    =        -0.000015
siesta: DUscf   =         0.000000
siesta: DUext   =         0.000000
siesta: Exc     =     -4369.357112
siesta: eta*DQ  =         0.000000
siesta: Emadel  =         0.000000
siesta: Emeta   =         0.000000
siesta: Emolmec =         0.000000
siesta: Ekinion =         0.000000
siesta: Eharris =    -11472.873793
siesta: Etot    =    -11813.667290
siesta: FreeEng =    -11813.667290

siesta: iscf   Eharris(eV)      E_KS(eV)   FreeEng(eV)   dDmax  Ef(eV)
siesta:    1   -11472.8738   -11813.6673   -11813.6673  6.5310 -7.4946
timer: Routine,Calls,Time,% = IterSCF        1    3015.480  99.60
elaps: Routine,Calls,Wall,% = IterSCF        1     251.883  99.59
siesta:    2   -15875.3316   -10827.8697   -10827.9004 14.7790 -3.6116
siesta:    3   -11446.5956   -11585.0232   -11585.0828  1.8675 -4.4220
siesta:    4   -11375.5854   -11497.7444   -11497.7762  1.2318 -4.4597
siesta:    5   -11346.6458   -11435.7691   -11435.7706  0.8710 -4.3514
siesta:    6   -11334.0471   -11405.2330   -11405.2715  0.8292 -4.1306
siesta:    7   -11321.9939   -11374.6803   -11374.7477  0.6156 -4.1408
siesta:    8   -11319.1627   -11362.9724   -11363.0090  0.5596 -4.0651
siesta:    9   -11317.6507   -11350.9259   -11350.9894  0.4544 -4.1374
siesta:   10   -11317.3743   -11333.4856   -11333.5285  0.3064 -4.1031
siesta:   11   -11317.3633   -11318.7614   -11318.8256  0.2336 -4.0976
siesta:   12   -11317.0446   -11313.4623   -11313.5316  0.2492 -4.0921
siesta:   13   -11316.8600   -11311.7731   -11311.8131  0.2390 -4.0734
siesta:   14   -11316.5982   -11313.6116   -11313.6675  0.1716 -4.1179
siesta:   15   -11316.2811   -11314.4599   -11314.5134  0.1081 -4.1417
siesta:   16   -11316.0551   -11314.6264   -11314.6943  0.0794 -4.1588
siesta:   17   -11315.9761   -11313.4072   -11313.4802  0.0504 -4.1436
siesta:   18   -11315.9513   -11312.7784   -11312.8511  0.0401 -4.1357
siesta:   19   -11315.9293   -11312.8769   -11312.9484  0.0256 -4.1312
siesta:   20   -11315.9212   -11313.3555   -11313.4289  0.0272 -4.1302
siesta:   21   -11315.9152   -11314.3751   -11314.4483  0.0173 -4.1360
siesta:   22   -11315.9141   -11314.7443   -11314.8181  0.0165 -4.1345
siesta:   23   -11315.9116   -11315.1326   -11315.2058  0.0165 -4.1344
siesta:   24   -11315.9110   -11315.5841   -11315.6572  0.0106 -4.1346
siesta:   25   -11315.9107   -11315.6750   -11315.7477  0.0088 -4.1345
siesta:   26   -11315.9105   -11315.6714   -11315.7443  0.0045 -4.1341
siesta:   27   -11315.9102   -11315.7115   -11315.7843  0.0031 -4.1340
siesta:   28   -11315.9103   -11315.8102   -11315.8832  0.0021 -4.1341
siesta:   29   -11315.9102   -11315.8356   -11315.9086  0.0015 -4.1345
siesta:   30   -11315.9102   -11315.8444   -11315.9173  0.0007 -4.1348
siesta:   31   -11315.9102   -11315.8446   -11315.9176  0.0003 -4.1347
siesta:   32   -11315.9102   -11315.8517   -11315.9246  0.0003 -4.1348
siesta:   33   -11315.9102   -11315.8690   -11315.9419  0.0003 -4.1347
siesta:   34   -11315.9102   -11315.8754   -11315.9483  0.0001 -4.1347
siesta:   35   -11315.9102   -11315.8797   -11315.9526  0.0001 -4.1347
siesta:   36   -11315.9102   -11315.8854   -11315.9583  0.0001 -4.1347

siesta: E_KS(eV) =           -11315.8945

siesta: E_KS - E_eggbox =    -11315.8945

siesta: Atomic forces (eV/Ang):
----------------------------------------
   Tot   -0.173074   -0.076188    0.000000
----------------------------------------
   Max  684.415071
   Res  168.830976    sqrt( Sum f_i^2 / 3N )
----------------------------------------
   Max  684.415071    constrained

Stress-tensor-Voigt (kbar):     -702.76    -2965.22       -0.13       -2.76        0.00        0.00
(Free)E + p*V (eV/cell)    -9871.1633
Target enthalpy (eV/cell)   -11315.9674

siesta: Stress tensor (static) (eV/Ang**3):
        -0.438624   -0.001719    0.000000
        -0.001720   -1.850724    0.000000
         0.000000    0.000000   -0.000083

siesta: Pressure (static):       1222.70423237  kBar

siesta: Stress tensor (total) (eV/Ang**3):
        -0.438624   -0.001719    0.000000
        -0.001720   -1.850724    0.000000
         0.000000    0.000000   -0.000083

siesta: Pressure (total):       1222.70423237  kBar

siesta: Temp_ion =       0.000 K

* Maximum dynamic memory allocated =   149 MB
Computing bands...

siesta: Program's energy decomposition (eV):
siesta: Ebs     =     -4779.009103
siesta: Eions   =     19688.985824
siesta: Ena     =      4803.183855
siesta: Ekin    =     10090.670794
siesta: Enl     =     -1296.480346
siesta: DEna    =      -787.277380
siesta: DUscf   =       104.642337
siesta: DUext   =         0.000000
siesta: Exc     =     -4541.647968
siesta: eta*DQ  =         0.000000
siesta: Emadel  =         0.000000
siesta: Emeta   =         0.000000
siesta: Emolmec =         0.000000
siesta: Ekinion =         0.000000
siesta: Eharris =    -11315.910225
siesta: Etot    =    -11315.894533
siesta: FreeEng =    -11315.967444

siesta: Final energy (eV):
siesta:  Band Struct. =   -4779.009103
siesta:       Kinetic =   10090.670794
siesta:       Hartree =   32996.861474
siesta:    Ext. field =       0.000000
siesta:   Exch.-corr. =   -4541.647968
siesta:  Ion-electron =  -75707.428878
siesta:       Ion-ion =   25845.650046
siesta:       Ekinion =       0.000000
siesta:         Total =  -11315.894533

siesta: Atomic forces (eV/Ang):
siesta:      1    0.844616    1.039881    0.000000
siesta:      2   -1.648396    0.095997    0.000000
siesta:      3    0.439746    2.176403    0.000000
siesta:      4   19.608464 -684.415071    0.000000
siesta:      5    0.221142   -0.399321    0.000000
siesta:      6   21.250493 -677.679603    0.000000
siesta:      7  -37.471422   11.216163    0.000000
siesta:      8   -2.810975  120.315580    0.000000
siesta:      9  -13.390132  645.792743    0.000000
siesta:     10   -3.954712 -116.268113    0.000000
siesta:     11    1.854538  127.911636    0.000000
siesta:     12  -16.791965 -549.865390    0.000000
siesta:     13   -2.816902  125.722266    0.000000
siesta:     14   14.510361 -548.116098    0.000000
siesta:     15   26.978793   10.798623    0.000000
siesta:     16   32.985233 -548.529241    0.000000
siesta:     17    1.594421    0.345579    0.000000
siesta:     18   -2.240196    1.405276    0.000000
siesta:     19    2.287217    1.913295    0.000000
siesta:     20   -1.094439    0.297130    0.000000
siesta:     21  -27.025575    6.354430    0.000000
siesta:     22  -34.706995 -548.497740    0.000000
siesta:     23    8.089240  649.448884    0.000000
siesta:     24   -0.110806 -116.747414    0.000000
siesta:     25   35.197050  549.811807    0.000000
siesta:     26   26.555308   -6.257694    0.000000
siesta:     27   -2.667623   -2.088114    0.000000
siesta:     28    1.852810   -0.012365    0.000000
siesta:     29   -1.240679   -0.138300    0.000000
siesta:     30    2.305891   -2.116319    0.000000
siesta:     31   -0.192507    7.392634    0.000000
siesta:     32   -0.246573   -7.343884    0.000000
siesta:     33   -3.502894  549.449411    0.000000
siesta:     34    1.603432 -124.694188    0.000000
siesta:     35   -0.569149  545.923847    0.000000
siesta:     36    0.299196 -128.579748    0.000000
siesta:     37   22.202357  560.056217    0.000000
siesta:     38   23.202843   -5.989612    0.000000
siesta:     39   -1.191457    2.518969    0.000000
siesta:     40    0.037505   -0.275589    0.000000
siesta:     41   -0.111561    0.770321    0.000000
siesta:     42   -0.097795   -0.898417    0.000000
siesta:     43  -34.696100  548.287579    0.000000
siesta:     44  -26.272250   -6.504034    0.000000
siesta:     45  -20.275774  559.318608    0.000000
siesta:     46  -23.196667   -4.943964    0.000000
siesta:     47   -0.140063  561.824856    0.000000
siesta:     48   -1.432155    0.926444    0.000000
siesta:     49    0.567584    0.604664    0.000000
siesta:     50   -0.345008   -0.444285    0.000000
siesta:     51    2.718007   -1.991424    0.000000
siesta:     52   -1.159854    0.431003    0.000000
siesta:     53    1.064910    2.047036    0.000000
siesta:     54   -0.937599   -0.597974    0.000000
siesta:     55    0.555936    0.354447    0.000000
siesta:     56   -1.566125   -2.084033    0.000000
siesta:     57    0.667917   -1.550509    0.000000
siesta:     58    0.623682    5.775040    0.000000
siesta:     59    0.021382   -6.384722    0.000000
siesta:     60   -0.781883    1.510168    0.000000
siesta:     61    0.782303    0.654087    0.000000
siesta:     62    0.152068    0.765035    0.000000
siesta:     63   -0.932935   -2.743705    0.000000
siesta:     64    0.337227    0.983790    0.000000
siesta:     65    1.358513   -2.438059    0.000000
siesta:     66   24.526075    9.381210    0.000000
siesta:     67  -15.909270 -562.527614    0.000000
siesta:     68   -1.409859   -0.336733    0.000000
siesta:     69    2.683810    1.685983    0.000000
siesta:     70    3.273397 -535.088557    0.000000
siesta:     71   -0.209232  129.845829    0.000000
siesta:     72   -0.279015 -548.681222    0.000000
siesta: ----------------------------------------
siesta:    Tot   -0.173074   -0.076188    0.000000

siesta: Stress tensor (static) (eV/Ang**3):
siesta:    -0.438624   -0.001719    0.000000
siesta:    -0.001720   -1.850724    0.000000
siesta:     0.000000    0.000000   -0.000083

siesta: Cell volume =       1893.226884 Ang**3

siesta: Pressure (static):
siesta:                Solid            Molecule  Units
siesta:           0.00831161          0.13211073  Ry/Bohr**3
siesta:           0.76314371         12.12995822  eV/Ang**3
siesta:        1222.70423237      19434.54570441  kBar
(Free)E+ p_basis*V_orbitals  =      -11286.373534
(Free)Eharris+ p_basis*V_orbitals  =      -11286.398371

siesta: Electric dipole (a.u.)  =    0.000000    0.000000    0.000000
siesta: Electric dipole (Debye) =    0.000000    0.000000    0.000000

* Maximum dynamic memory allocated : Node    0 =   147 MB
* Maximum dynamic memory allocated : Node    1 =    59 MB
* Maximum dynamic memory allocated : Node    2 =    61 MB
* Maximum dynamic memory allocated : Node    3 =   135 MB
* Maximum dynamic memory allocated : Node    4 =   149 MB
* Maximum dynamic memory allocated : Node    5 =    54 MB
* Maximum dynamic memory allocated : Node    6 =    56 MB
* Maximum dynamic memory allocated : Node    7 =   141 MB
* Maximum dynamic memory allocated : Node    8 =   131 MB
* Maximum dynamic memory allocated : Node    9 =    53 MB
* Maximum dynamic memory allocated : Node   10 =    54 MB
* Maximum dynamic memory allocated : Node   11 =   126 MB

* Maximum memory occured during matrixMtoO                    

timer: CPU execution times:
timer:  Routine       Calls   Time/call    Tot.time        %
timer:  siesta            1  106006.570  106006.570   100.00
timer:  Setup             1       3.359       3.359     0.00
timer:  bands             3     224.997     674.991     0.64
timer:  writewave         1       0.021       0.021     0.00
timer:  KSV_init          1       0.007       0.007     0.00
timer:  IterMD            1  105321.202  105321.202    99.35
timer:  hsparse           1       0.163       0.163     0.00
timer:  overlap           1       5.989       5.989     0.01
timer:  IterSCF          36    2921.918  105189.031    99.23
timer:  kinefsm           2       3.041       6.082     0.01
timer:  nlefsm            2      18.836      37.673     0.04
timer:  DHSCF            37      67.895    2512.127     2.37
timer:  DHSCF1            1       0.901       0.901     0.00
timer:  DHSCF2            1      25.226      25.226     0.02
timer:  REORD           298       0.002       0.692     0.00
timer:  POISON           38       0.450      17.104     0.02
timer:  DHSCF3           37      66.594    2463.971     2.32
timer:  rhoofd           37      13.082     484.027     0.46
timer:  cellXC           37       2.512      92.958     0.09
timer:  vmat             37      32.805    1213.768     1.14
timer:  MolMec            2       0.000       0.001     0.00
timer:  diagon           36    2852.817  102701.420    96.88
timer:  c-eigval       8437       5.580   47074.846    44.41
timer:  c-buildHS      8437       0.034     283.295     0.27
timer:  cdiag         16753       5.675   95064.991    89.68
timer:  cdiag1        16753       0.261    4375.228     4.13
timer:  cdiag2        16753       1.840   30817.295    29.07
timer:  cdiag3        16753       3.370   56460.096    53.26
timer:  cdiag4        16753       0.088    1470.179     1.39
timer:  c-eigvec       8316       5.833   48509.639    45.76
timer:  c-buildD       8316       0.932    7746.757     7.31
timer:  DHSCF4            1      21.746      21.746     0.02
timer:  dfscf             1      20.289      20.289     0.02
timer:  overfsm           1       0.285       0.285     0.00
timer:  optical           1       6.410       6.410     0.01
  

elaps: ELAPSED times:
elaps:  Routine       Calls   Time/call    Tot.time        %
elaps:  siesta            1    8854.586    8854.586   100.00
elaps:  Setup             1       0.281       0.281     0.00
elaps:  bands             3      18.810      56.430     0.64
elaps:  writewave         1       0.002       0.002     0.00
elaps:  KSV_init          1       0.000       0.000     0.00
elaps:  IterMD            1    8797.336    8797.336    99.35
elaps:  hsparse           1       0.017       0.017     0.00
elaps:  overlap           1       0.711       0.711     0.01
elaps:  IterSCF          36     244.064    8786.297    99.23
elaps:  kinefsm           2       0.363       0.726     0.01
elaps:  nlefsm            2       1.614       3.229     0.04
elaps:  DHSCF            37       5.717     211.541     2.39
elaps:  DHSCF1            1       0.077       0.077     0.00
elaps:  DHSCF2            1       2.106       2.106     0.02
elaps:  REORD           298       0.000       0.089     0.00
elaps:  POISON           38       0.038       1.439     0.02
elaps:  DHSCF3           37       5.563     205.847     2.32
elaps:  rhoofd           37       2.217      82.043     0.93
elaps:  cellXC           37       0.209       7.748     0.09
elaps:  vmat             37       2.741     101.411     1.15
elaps:  MolMec            2       0.000       0.000     0.00
elaps:  diagon           36     238.298    8578.722    96.88
elaps:  c-eigval       8437       0.466    3932.055    44.41
elaps:  c-buildHS      8437       0.004      29.981     0.34
elaps:  cdiag         16753       0.470    7867.423    88.85
elaps:  cdiag1        16753       0.021     357.100     4.03
elaps:  cdiag2        16753       0.154    2576.468    29.10
elaps:  cdiag3        16753       0.282    4723.473    53.34
elaps:  cdiag4        16753       0.007     117.395     1.33
elaps:  c-eigvec       8316       0.480    3990.684    45.07
elaps:  c-buildD       8316       0.085     708.154     8.00
elaps:  DHSCF4            1       3.476       3.476     0.04
elaps:  dfscf             1       3.287       3.287     0.04
elaps:  overfsm           1       0.031       0.031     0.00
elaps:  optical           1       0.000       0.000     0.00
  
>> End of run:   7-MAY-2016   8:54:54
