Siesta Version:                                        siesta-3.2-pl-3
Architecture  : x86_64-unknown-linux-gnu--unknown
Compiler flags: mpiifort -g -O2 -fPIC -xSSE4.1 -fp-model source -shared-intel 
PARALLEL version

* Running on    8 nodes in parallel
>> Start of run:  28-APR-2016  15:54:39

                           ***********************       
                           *  WELCOME TO SIESTA  *       
                           ***********************       

reinit: Reading from standard input
************************** Dump of input data file ****************************
#(1) General system descriptors
SystemName            GRP_doping    # Descriptive name of the system
SystemLabel           GRP_doping    # Short name for naming files
%include STRUCT.fdf
%include KPT.fdf
%include BASIS.fdf
#%include TS.fdf # for transiesta calculation
#(4) DFT, Grid, SCF
XC.functional         GGA           # LDA or GGA (default = LDA)
XC.authors            PBE           # CA (Ceperley-Aldr) = PZ
                                    #    (Perdew-Zunger) - LDA - Default
                                    # PW92 (Perdew-Wang-92) - LDA
                                    # PBE (Perdew-Burke-Ernzerhof) - GGA
MeshCutoff            200.000000    Ry      # Default: 50.0 Ry ~ 0.444 Bohr
                                    #         100.0 Ry ~ 0.314 Bohr
MaxSCFIterations      500           # Default: 50
DM.MixingWeight       0.05          # Default: 0.25
DM.NumberPulay        10            # Default: 0
DM.PulayOnFile        F             # SystemLabel.P1, SystemLabel.P2
DM.Tolerance          1.d-4         # Default: 1.d-4
DM.UseSaveDM          .true.        # because of the bug
SCFMustConverge       .true.
NeglNonOverlapInt     F             # Default: F
#(5) Eigenvalue problem: order-N or diagonalization
SolutionMethod        Diagon        # or Transiesta
ElectronicTemperature 300.0 K       # Default: 300.0 K
#(6) Molecular dynamics and relaxations
#MD.TypeOfRun          CG            # Type of dynamics:
#MD.VariableCell       F
#MD.NumCGsteps         0           # 0 for single-point / 100 for gopt
#MD.MaxCGDispl         0.2 Bohr      # Default: 0.2 Bohr
#MD.MaxForceTol        0.02 eV/Ang   # Default: 0.04 eV/Ang
#MD.MaxStressTol       1.0 GPa       # Default: 1.0 GPa
# Geometry Constraints
#%block GeometryConstraints
#	position from 1 to 44
#%endblock GeometryConstraints
BandLinesScale   pi/a
%block BandLines
 1   0.00000000  0.00000000  0.00000000
50   0.00000000  0.07809418  0.00000000
50   0.04509075  0.07809242  0.00000000
20   0.00000000  0.00000000  0.00000000
%endblock BandLines
************************** End of input data file *****************************

reinit: -----------------------------------------------------------------------
reinit: System Name: GRP_doping
reinit: -----------------------------------------------------------------------
reinit: System Label: GRP_doping                                                  
reinit: -----------------------------------------------------------------------

initatom: Reading input for the pseudopotentials and atomic orbitals ----------
 Species number:            1  Label: N Atomic number:           7
 Species number:            2  Label: C Atomic number:           6
Ground state valence configuration:   2s02  2p03
Reading pseudopotential information in formatted form from N.psf

Valence configuration for pseudopotential generation:
2s( 2.00) rc: 1.48
2p( 3.00) rc: 1.48
3d( 0.00) rc: 1.48
4f( 0.00) rc: 1.48
Ground state valence configuration:   2s02  2p02
Reading pseudopotential information in formatted form from C.psf

Valence configuration for pseudopotential generation:
2s( 2.00) rc: 1.54
2p( 2.00) rc: 1.54
3d( 0.00) rc: 1.54
4f( 0.00) rc: 1.54
For N, standard SIESTA heuristics set lmxkb to 3
 (one more than the basis l, including polarization orbitals).
Use PS.lmax or PS.KBprojectors blocks to override.
For C, standard SIESTA heuristics set lmxkb to 3
 (one more than the basis l, including polarization orbitals).
Use PS.lmax or PS.KBprojectors blocks to override.

<basis_specs>
===============================================================================
N                    Z=   7    Mass=  14.010        Charge= 0.17977+309
Lmxo=1 Lmxkb= 3    BasisType=split      Semic=F
L=0  Nsemic=0  Cnfigmx=2
          n=1  nzeta=2  polorb=0
            splnorm:   0.15000    
               vcte:    0.0000    
               rinn:    0.0000    
                rcs:    0.0000      0.0000    
            lambdas:    1.0000      1.0000    
L=1  Nsemic=0  Cnfigmx=2
          n=1  nzeta=2  polorb=1
            splnorm:   0.15000    
               vcte:    0.0000    
               rinn:    0.0000    
                rcs:    0.0000      0.0000    
            lambdas:    1.0000      1.0000    
-------------------------------------------------------------------------------
L=0  Nkbl=1  erefs: 0.17977+309
L=1  Nkbl=1  erefs: 0.17977+309
L=2  Nkbl=1  erefs: 0.17977+309
L=3  Nkbl=1  erefs: 0.17977+309
===============================================================================
</basis_specs>

atom: Called for N                     (Z =   7)

read_vps: Pseudopotential generation method:
read_vps: ATM3      Troullier-Martins                       
Total valence charge:    5.00000

read_vps: Pseudopotential includes a core correction:
read_vps: Pseudo-core for xc-correction

xc_check: Exchange-correlation functional:
xc_check: GGA Perdew, Burke & Ernzerhof 1996
V l=0 = -2*Zval/r beyond r=  1.4606
V l=1 = -2*Zval/r beyond r=  1.4606
V l=2 = -2*Zval/r beyond r=  1.4606
V l=3 = -2*Zval/r beyond r=  1.4606
All V_l potentials equal beyond r=  1.4606
This should be close to max(r_c) in ps generation
All pots = -2*Zval/r beyond r=  1.4606

VLOCAL1: 99.0% of the norm of Vloc inside     20.347 Ry
VLOCAL1: 99.9% of the norm of Vloc inside     46.372 Ry
atom: Maximum radius for 4*pi*r*r*local-pseudopot. charge    1.76189
atom: Maximum radius for r*vlocal+2*Zval:    1.53550
GHOST: No ghost state for L =  0
GHOST: No ghost state for L =  1
GHOST: No ghost state for L =  2
GHOST: No ghost state for L =  3

KBgen: Kleinman-Bylander projectors: 
   l= 0   rc=  1.634559   el= -1.363963   Ekb=  5.296955   kbcos=  0.335621
   l= 1   rc=  1.614250   el= -0.521451   Ekb= -5.259161   kbcos= -0.433408
   l= 2   rc=  1.718383   el=  0.001991   Ekb= -1.271464   kbcos= -0.007566
   l= 3   rc=  1.761893   el=  0.003093   Ekb= -0.494769   kbcos= -0.001015

KBgen: Total number of  Kleinman-Bylander projectors:   16
atom: -------------------------------------------------------------------------

atom: SANKEY-TYPE ORBITALS:
atom: Selected multiple-zeta basis: split     

SPLIT: Orbitals with angular momentum L= 0

SPLIT: Basis orbitals for state 2s

SPLIT: PAO cut-off radius determined from an
SPLIT: energy shift=  0.007350 Ry

   izeta = 1
                 lambda =    1.000000
                     rc =    4.071465
                 energy =   -1.356470
                kinetic =    1.176977
    potential(screened) =   -2.533447
       potential(ionic) =   -8.057990

   izeta = 2
                 rmatch =    2.905100
              splitnorm =    0.150000
                 energy =   -1.158343
                kinetic =    1.813009
    potential(screened) =   -2.971352
       potential(ionic) =   -8.901931

SPLIT: Orbitals with angular momentum L= 1

SPLIT: Basis orbitals for state 2p

SPLIT: PAO cut-off radius determined from an
SPLIT: energy shift=  0.007350 Ry

   izeta = 1
                 lambda =    1.000000
                     rc =    4.972977
                 energy =   -0.513884
                kinetic =    3.441732
    potential(screened) =   -3.955616
       potential(ionic) =   -9.287901

   izeta = 2
                 rmatch =    3.054066
              splitnorm =    0.150000
                 energy =   -0.318226
                kinetic =    5.125348
    potential(screened) =   -5.443573
       potential(ionic) =  -11.380999

POLgen: Perturbative polarization orbital with L=  2

POLgen: Polarization orbital for state 2p

   izeta = 1
                     rc =    4.972977
                 energy =    1.607437
                kinetic =    3.268125
    potential(screened) =   -1.660688
       potential(ionic) =   -5.973652
atom: Total number of Sankey-type orbitals: 13

atm_pop: Valence configuration (for local Pseudopot. screening):
 2s( 2.00)                                                            
 2p( 3.00)                                                            
Vna: chval, zval:    5.00000   5.00000

Vna:  Cut-off radius for the neutral-atom potential:   4.972977
comcore: Pseudo-core radius Rcore=  1.554824

atom: _________________________________________________________________________

<basis_specs>
===============================================================================
C                    Z=   6    Mass=  12.010        Charge= 0.17977+309
Lmxo=1 Lmxkb= 3    BasisType=split      Semic=F
L=0  Nsemic=0  Cnfigmx=2
          n=1  nzeta=2  polorb=0
            splnorm:   0.15000    
               vcte:    0.0000    
               rinn:    0.0000    
                rcs:    0.0000      0.0000    
            lambdas:    1.0000      1.0000    
L=1  Nsemic=0  Cnfigmx=2
          n=1  nzeta=2  polorb=1
            splnorm:   0.15000    
               vcte:    0.0000    
               rinn:    0.0000    
                rcs:    0.0000      0.0000    
            lambdas:    1.0000      1.0000    
-------------------------------------------------------------------------------
L=0  Nkbl=1  erefs: 0.17977+309
L=1  Nkbl=1  erefs: 0.17977+309
L=2  Nkbl=1  erefs: 0.17977+309
L=3  Nkbl=1  erefs: 0.17977+309
===============================================================================
</basis_specs>

atom: Called for C                     (Z =   6)

read_vps: Pseudopotential generation method:
read_vps: ATM3      Troullier-Martins                       
Total valence charge:    4.00000

read_vps: Pseudopotential includes a core correction:
read_vps: Pseudo-core for xc-correction

xc_check: Exchange-correlation functional:
xc_check: GGA Perdew, Burke & Ernzerhof 1996
V l=0 = -2*Zval/r beyond r=  1.5227
V l=1 = -2*Zval/r beyond r=  1.5227
V l=2 = -2*Zval/r beyond r=  1.5227
V l=3 = -2*Zval/r beyond r=  1.5038
All V_l potentials equal beyond r=  1.5227
This should be close to max(r_c) in ps generation
All pots = -2*Zval/r beyond r=  1.5227

VLOCAL1: 99.0% of the norm of Vloc inside     18.722 Ry
VLOCAL1: 99.9% of the norm of Vloc inside     42.668 Ry
atom: Maximum radius for 4*pi*r*r*local-pseudopot. charge    1.83678
atom: Maximum radius for r*vlocal+2*Zval:    1.58088
GHOST: No ghost state for L =  0
GHOST: No ghost state for L =  1
GHOST: No ghost state for L =  2
GHOST: No ghost state for L =  3

KBgen: Kleinman-Bylander projectors: 
   l= 0   rc=  1.704034   el= -1.009801   Ekb=  5.335044   kbcos=  0.316824
   l= 1   rc=  1.704034   el= -0.388707   Ekb= -3.785862   kbcos= -0.366464
   l= 2   rc=  1.791422   el=  0.001971   Ekb= -0.970471   kbcos= -0.009212
   l= 3   rc=  1.859892   el=  0.003065   Ekb= -0.399525   kbcos= -0.001223

KBgen: Total number of  Kleinman-Bylander projectors:   16
atom: -------------------------------------------------------------------------

atom: SANKEY-TYPE ORBITALS:
atom: Selected multiple-zeta basis: split     

SPLIT: Orbitals with angular momentum L= 0

SPLIT: Basis orbitals for state 2s

SPLIT: PAO cut-off radius determined from an
SPLIT: energy shift=  0.007350 Ry

   izeta = 1
                 lambda =    1.000000
                     rc =    4.632753
                 energy =   -1.002270
                kinetic =    0.855760
    potential(screened) =   -1.858031
       potential(ionic) =   -5.417575

   izeta = 2
                 rmatch =    3.431921
              splitnorm =    0.150000
                 energy =   -0.867111
                kinetic =    1.300804
    potential(screened) =   -2.167915
       potential(ionic) =   -5.962684

SPLIT: Orbitals with angular momentum L= 1

SPLIT: Basis orbitals for state 2p

SPLIT: PAO cut-off radius determined from an
SPLIT: energy shift=  0.007350 Ry

   izeta = 1
                 lambda =    1.000000
                     rc =    5.658549
                 energy =   -0.381140
                kinetic =    2.399701
    potential(screened) =   -2.780841
       potential(ionic) =   -6.206085

   izeta = 2
                 rmatch =    3.653288
              splitnorm =    0.150000
                 energy =   -0.249149
                kinetic =    3.542762
    potential(screened) =   -3.791911
       potential(ionic) =   -7.581078

POLgen: Perturbative polarization orbital with L=  2

POLgen: Polarization orbital for state 2p

   izeta = 1
                     rc =    5.658549
                 energy =    1.109913
                kinetic =    2.304789
    potential(screened) =   -1.194876
       potential(ionic) =   -4.013592
atom: Total number of Sankey-type orbitals: 13

atm_pop: Valence configuration (for local Pseudopot. screening):
 2s( 2.00)                                                            
 2p( 2.00)                                                            
Vna: chval, zval:    4.00000   4.00000

Vna:  Cut-off radius for the neutral-atom potential:   5.658549
comcore: Pseudo-core radius Rcore=  1.791422

atom: _________________________________________________________________________

prinput: Basis input ----------------------------------------------------------

PAO.BasisType split     

%block ChemicalSpeciesLabel
    1    7 N                       # Species index, atomic number, species label
    2    6 C                       # Species index, atomic number, species label
%endblock ChemicalSpeciesLabel

%block PAO.Basis                 # Define Basis set
N                     2                    # Species label, number of l-shells
 n=2   0   2                         # n, l, Nzeta 
   4.071      2.905   
   1.000      1.000   
 n=2   1   2 P   1                   # n, l, Nzeta, Polarization, NzetaPol
   4.973      3.054   
   1.000      1.000   
C                     2                    # Species label, number of l-shells
 n=2   0   2                         # n, l, Nzeta 
   4.633      3.432   
   1.000      1.000   
 n=2   1   2 P   1                   # n, l, Nzeta, Polarization, NzetaPol
   5.659      3.653   
   1.000      1.000   
%endblock PAO.Basis

prinput: ----------------------------------------------------------------------

coor:   Atomic-coordinates input format  =     Fractional

siesta: Atomic coordinates (Bohr) and species
siesta:     -2.35420  38.89134   0.00000  1        1
siesta:     -4.68258  34.85847   0.00000  1        2
siesta:     -4.68258  37.54693   0.00000  1        3
siesta:     -0.02582  13.34970   0.00000  1        4
siesta:     -4.68258  10.66124   0.00000  1        5
siesta:     -0.02582  21.41544   0.00000  1        6
siesta:      2.30256  22.75985   0.00000  1        7
siesta:     -4.68258  18.72698   0.00000  1        8
siesta:     -4.68258  21.41544   0.00000  1        9
siesta:     -2.35420  22.75985   0.00000  1       10
siesta:     -2.35420  25.44831   0.00000  1       11
siesta:     -7.01096  25.44831   0.00000  1       12
siesta:    -11.66772  22.75985   0.00000  1       13
siesta:    -11.66772  25.44831   0.00000  1       14
siesta:     -9.33934  26.79272   0.00000  1       15
siesta:     -9.33934  29.48119   0.00000  1       16
siesta:     -0.02582  26.79272   0.00000  1       17
siesta:     -4.68258  26.79272   0.00000  1       18
siesta:     -7.01096  30.82560   0.00000  1       19
siesta:     -7.01096  33.51406   0.00000  1       20
siesta:     -0.02582   2.59549   0.00000  2       21
siesta:     -0.02582   5.28395   0.00000  2       22
siesta:     -2.35420  41.57980   0.00000  2       23
siesta:      2.30256  38.89134   0.00000  2       24
siesta:      2.30256  41.57980   0.00000  2       25
siesta:      4.63094  34.85847   0.00000  2       26
siesta:      4.63094  37.54693   0.00000  2       27
siesta:      6.95932  30.82560   0.00000  2       28
siesta:      6.95932  33.51406   0.00000  2       29
siesta:      9.28770  26.79272   0.00000  2       30
siesta:      9.28770  29.48119   0.00000  2       31
siesta:      2.30256   6.62836   0.00000  2       32
siesta:      2.30256   9.31683   0.00000  2       33
siesta:      4.63094  10.66124   0.00000  2       34
siesta:      4.63094  13.34970   0.00000  2       35
siesta:      6.95932  14.69411   0.00000  2       36
siesta:      6.95932  17.38257   0.00000  2       37
siesta:      9.28770  18.72698   0.00000  2       38
siesta:      9.28770  21.41544   0.00000  2       39
siesta:     11.61608  22.75985   0.00000  2       40
siesta:     11.61608  25.44831   0.00000  2       41
siesta:     -2.35420   6.62836   0.00000  2       42
siesta:     -2.35420   9.31683   0.00000  2       43
siesta:     -0.02582  10.66124   0.00000  2       44
siesta:      2.30256  14.69411   0.00000  2       45
siesta:      2.30256  17.38257   0.00000  2       46
siesta:      4.63094  18.72698   0.00000  2       47
siesta:      4.63094  21.41544   0.00000  2       48
siesta:      6.95932  22.75985   0.00000  2       49
siesta:      6.95932  25.44831   0.00000  2       50
siesta:     -4.68258  13.34970   0.00000  2       51
siesta:     -2.35420  14.69411   0.00000  2       52
siesta:     -2.35420  17.38257   0.00000  2       53
siesta:     -0.02582  18.72698   0.00000  2       54
siesta:      2.30256  25.44831   0.00000  2       55
siesta:     -7.01096  14.69411   0.00000  2       56
siesta:     -7.01096  17.38257   0.00000  2       57
siesta:     -9.33934  18.72698   0.00000  2       58
siesta:     -9.33934  21.41544   0.00000  2       59
siesta:     -7.01096  22.75985   0.00000  2       60
siesta:      4.63094  26.79272   0.00000  2       61
siesta:      4.63094  29.48119   0.00000  2       62
siesta:     -0.02582  29.48119   0.00000  2       63
siesta:     -4.68258  29.48119   0.00000  2       64
siesta:      2.30256  30.82560   0.00000  2       65
siesta:      2.30256  33.51406   0.00000  2       66
siesta:     -2.35420  30.82560   0.00000  2       67
siesta:     -2.35420  33.51406   0.00000  2       68
siesta:     -0.02582  34.85847   0.00000  2       69
siesta:     -0.02582  37.54693   0.00000  2       70
siesta:     -0.02582  42.92421   0.00000  2       71
siesta:     -0.02582  45.61267   0.00000  2       72

siesta: System type = slab      

initatomlists: Number of atoms, orbitals, and projectors:     72   936  1152

siesta: ******************** Simulation parameters ****************************
siesta:
siesta: The following are some of the parameters of the simulation.
siesta: A complete list of the parameters used, including default values,
siesta: can be found in file out.fdf
siesta:
redata: Non-Collinear-spin run           =     F
redata: SpinPolarized (Up/Down) run      =     F
redata: Number of spin components        =     1
redata: Long output                      =     F
redata: Number of Atomic Species         =        2
redata: Charge density info will appear in .RHO file
redata: Write Mulliken Pop.              =     NO
redata: Mesh Cutoff                      =   200.0000  Ry
redata: Net charge of the system         =     0.0000 |e|
redata: Max. number of SCF Iter          =      500
redata: SCF convergence failure will abort job
redata: Performing Pulay mixing using    =    10 iterations
redata: Mix DM in first SCF step ?       =     F
redata: Write Pulay info on disk?        =     F
redata: Discard 1st Pulay DM after  kick =     F
redata: New DM Mixing Weight             =     0.0500
redata: New DM Occupancy tolerance       = 0.000000000001
redata: No kicks to SCF
redata: DM Mixing Weight for Kicks       =     0.5000
redata: DM Tolerance for SCF             =     0.000100
redata: Require Energy convergence for SCF =     F
redata: DM Energy tolerance for SCF      =     0.000100 eV
redata: Require Harris convergence for SCF =     F
redata: DM Harris energy tolerance for SCF =     0.000100 eV
redata: Using Saved Data (generic)   =     F
redata: Use continuation files for DM    =     T
redata: Neglect nonoverlap interactions  =     F
redata: Method of Calculation            =     Diagonalization
redata: Divide and Conquer               =     T
redata: Electronic Temperature           =     0.0019  Ry
redata: Fix the spin of the system       =     F
redata: Dynamics option                  =     Verlet MD run
redata: Initial MD time step             =        1
redata:   Final MD time step             =        1
redata: Length of MD time step           =     1.0000  fs
redata: Initial Temperature of MD run    =     0.0000  K
redata: Perform a MD quench              =     F
redata: ***********************************************************************
Total number of electrons:   308.000000
Total ionic charge:   308.000000

* ProcessorY, Blocksize:    2  24

k-point displ. along   1 input, could be:     0.50    0.00
k-point displ. along   2 input, could be:     0.50    0.00
 Kpoints in:          231 . Kpoints trimmed:          231

siesta: k-grid: Number of k-points =   231
siesta: k-grid: Cutoff (effective) =     5.000 Ang
siesta: k-grid: Supercell and displacements
siesta: k-grid:   21   0   0      0.500
siesta: k-grid:    0  21   0      0.500
siesta: k-grid:    0   0   1      0.000
Naive supercell factors:     2    2    2

superc: Internal auxiliary supercell:     2 x     2 x     2  =       8
superc: Number of atoms, orbitals, and projectors:    576   7488   9216

* Maximum dynamic memory allocated =     4 MB

siesta:                 ==============================
                            Begin MD step =      1
                        ==============================

superc: Internal auxiliary supercell:     2 x     2 x     2  =       8
superc: Number of atoms, orbitals, and projectors:    576   7488   9216

outcell: Unit cell vectors (Ang):
       12.804619    7.392750    0.000000
        0.000000   14.785500    0.000000
        0.000000    0.000000   10.000000

outcell: Cell vector modules (Ang)   :   14.785500   14.785500   10.000000
outcell: Cell angles (23,13,12) (deg):     90.0000     90.0000     60.0000
outcell: Cell volume (Ang**3)        :   1893.2269
New_DM. Step:     1
Initializing Density Matrix...

InitMesh: MESH =   120 x   120 x    90 =     1296000
InitMesh: Mesh cutoff (required, used) =   200.000   223.865 Ry

* Maximum dynamic memory allocated =   182 MB

stepf: Fermi-Dirac step function

siesta: Program's energy decomposition (eV):
siesta: Ebs     =     -6222.183416
siesta: Eions   =     21617.947954
siesta: Ena     =      4918.418535
siesta: Ekin    =      8056.630787
siesta: Enl     =        53.653075
siesta: DEna    =        -0.000015
siesta: DUscf   =         0.000000
siesta: DUext   =         0.000000
siesta: Exc     =     -4668.590499
siesta: eta*DQ  =         0.000000
siesta: Emadel  =         0.000000
siesta: Emeta   =         0.000000
siesta: Emolmec =         0.000000
siesta: Ekinion =         0.000000
siesta: Eharris =    -12889.783521
siesta: Etot    =    -13257.836070
siesta: FreeEng =    -13257.836070

siesta: iscf   Eharris(eV)      E_KS(eV)   FreeEng(eV)   dDmax  Ef(eV)
siesta:    1   -12889.7835   -13257.8361   -13257.8361  8.3721 -6.8788
timer: Routine,Calls,Time,% = IterSCF        1    3379.581  99.69
elaps: Routine,Calls,Wall,% = IterSCF        1     423.260  99.69
siesta:    2   -19188.5882   -12057.5640   -12057.6126 19.3249 -6.4802
siesta:    3   -12824.0988   -13086.4462   -13086.4579  3.6694 -5.3259
siesta:    4   -12803.8257   -12919.8548   -12919.9265  1.5698 -4.3058
siesta:    5   -12745.7889   -12856.6637   -12856.6877  1.0646 -3.8114
siesta:    6   -12737.9731   -12793.5027   -12793.5288  0.9163 -3.5390
siesta:    7   -12731.3977   -12776.4562   -12776.4771  0.7790 -3.5130
siesta:    8   -12726.2171   -12756.7441   -12756.7670  0.7757 -3.7251
siesta:    9   -12725.4775   -12749.0981   -12749.1471  0.6806 -3.7161
siesta:   10   -12725.0769   -12722.6270   -12722.6797  0.5749 -3.6536
siesta:   11   -12724.3101   -12717.1799   -12717.2359  0.4016 -3.7033
siesta:   12   -12724.5885   -12705.3398   -12705.3947  0.3413 -3.5922
siesta:   13   -12724.4186   -12697.2736   -12697.3317  0.2579 -3.6308
siesta:   14   -12723.9031   -12698.5859   -12698.6444  0.1782 -3.6650
siesta:   15   -12723.5335   -12700.8795   -12700.9386  0.4090 -3.6269
siesta:   16   -12723.3415   -12705.6832   -12705.7395  0.1765 -3.6906
siesta:   17   -12723.2174   -12706.4931   -12706.5550  0.1105 -3.7146
siesta:   18   -12723.1573   -12710.7844   -12710.8434  0.0537 -3.7242
siesta:   19   -12723.1416   -12713.8836   -12713.9421  0.0480 -3.7231
siesta:   20   -12723.1233   -12719.6995   -12719.7568  0.0433 -3.7222
siesta:   21   -12723.1186   -12721.1334   -12721.1907  0.0379 -3.7216
siesta:   22   -12723.1161   -12722.6929   -12722.7505  0.0473 -3.7207
siesta:   23   -12723.1106   -12722.9485   -12723.0059  0.0202 -3.7164
siesta:   24   -12723.1095   -12723.3949   -12723.4527  0.0176 -3.7075
siesta:   25   -12723.1078   -12723.5562   -12723.6136  0.0103 -3.7046
siesta:   26   -12723.1070   -12723.6524   -12723.7101  0.0085 -3.7046
siesta:   27   -12723.1069   -12723.6801   -12723.7379  0.0062 -3.7051
siesta:   28   -12723.1069   -12723.6018   -12723.6597  0.0051 -3.7047
siesta:   29   -12723.1067   -12723.5016   -12723.5593  0.0042 -3.7052
siesta:   30   -12723.1067   -12723.4907   -12723.5484  0.0015 -3.7052
siesta:   31   -12723.1067   -12723.4230   -12723.4807  0.0013 -3.7054
siesta:   32   -12723.1067   -12723.2799   -12723.3376  0.0018 -3.7053
siesta:   33   -12723.1066   -12723.1621   -12723.2198  0.0009 -3.7055
siesta:   34   -12723.1066   -12723.1309   -12723.1886  0.0006 -3.7057
siesta:   35   -12723.1066   -12723.1152   -12723.1729  0.0005 -3.7057
siesta:   36   -12723.1067   -12723.1107   -12723.1685  0.0003 -3.7058
siesta:   37   -12723.1067   -12723.1151   -12723.1728  0.0003 -3.7057
siesta:   38   -12723.1067   -12723.1164   -12723.1741  0.0002 -3.7057
siesta:   39   -12723.1066   -12723.1113   -12723.1690  0.0001 -3.7058
siesta:   40   -12723.1066   -12723.1083   -12723.1660  0.0001 -3.7058

siesta: E_KS(eV) =           -12723.1059

siesta: E_KS - E_eggbox =    -12723.1059

siesta: Atomic forces (eV/Ang):
----------------------------------------
   Tot   -0.118317   -0.150163    0.000000
----------------------------------------
   Max  756.116248
   Res  169.047789    sqrt( Sum f_i^2 / 3N )
----------------------------------------
   Max  756.116248    constrained

Stress-tensor-Voigt (kbar):     -644.03    -2995.76       -0.05        5.22        0.00        0.00
(Free)E + p*V (eV/cell)   -11289.4929
Target enthalpy (eV/cell)   -12723.1636

siesta: Stress tensor (static) (eV/Ang**3):
        -0.401966    0.003259    0.000000
         0.003259   -1.869789    0.000000
         0.000000    0.000000   -0.000034

siesta: Pressure (static):       1213.28221499  kBar

siesta: Stress tensor (total) (eV/Ang**3):
        -0.401966    0.003259    0.000000
         0.003259   -1.869789    0.000000
         0.000000    0.000000   -0.000034

siesta: Pressure (total):       1213.28221499  kBar

siesta: Temp_ion =       0.000 K

* Maximum dynamic memory allocated =   199 MB
Computing bands...

siesta: Program's energy decomposition (eV):
siesta: Ebs     =     -5061.924005
siesta: Eions   =     21617.947954
siesta: Ena     =      4918.418535
siesta: Ekin    =     11051.245191
siesta: Enl     =     -1605.956725
siesta: DEna    =      -739.665450
siesta: DUscf   =       101.444818
siesta: DUext   =         0.000000
siesta: Exc     =     -4830.644287
siesta: eta*DQ  =         0.000000
siesta: Emadel  =         0.000000
siesta: Emeta   =         0.000000
siesta: Emolmec =         0.000000
siesta: Ekinion =         0.000000
siesta: Eharris =    -12723.106648
siesta: Etot    =    -12723.105872
siesta: FreeEng =    -12723.163595

siesta: Final energy (eV):
siesta:  Band Struct. =   -5061.924005
siesta:       Kinetic =   11051.245191
siesta:       Hartree =   35367.524619
siesta:    Ext. field =       0.000000
siesta:   Exch.-corr. =   -4830.644287
siesta:  Ion-electron =  -81355.598882
siesta:       Ion-ion =   27044.367487
siesta:       Ekinion =       0.000000
siesta:         Total =  -12723.105872

siesta: Atomic forces (eV/Ang):
siesta:      1   10.834482  124.297857    0.000000
siesta:      2  -23.451725   -3.049182    0.000000
siesta:      3  -20.967117 -750.535469    0.000000
siesta:      4   -3.415340 -120.275230    0.000000
siesta:      5  -34.676456  756.116248    0.000000
siesta:      6    0.859404   -3.090350    0.000000
siesta:      7   -0.449194    1.973178    0.000000
siesta:      8    1.768532    1.832275    0.000000
siesta:      9   -1.518355    1.432084    0.000000
siesta:     10   -0.672742   -1.292717    0.000000
siesta:     11   -1.302114    0.818410    0.000000
siesta:     12    1.930695   -2.513349    0.000000
siesta:     13    1.247554    3.282704    0.000000
siesta:     14    1.068627   -2.515202    0.000000
siesta:     15    0.180888    1.398940    0.000000
siesta:     16   -0.441838    0.102984    0.000000
siesta:     17    1.408376    1.644337    0.000000
siesta:     18   -1.438865    1.708238    0.000000
siesta:     19    2.057996   -2.438251    0.000000
siesta:     20   -0.406264   -2.264398    0.000000
siesta:     21    1.469953  546.044790    0.000000
siesta:     22   -3.140179 -128.451331    0.000000
siesta:     23   -9.424849 -543.442279    0.000000
siesta:     24   -1.156185  124.365085    0.000000
siesta:     25    1.197812 -542.922920    0.000000
siesta:     26   26.495528    4.411331    0.000000
siesta:     27   33.251180 -547.850767    0.000000
siesta:     28    2.031469    0.226858    0.000000
siesta:     29   -3.104841    2.247202    0.000000
siesta:     30    1.927604    2.441748    0.000000
siesta:     31   -1.358101   -0.047896    0.000000
siesta:     32   13.153508  545.896668    0.000000
siesta:     33   -2.452216 -127.522665    0.000000
siesta:     34   34.220282  547.760158    0.000000
siesta:     35   26.617109   -5.557367    0.000000
siesta:     36   -3.030376   -2.028178    0.000000
siesta:     37    2.022844    0.000057    0.000000
siesta:     38   -1.541578    0.038843    0.000000
siesta:     39    1.735283   -2.669397    0.000000
siesta:     40    0.024407    7.579219    0.000000
siesta:     41   -0.274192   -7.518677    0.000000
siesta:     42  -34.818438  549.554770    0.000000
siesta:     43    3.018443 -125.293172    0.000000
siesta:     44  -17.486076  541.230010    0.000000
siesta:     45   26.546813  559.286444    0.000000
siesta:     46   22.773286   -6.176013    0.000000
siesta:     47   -2.056175    3.622207    0.000000
siesta:     48   -0.225210   -1.227742    0.000000
siesta:     49   -0.480425    1.439310    0.000000
siesta:     50    0.122218   -1.056285    0.000000
siesta:     51  -24.005046    0.223341    0.000000
siesta:     52  -18.637686  570.370242    0.000000
siesta:     53  -23.795684   -6.340737    0.000000
siesta:     54   -0.706227  565.557660    0.000000
siesta:     55   -0.518270   -0.729900    0.000000
siesta:     56    2.528380   -0.668080    0.000000
siesta:     57   -2.057719   -0.689158    0.000000
siesta:     58    0.360125    0.541872    0.000000
siesta:     59   -1.344389   -0.071859    0.000000
siesta:     60    1.230202    0.903003    0.000000
siesta:     61   -0.504947    0.183007    0.000000
siesta:     62   -1.689070   -2.385413    0.000000
siesta:     63   -0.375706 -564.204911    0.000000
siesta:     64   -0.596425   -1.581869    0.000000
siesta:     65   22.484520    5.960575    0.000000
siesta:     66   25.042280 -556.268454    0.000000
siesta:     67  -22.754468    7.102021    0.000000
siesta:     68   -7.048911 -571.438347    0.000000
siesta:     69    0.660895  128.373458    0.000000
siesta:     70    1.598287 -555.554287    0.000000
siesta:     71   -0.796964  124.333587    0.000000
siesta:     72    2.133062 -544.779035    0.000000
siesta: ----------------------------------------
siesta:    Tot   -0.118317   -0.150163    0.000000

siesta: Stress tensor (static) (eV/Ang**3):
siesta:    -0.401966    0.003259    0.000000
siesta:     0.003259   -1.869789    0.000000
siesta:     0.000000    0.000000   -0.000034

siesta: Cell volume =       1893.226884 Ang**3

siesta: Pressure (static):
siesta:                Solid            Molecule  Units
siesta:           0.00824756          0.13217484  Ry/Bohr**3
siesta:           0.75726301         12.13584406  eV/Ang**3
siesta:        1213.28221499      19443.97595512  kBar
(Free)E+ p_basis*V_orbitals  =      -12695.285249
(Free)Eharris+ p_basis*V_orbitals  =      -12695.283583

siesta: Electric dipole (a.u.)  =    0.000000    0.000000    0.000000
siesta: Electric dipole (Debye) =    0.000000    0.000000    0.000000

* Maximum dynamic memory allocated : Node    0 =   199 MB
* Maximum dynamic memory allocated : Node    1 =    72 MB
* Maximum dynamic memory allocated : Node    2 =    73 MB
* Maximum dynamic memory allocated : Node    3 =   191 MB
* Maximum dynamic memory allocated : Node    4 =   187 MB
* Maximum dynamic memory allocated : Node    5 =    71 MB
* Maximum dynamic memory allocated : Node    6 =    72 MB
* Maximum dynamic memory allocated : Node    7 =   171 MB

* Maximum memory occured during matrixMtoO                    

timer: CPU execution times:
timer:  Routine       Calls   Time/call    Tot.time        %
timer:  siesta            1  134061.449  134061.449   100.00
timer:  Setup             1       2.785       2.785     0.00
timer:  bands             3     243.895     731.685     0.55
timer:  writewave         1       0.020       0.020     0.00
timer:  KSV_init          1       0.000       0.000     0.00
timer:  IterMD            1  133321.758  133321.758    99.45
timer:  hsparse           1       0.284       0.284     0.00
timer:  overlap           1       7.126       7.126     0.01
timer:  IterSCF          40    3329.280  133171.199    99.34
timer:  kinefsm           2       3.673       7.346     0.01
timer:  nlefsm            2      17.201      34.403     0.03
timer:  DHSCF            41      74.669    3061.421     2.28
timer:  DHSCF1            1       0.746       0.746     0.00
timer:  DHSCF2            1      30.547      30.547     0.02
timer:  REORD           330       0.005       1.637     0.00
timer:  POISON           42       0.877      36.828     0.03
timer:  DHSCF3           41      73.201    3001.237     2.24
timer:  rhoofd           41      15.511     635.970     0.47
timer:  cellXC           41       3.261     133.716     0.10
timer:  vmat             41      33.796    1385.632     1.03
timer:  MolMec            2       0.000       0.000     0.00
timer:  diagon           40    3253.869  130154.767    97.09
timer:  c-eigval       9361       6.028   56432.594    42.09
timer:  c-buildHS      9361       0.045     425.602     0.32
timer:  cdiag         18601       6.170  114767.027    85.61
timer:  cdiag1        18601       0.386    7182.463     5.36
timer:  cdiag2        18601       1.766   32840.168    24.50
timer:  cdiag3        18601       3.739   69554.056    51.88
timer:  cdiag4        18601       0.152    2831.889     2.11
timer:  c-eigvec       9240       6.396   59096.746    44.08
timer:  c-buildD       9240       1.657   15309.459    11.42
timer:  DHSCF4            1      28.135      28.135     0.02
timer:  dfscf             1      26.270      26.270     0.02
timer:  overfsm           1       0.381       0.381     0.00
timer:  optical           1       4.561       4.561     0.00
  

elaps: ELAPSED times:
elaps:  Routine       Calls   Time/call    Tot.time        %
elaps:  siesta            1   16789.088   16789.088   100.00
elaps:  Setup             1       0.349       0.349     0.00
elaps:  bands             3      30.561      91.682     0.55
elaps:  writewave         1       0.003       0.003     0.00
elaps:  KSV_init          1       0.000       0.000     0.00
elaps:  IterMD            1   16696.453   16696.453    99.45
elaps:  hsparse           1       0.036       0.036     0.00
elaps:  overlap           1       0.900       0.900     0.01
elaps:  IterSCF          40     416.940   16677.601    99.34
elaps:  kinefsm           2       0.458       0.917     0.01
elaps:  nlefsm            2       2.139       4.278     0.03
elaps:  DHSCF            41       9.443     387.171     2.31
elaps:  DHSCF1            1       0.096       0.096     0.00
elaps:  DHSCF2            1       3.823       3.823     0.02
elaps:  REORD           330       0.001       0.219     0.00
elaps:  POISON           42       0.110       4.605     0.03
elaps:  DHSCF3           41       9.168     375.884     2.24
elaps:  rhoofd           41       4.361     178.812     1.07
elaps:  cellXC           41       0.408      16.737     0.10
elaps:  vmat             41       4.233     173.543     1.03
elaps:  MolMec            2       0.000       0.000     0.00
elaps:  diagon           40     407.497   16299.889    97.09
elaps:  c-eigval       9361       0.755    7067.139    42.09
elaps:  c-buildHS      9361       0.006      57.356     0.34
elaps:  cdiag         18601       0.772   14350.909    85.48
elaps:  cdiag1        18601       0.048     899.379     5.36
elaps:  cdiag2        18601       0.221    4113.717    24.50
elaps:  cdiag3        18601       0.469    8722.271    51.95
elaps:  cdiag4        18601       0.019     352.406     2.10
elaps:  c-eigvec       9240       0.800    7387.783    44.00
elaps:  c-buildD       9240       0.209    1928.118    11.48
elaps:  DHSCF4            1       7.271       7.271     0.04
elaps:  dfscf             1       6.872       6.872     0.04
elaps:  overfsm           1       0.046       0.046     0.00
elaps:  optical           1       0.000       0.000     0.00
  
>> End of run:  28-APR-2016  20:34:28
