Siesta Version:                                        siesta-3.2-pl-3
Architecture  : x86_64-unknown-linux-gnu--unknown
Compiler flags: mpiifort -g -O2 -fPIC -xSSE4.1 -fp-model source -shared-intel 
PARALLEL version

* Running on    8 nodes in parallel
>> Start of run:  24-APR-2016  21:08:05

                           ***********************       
                           *  WELCOME TO SIESTA  *       
                           ***********************       

reinit: Reading from standard input
************************** Dump of input data file ****************************
#(1) General system descriptors
SystemName            GRP_doping    # Descriptive name of the system
SystemLabel           GRP_doping    # Short name for naming files
%include STRUCT.fdf
%include KPT.fdf
%include BASIS.fdf
#%include TS.fdf # for transiesta calculation
#(4) DFT, Grid, SCF
XC.functional         GGA           # LDA or GGA (default = LDA)
XC.authors            PBE           # CA (Ceperley-Aldr) = PZ
                                    #    (Perdew-Zunger) - LDA - Default
                                    # PW92 (Perdew-Wang-92) - LDA
                                    # PBE (Perdew-Burke-Ernzerhof) - GGA
MeshCutoff            200.000000    Ry      # Default: 50.0 Ry ~ 0.444 Bohr
                                    #         100.0 Ry ~ 0.314 Bohr
MaxSCFIterations      500           # Default: 50
DM.MixingWeight       0.05          # Default: 0.25
DM.NumberPulay        10            # Default: 0
DM.PulayOnFile        F             # SystemLabel.P1, SystemLabel.P2
DM.Tolerance          1.d-4         # Default: 1.d-4
DM.UseSaveDM          .true.        # because of the bug
SCFMustConverge       .true.
NeglNonOverlapInt     F             # Default: F
#(5) Eigenvalue problem: order-N or diagonalization
SolutionMethod        Diagon        # or Transiesta
ElectronicTemperature 300.0 K       # Default: 300.0 K
#(6) Molecular dynamics and relaxations
#MD.TypeOfRun          CG            # Type of dynamics:
#MD.VariableCell       F
#MD.NumCGsteps         0           # 0 for single-point / 100 for gopt
#MD.MaxCGDispl         0.2 Bohr      # Default: 0.2 Bohr
#MD.MaxForceTol        0.02 eV/Ang   # Default: 0.04 eV/Ang
#MD.MaxStressTol       1.0 GPa       # Default: 1.0 GPa
# Geometry Constraints
#%block GeometryConstraints
#	position from 1 to 44
#%endblock GeometryConstraints
BandLinesScale   pi/a
%block BandLines
 1   0.00000000  0.00000000  0.00000000
50   0.00000000  0.07809418  0.00000000
50   0.04509075  0.07809242  0.00000000
20   0.00000000  0.00000000  0.00000000
%endblock BandLines
************************** End of input data file *****************************

reinit: -----------------------------------------------------------------------
reinit: System Name: GRP_doping
reinit: -----------------------------------------------------------------------
reinit: System Label: GRP_doping                                                  
reinit: -----------------------------------------------------------------------

initatom: Reading input for the pseudopotentials and atomic orbitals ----------
 Species number:            1  Label: B Atomic number:           5
 Species number:            2  Label: C Atomic number:           6
Ground state valence configuration:   2s02  2p01
Reading pseudopotential information in formatted form from B.psf

Valence configuration for pseudopotential generation:
2s( 2.00) rc: 1.74
2p( 1.00) rc: 1.74
3d( 0.00) rc: 1.74
4f( 0.00) rc: 1.74
Ground state valence configuration:   2s02  2p02
Reading pseudopotential information in formatted form from C.psf

Valence configuration for pseudopotential generation:
2s( 2.00) rc: 1.54
2p( 2.00) rc: 1.54
3d( 0.00) rc: 1.54
4f( 0.00) rc: 1.54
For B, standard SIESTA heuristics set lmxkb to 3
 (one more than the basis l, including polarization orbitals).
Use PS.lmax or PS.KBprojectors blocks to override.
For C, standard SIESTA heuristics set lmxkb to 3
 (one more than the basis l, including polarization orbitals).
Use PS.lmax or PS.KBprojectors blocks to override.

<basis_specs>
===============================================================================
B                    Z=   5    Mass=  10.810        Charge= 0.17977+309
Lmxo=1 Lmxkb= 3    BasisType=split      Semic=F
L=0  Nsemic=0  Cnfigmx=2
          n=1  nzeta=2  polorb=0
            splnorm:   0.15000    
               vcte:    0.0000    
               rinn:    0.0000    
                rcs:    0.0000      0.0000    
            lambdas:    1.0000      1.0000    
L=1  Nsemic=0  Cnfigmx=2
          n=1  nzeta=2  polorb=1
            splnorm:   0.15000    
               vcte:    0.0000    
               rinn:    0.0000    
                rcs:    0.0000      0.0000    
            lambdas:    1.0000      1.0000    
-------------------------------------------------------------------------------
L=0  Nkbl=1  erefs: 0.17977+309
L=1  Nkbl=1  erefs: 0.17977+309
L=2  Nkbl=1  erefs: 0.17977+309
L=3  Nkbl=1  erefs: 0.17977+309
===============================================================================
</basis_specs>

atom: Called for B                     (Z =   5)

read_vps: Pseudopotential generation method:
read_vps: ATM3      Troullier-Martins                       
Total valence charge:    3.00000

read_vps: Pseudopotential includes a core correction:
read_vps: Pseudo-core for xc-correction

xc_check: Exchange-correlation functional:
xc_check: GGA Perdew, Burke & Ernzerhof 1996
V l=0 = -2*Zval/r beyond r=  1.7165
V l=1 = -2*Zval/r beyond r=  1.7165
V l=2 = -2*Zval/r beyond r=  1.7165
V l=3 = -2*Zval/r beyond r=  1.6951
All V_l potentials equal beyond r=  1.7165
This should be close to max(r_c) in ps generation
All pots = -2*Zval/r beyond r=  1.7165

VLOCAL1: 99.0% of the norm of Vloc inside     14.733 Ry
VLOCAL1: 99.9% of the norm of Vloc inside     33.577 Ry
atom: Maximum radius for 4*pi*r*r*local-pseudopot. charge    2.04484
atom: Maximum radius for r*vlocal+2*Zval:    1.75994
GHOST: No ghost state for L =  0
GHOST: No ghost state for L =  1
GHOST: No ghost state for L =  2
GHOST: No ghost state for L =  3

KBgen: Kleinman-Bylander projectors: 
   l= 0   rc=  1.897051   el= -0.693730   Ekb=  4.595746   kbcos=  0.286105
   l= 1   rc=  1.920920   el= -0.265236   Ekb= -2.350715   kbcos= -0.315747
   l= 2   rc=  2.044840   el=  0.002055   Ekb= -0.690767   kbcos= -0.013822
   l= 3   rc=  2.149707   el=  0.003188   Ekb= -0.315358   kbcos= -0.002055

KBgen: Total number of  Kleinman-Bylander projectors:   16
atom: -------------------------------------------------------------------------

atom: SANKEY-TYPE ORBITALS:
atom: Selected multiple-zeta basis: split     

SPLIT: Orbitals with angular momentum L= 0

SPLIT: Basis orbitals for state 2s

SPLIT: PAO cut-off radius determined from an
SPLIT: energy shift=  0.007350 Ry

   izeta = 1
                 lambda =    1.000000
                     rc =    5.422032
                 energy =   -0.686029
                kinetic =    0.576707
    potential(screened) =   -1.262736
       potential(ionic) =   -3.271094

   izeta = 2
                 rmatch =    4.222573
              splitnorm =    0.150000
                 energy =   -0.602132
                kinetic =    0.858975
    potential(screened) =   -1.461107
       potential(ionic) =   -3.582536

SPLIT: Orbitals with angular momentum L= 1

SPLIT: Basis orbitals for state 2p

SPLIT: PAO cut-off radius determined from an
SPLIT: energy shift=  0.007350 Ry

   izeta = 1
                 lambda =    1.000000
                     rc =    6.790259
                 energy =   -0.258578
                kinetic =    1.481412
    potential(screened) =   -1.739989
       potential(ionic) =   -3.657461

   izeta = 2
                 rmatch =    4.608740
              splitnorm =    0.150000
                 energy =   -0.173757
                kinetic =    2.186690
    potential(screened) =   -2.360447
       potential(ionic) =   -4.464260

POLgen: Perturbative polarization orbital with L=  2

POLgen: Polarization orbital for state 2p

   izeta = 1
                     rc =    6.790259
                 energy =    0.684082
                kinetic =    1.471481
    potential(screened) =   -0.787399
       potential(ionic) =   -2.406985
atom: Total number of Sankey-type orbitals: 13

atm_pop: Valence configuration (for local Pseudopot. screening):
 2s( 2.00)                                                            
 2p( 1.00)                                                            
Vna: chval, zval:    3.00000   3.00000

Vna:  Cut-off radius for the neutral-atom potential:   6.790259
comcore: Pseudo-core radius Rcore=  2.122997

atom: _________________________________________________________________________

<basis_specs>
===============================================================================
C                    Z=   6    Mass=  12.010        Charge= 0.17977+309
Lmxo=1 Lmxkb= 3    BasisType=split      Semic=F
L=0  Nsemic=0  Cnfigmx=2
          n=1  nzeta=2  polorb=0
            splnorm:   0.15000    
               vcte:    0.0000    
               rinn:    0.0000    
                rcs:    0.0000      0.0000    
            lambdas:    1.0000      1.0000    
L=1  Nsemic=0  Cnfigmx=2
          n=1  nzeta=2  polorb=1
            splnorm:   0.15000    
               vcte:    0.0000    
               rinn:    0.0000    
                rcs:    0.0000      0.0000    
            lambdas:    1.0000      1.0000    
-------------------------------------------------------------------------------
L=0  Nkbl=1  erefs: 0.17977+309
L=1  Nkbl=1  erefs: 0.17977+309
L=2  Nkbl=1  erefs: 0.17977+309
L=3  Nkbl=1  erefs: 0.17977+309
===============================================================================
</basis_specs>

atom: Called for C                     (Z =   6)

read_vps: Pseudopotential generation method:
read_vps: ATM3      Troullier-Martins                       
Total valence charge:    4.00000

read_vps: Pseudopotential includes a core correction:
read_vps: Pseudo-core for xc-correction

xc_check: Exchange-correlation functional:
xc_check: GGA Perdew, Burke & Ernzerhof 1996
V l=0 = -2*Zval/r beyond r=  1.5227
V l=1 = -2*Zval/r beyond r=  1.5227
V l=2 = -2*Zval/r beyond r=  1.5227
V l=3 = -2*Zval/r beyond r=  1.5038
All V_l potentials equal beyond r=  1.5227
This should be close to max(r_c) in ps generation
All pots = -2*Zval/r beyond r=  1.5227

VLOCAL1: 99.0% of the norm of Vloc inside     18.722 Ry
VLOCAL1: 99.9% of the norm of Vloc inside     42.668 Ry
atom: Maximum radius for 4*pi*r*r*local-pseudopot. charge    1.83678
atom: Maximum radius for r*vlocal+2*Zval:    1.58088
GHOST: No ghost state for L =  0
GHOST: No ghost state for L =  1
GHOST: No ghost state for L =  2
GHOST: No ghost state for L =  3

KBgen: Kleinman-Bylander projectors: 
   l= 0   rc=  1.704034   el= -1.009801   Ekb=  5.335044   kbcos=  0.316824
   l= 1   rc=  1.704034   el= -0.388707   Ekb= -3.785862   kbcos= -0.366464
   l= 2   rc=  1.791422   el=  0.001971   Ekb= -0.970471   kbcos= -0.009212
   l= 3   rc=  1.859892   el=  0.003065   Ekb= -0.399525   kbcos= -0.001223

KBgen: Total number of  Kleinman-Bylander projectors:   16
atom: -------------------------------------------------------------------------

atom: SANKEY-TYPE ORBITALS:
atom: Selected multiple-zeta basis: split     

SPLIT: Orbitals with angular momentum L= 0

SPLIT: Basis orbitals for state 2s

SPLIT: PAO cut-off radius determined from an
SPLIT: energy shift=  0.007350 Ry

   izeta = 1
                 lambda =    1.000000
                     rc =    4.632753
                 energy =   -1.002270
                kinetic =    0.855760
    potential(screened) =   -1.858031
       potential(ionic) =   -5.417575

   izeta = 2
                 rmatch =    3.431921
              splitnorm =    0.150000
                 energy =   -0.867111
                kinetic =    1.300804
    potential(screened) =   -2.167915
       potential(ionic) =   -5.962684

SPLIT: Orbitals with angular momentum L= 1

SPLIT: Basis orbitals for state 2p

SPLIT: PAO cut-off radius determined from an
SPLIT: energy shift=  0.007350 Ry

   izeta = 1
                 lambda =    1.000000
                     rc =    5.658549
                 energy =   -0.381140
                kinetic =    2.399701
    potential(screened) =   -2.780841
       potential(ionic) =   -6.206085

   izeta = 2
                 rmatch =    3.653288
              splitnorm =    0.150000
                 energy =   -0.249149
                kinetic =    3.542762
    potential(screened) =   -3.791911
       potential(ionic) =   -7.581078

POLgen: Perturbative polarization orbital with L=  2

POLgen: Polarization orbital for state 2p

   izeta = 1
                     rc =    5.658549
                 energy =    1.109913
                kinetic =    2.304789
    potential(screened) =   -1.194876
       potential(ionic) =   -4.013592
atom: Total number of Sankey-type orbitals: 13

atm_pop: Valence configuration (for local Pseudopot. screening):
 2s( 2.00)                                                            
 2p( 2.00)                                                            
Vna: chval, zval:    4.00000   4.00000

Vna:  Cut-off radius for the neutral-atom potential:   5.658549
comcore: Pseudo-core radius Rcore=  1.791422

atom: _________________________________________________________________________

prinput: Basis input ----------------------------------------------------------

PAO.BasisType split     

%block ChemicalSpeciesLabel
    1    5 B                       # Species index, atomic number, species label
    2    6 C                       # Species index, atomic number, species label
%endblock ChemicalSpeciesLabel

%block PAO.Basis                 # Define Basis set
B                     2                    # Species label, number of l-shells
 n=2   0   2                         # n, l, Nzeta 
   5.422      4.223   
   1.000      1.000   
 n=2   1   2 P   1                   # n, l, Nzeta, Polarization, NzetaPol
   6.790      4.609   
   1.000      1.000   
C                     2                    # Species label, number of l-shells
 n=2   0   2                         # n, l, Nzeta 
   4.633      3.432   
   1.000      1.000   
 n=2   1   2 P   1                   # n, l, Nzeta, Polarization, NzetaPol
   5.659      3.653   
   1.000      1.000   
%endblock PAO.Basis

prinput: ----------------------------------------------------------------------

coor:   Atomic-coordinates input format  =     Fractional

siesta: Atomic coordinates (Bohr) and species
siesta:     -2.35420  38.89134   0.00000  1        1
siesta:     -2.35420  41.57980   0.00000  1        2
siesta:      2.30256  38.89134   0.00000  1        3
siesta:     -4.68258  34.85847   0.00000  1        4
siesta:     -4.68258  37.54693   0.00000  1        5
siesta:     -2.35420  14.69411   0.00000  1        6
siesta:     -2.35420  17.38257   0.00000  1        7
siesta:     -0.02582  18.72698   0.00000  1        8
siesta:     -0.02582  21.41544   0.00000  1        9
siesta:     -4.68258  21.41544   0.00000  1       10
siesta:     -2.35420  22.75985   0.00000  1       11
siesta:     -7.01096  22.75985   0.00000  1       12
siesta:     -7.01096  25.44831   0.00000  1       13
siesta:     -9.33934  26.79272   0.00000  1       14
siesta:     -9.33934  29.48119   0.00000  1       15
siesta:     -4.68258  26.79272   0.00000  1       16
siesta:     -4.68258  29.48119   0.00000  1       17
siesta:     -2.35420  30.82560   0.00000  1       18
siesta:     -2.35420  33.51406   0.00000  1       19
siesta:     -7.01096  30.82560   0.00000  1       20
siesta:     -7.01096  33.51406   0.00000  1       21
siesta:     -0.02582  34.85847   0.00000  1       22
siesta:     -0.02582  37.54693   0.00000  1       23
siesta:     -0.02582   2.59549   0.00000  2       24
siesta:     -0.02582   5.28395   0.00000  2       25
siesta:      2.30256  41.57980   0.00000  2       26
siesta:      4.63094  34.85847   0.00000  2       27
siesta:      4.63094  37.54693   0.00000  2       28
siesta:      6.95932  30.82560   0.00000  2       29
siesta:      6.95932  33.51406   0.00000  2       30
siesta:      9.28770  26.79272   0.00000  2       31
siesta:      9.28770  29.48119   0.00000  2       32
siesta:      2.30256   6.62836   0.00000  2       33
siesta:      2.30256   9.31683   0.00000  2       34
siesta:      4.63094  10.66124   0.00000  2       35
siesta:      4.63094  13.34970   0.00000  2       36
siesta:      6.95932  14.69411   0.00000  2       37
siesta:      6.95932  17.38257   0.00000  2       38
siesta:      9.28770  18.72698   0.00000  2       39
siesta:      9.28770  21.41544   0.00000  2       40
siesta:     11.61608  22.75985   0.00000  2       41
siesta:     11.61608  25.44831   0.00000  2       42
siesta:     -2.35420   6.62836   0.00000  2       43
siesta:     -2.35420   9.31683   0.00000  2       44
siesta:     -0.02582  10.66124   0.00000  2       45
siesta:     -0.02582  13.34970   0.00000  2       46
siesta:      2.30256  14.69411   0.00000  2       47
siesta:      2.30256  17.38257   0.00000  2       48
siesta:      4.63094  18.72698   0.00000  2       49
siesta:      4.63094  21.41544   0.00000  2       50
siesta:      6.95932  22.75985   0.00000  2       51
siesta:      6.95932  25.44831   0.00000  2       52
siesta:     -4.68258  10.66124   0.00000  2       53
siesta:     -4.68258  13.34970   0.00000  2       54
siesta:      2.30256  22.75985   0.00000  2       55
siesta:      2.30256  25.44831   0.00000  2       56
siesta:     -7.01096  14.69411   0.00000  2       57
siesta:     -7.01096  17.38257   0.00000  2       58
siesta:     -4.68258  18.72698   0.00000  2       59
siesta:     -2.35420  25.44831   0.00000  2       60
siesta:     -9.33934  18.72698   0.00000  2       61
siesta:     -9.33934  21.41544   0.00000  2       62
siesta:    -11.66772  22.75985   0.00000  2       63
siesta:    -11.66772  25.44831   0.00000  2       64
siesta:      4.63094  26.79272   0.00000  2       65
siesta:      4.63094  29.48119   0.00000  2       66
siesta:     -0.02582  26.79272   0.00000  2       67
siesta:     -0.02582  29.48119   0.00000  2       68
siesta:      2.30256  30.82560   0.00000  2       69
siesta:      2.30256  33.51406   0.00000  2       70
siesta:     -0.02582  42.92421   0.00000  2       71
siesta:     -0.02582  45.61267   0.00000  2       72

siesta: System type = slab      

initatomlists: Number of atoms, orbitals, and projectors:     72   936  1152

siesta: ******************** Simulation parameters ****************************
siesta:
siesta: The following are some of the parameters of the simulation.
siesta: A complete list of the parameters used, including default values,
siesta: can be found in file out.fdf
siesta:
redata: Non-Collinear-spin run           =     F
redata: SpinPolarized (Up/Down) run      =     F
redata: Number of spin components        =     1
redata: Long output                      =     F
redata: Number of Atomic Species         =        2
redata: Charge density info will appear in .RHO file
redata: Write Mulliken Pop.              =     NO
redata: Mesh Cutoff                      =   200.0000  Ry
redata: Net charge of the system         =     0.0000 |e|
redata: Max. number of SCF Iter          =      500
redata: SCF convergence failure will abort job
redata: Performing Pulay mixing using    =    10 iterations
redata: Mix DM in first SCF step ?       =     F
redata: Write Pulay info on disk?        =     F
redata: Discard 1st Pulay DM after  kick =     F
redata: New DM Mixing Weight             =     0.0500
redata: New DM Occupancy tolerance       = 0.000000000001
redata: No kicks to SCF
redata: DM Mixing Weight for Kicks       =     0.5000
redata: DM Tolerance for SCF             =     0.000100
redata: Require Energy convergence for SCF =     F
redata: DM Energy tolerance for SCF      =     0.000100 eV
redata: Require Harris convergence for SCF =     F
redata: DM Harris energy tolerance for SCF =     0.000100 eV
redata: Using Saved Data (generic)   =     F
redata: Use continuation files for DM    =     T
redata: Neglect nonoverlap interactions  =     F
redata: Method of Calculation            =     Diagonalization
redata: Divide and Conquer               =     T
redata: Electronic Temperature           =     0.0019  Ry
redata: Fix the spin of the system       =     F
redata: Dynamics option                  =     Verlet MD run
redata: Initial MD time step             =        1
redata:   Final MD time step             =        1
redata: Length of MD time step           =     1.0000  fs
redata: Initial Temperature of MD run    =     0.0000  K
redata: Perform a MD quench              =     F
redata: ***********************************************************************
Total number of electrons:   265.000000
Total ionic charge:   265.000000

* ProcessorY, Blocksize:    2  24

k-point displ. along   1 input, could be:     0.50    0.00
k-point displ. along   2 input, could be:     0.50    0.00
 Kpoints in:          231 . Kpoints trimmed:          231

siesta: k-grid: Number of k-points =   231
siesta: k-grid: Cutoff (effective) =     5.000 Ang
siesta: k-grid: Supercell and displacements
siesta: k-grid:   21   0   0      0.500
siesta: k-grid:    0  21   0      0.500
siesta: k-grid:    0   0   1      0.000
Naive supercell factors:     2    2    2

superc: Internal auxiliary supercell:     2 x     2 x     2  =       8
superc: Number of atoms, orbitals, and projectors:    576   7488   9216

* Maximum dynamic memory allocated =     4 MB

siesta:                 ==============================
                            Begin MD step =      1
                        ==============================

superc: Internal auxiliary supercell:     2 x     2 x     2  =       8
superc: Number of atoms, orbitals, and projectors:    576   7488   9216

outcell: Unit cell vectors (Ang):
       12.804619    7.392750    0.000000
        0.000000   14.785500    0.000000
        0.000000    0.000000   10.000000

outcell: Cell vector modules (Ang)   :   14.785500   14.785500   10.000000
outcell: Cell angles (23,13,12) (deg):     90.0000     90.0000     60.0000
outcell: Cell volume (Ang**3)        :   1893.2269
New_DM. Step:     1
Initializing Density Matrix...

InitMesh: MESH =   120 x   120 x    90 =     1296000
InitMesh: Mesh cutoff (required, used) =   200.000   223.865 Ry

* Maximum dynamic memory allocated =   233 MB

stepf: Fermi-Dirac step function

siesta: Program's energy decomposition (eV):
siesta: Ebs     =     -5458.287693
siesta: Eions   =     15457.706713
siesta: Ena     =      4164.040137
siesta: Ekin    =      5165.204314
siesta: Enl     =       838.057743
siesta: DEna    =        -0.000007
siesta: DUscf   =         0.000000
siesta: DUext   =         0.000000
siesta: Exc     =     -4196.973329
siesta: eta*DQ  =         0.000000
siesta: Emadel  =         0.000000
siesta: Emeta   =         0.000000
siesta: Emolmec =         0.000000
siesta: Ekinion =         0.000000
siesta: Eharris =     -9299.705669
siesta: Etot    =     -9487.377856
siesta: FreeEng =     -9487.377856

siesta: iscf   Eharris(eV)      E_KS(eV)   FreeEng(eV)   dDmax  Ef(eV)
siesta:    1    -9299.7057    -9487.3779    -9487.3779  7.4431 -8.5219
timer: Routine,Calls,Time,% = IterSCF        1    4468.237  99.72
elaps: Routine,Calls,Wall,% = IterSCF        1     559.292  99.71
siesta:    2   -15916.3233    -8297.4782    -8297.5400 20.2028 -6.4394
siesta:    3    -9328.5717    -9320.1505    -9320.1696  2.3387 -5.9206
siesta:    4    -9282.6739    -9239.1964    -9239.2814  1.4928 -5.2625
siesta:    5    -9179.2629    -9147.4518    -9147.4925  1.1928 -4.9928
siesta:    6    -9147.5079    -9115.6305    -9115.6857  0.8891 -5.2335
siesta:    7    -9145.2582    -9106.7169    -9106.7636  0.9577 -5.1798
siesta:    8    -9141.9063    -9102.9214    -9103.0066  0.8895 -5.2618
siesta:    9    -9137.4267    -9094.2356    -9094.2771  0.6499 -5.2609
siesta:   10    -9136.3564    -9094.1088    -9094.1546  0.5382 -5.2543
siesta:   11    -9137.4920    -9097.1113    -9097.1944  0.3599 -5.2097
siesta:   12    -9136.3221    -9101.2095    -9101.2779  0.4102 -5.1847
siesta:   13    -9136.1222    -9103.8318    -9103.8681  0.2928 -5.1714
siesta:   14    -9135.2567    -9107.8360    -9107.8964  0.2780 -5.2086
siesta:   15    -9134.6508    -9112.6966    -9112.7622  0.2452 -5.2361
siesta:   16    -9134.0002    -9121.5261    -9121.5895  0.1883 -5.2736
siesta:   17    -9133.9067    -9124.6928    -9124.7883  0.1831 -5.3001
siesta:   18    -9133.7952    -9130.6885    -9130.7787  0.3006 -5.3178
siesta:   19    -9133.7582    -9128.2243    -9128.3233  0.1386 -5.3160
siesta:   20    -9133.7234    -9130.8723    -9130.9690  0.2449 -5.2999
siesta:   21    -9133.7156    -9129.7213    -9129.8227  0.1297 -5.3077
siesta:   22    -9133.6987    -9134.5116    -9134.5995  0.1010 -5.2952
siesta:   23    -9133.6976    -9134.6563    -9134.7474  0.0967 -5.2833
siesta:   24    -9133.6773    -9134.4837    -9134.5767  0.0742 -5.2781
siesta:   25    -9133.6635    -9134.5473    -9134.6453  0.0836 -5.2750
siesta:   26    -9133.6716    -9134.0106    -9134.1122  0.0549 -5.2742
siesta:   27    -9133.6736    -9133.8098    -9133.9101  0.0648 -5.2731
siesta:   28    -9133.6737    -9134.2325    -9134.3333  0.0764 -5.2728
siesta:   29    -9133.6670    -9134.1576    -9134.2593  0.0703 -5.2704
siesta:   30    -9133.6597    -9134.1022    -9134.2052  0.0941 -5.2704
siesta:   31    -9133.6540    -9133.7561    -9133.8590  0.0751 -5.2726
siesta:   32    -9133.6523    -9133.4040    -9133.5065  0.0622 -5.2757
siesta:   33    -9133.6500    -9132.9408    -9133.0427  0.0366 -5.2792
siesta:   34    -9133.6486    -9132.8392    -9132.9403  0.0081 -5.2783
siesta:   35    -9133.6485    -9132.9158    -9133.0172  0.0093 -5.2787
siesta:   36    -9133.6485    -9132.9592    -9133.0607  0.0070 -5.2785
siesta:   37    -9133.6482    -9133.1183    -9133.2197  0.0025 -5.2794
siesta:   38    -9133.6482    -9133.3277    -9133.4291  0.0023 -5.2797
siesta:   39    -9133.6481    -9133.5317    -9133.6331  0.0027 -5.2796
siesta:   40    -9133.6481    -9133.6096    -9133.7110  0.0015 -5.2799
siesta:   41    -9133.6481    -9133.6577    -9133.7590  0.0010 -5.2802
siesta:   42    -9133.6481    -9133.6686    -9133.7698  0.0009 -5.2800
siesta:   43    -9133.6481    -9133.6621    -9133.7634  0.0008 -5.2800
siesta:   44    -9133.6481    -9133.6660    -9133.7672  0.0004 -5.2798
siesta:   45    -9133.6481    -9133.6599    -9133.7612  0.0003 -5.2797
siesta:   46    -9133.6481    -9133.6613    -9133.7625  0.0002 -5.2797
siesta:   47    -9133.6481    -9133.6586    -9133.7599  0.0001 -5.2797
siesta:   48    -9133.6481    -9133.6600    -9133.7613  0.0001 -5.2797
siesta:   49    -9133.6481    -9133.6620    -9133.7633  0.0001 -5.2797

siesta: E_KS(eV) =            -9133.6580

siesta: E_KS - E_eggbox =     -9133.6580

siesta: Atomic forces (eV/Ang):
----------------------------------------
   Tot   -0.012677    0.205826    0.000000
----------------------------------------
   Max  563.952348
   Res  136.590429    sqrt( Sum f_i^2 / 3N )
----------------------------------------
   Max  563.952348    constrained

Stress-tensor-Voigt (kbar):     -728.52    -2501.24       -0.67      -12.04        0.00        0.00
(Free)E + p*V (eV/cell)    -7861.3538
Target enthalpy (eV/cell)    -9133.7592

siesta: Stress tensor (static) (eV/Ang**3):
        -0.454700   -0.007513    0.000000
        -0.007513   -1.561133    0.000000
         0.000000    0.000000   -0.000416

siesta: Pressure (static):       1076.80716093  kBar

siesta: Stress tensor (total) (eV/Ang**3):
        -0.454700   -0.007513    0.000000
        -0.007513   -1.561133    0.000000
         0.000000    0.000000   -0.000416

siesta: Pressure (total):       1076.80716093  kBar

siesta: Temp_ion =       0.000 K

* Maximum dynamic memory allocated =   251 MB
Computing bands...

siesta: Program's energy decomposition (eV):
siesta: Ebs     =     -4067.138873
siesta: Eions   =     15457.706713
siesta: Ena     =      4164.040137
siesta: Ekin    =      7942.198186
siesta: Enl     =      -772.256508
siesta: DEna    =      -751.056943
siesta: DUscf   =       101.447621
siesta: DUext   =         0.000000
siesta: Exc     =     -4360.323751
siesta: eta*DQ  =         0.000000
siesta: Emadel  =         0.000000
siesta: Emeta   =         0.000000
siesta: Emolmec =         0.000000
siesta: Ekinion =         0.000000
siesta: Eharris =     -9133.648100
siesta: Etot    =     -9133.657972
siesta: FreeEng =     -9133.759232

siesta: Final energy (eV):
siesta:  Band Struct. =   -4067.138873
siesta:       Kinetic =    7942.198186
siesta:       Hartree =   25539.701827
siesta:    Ext. field =       0.000000
siesta:   Exch.-corr. =   -4360.323751
siesta:  Ion-electron =  -58727.744522
siesta:       Ion-ion =   20472.510289
siesta:       Ekinion =       0.000000
siesta:         Total =   -9133.657972

siesta: Atomic forces (eV/Ang):
siesta:      1    1.959456  100.107859    0.000000
siesta:      2  -11.784387 -291.744449    0.000000
siesta:      3   -3.249124  107.675367    0.000000
siesta:      4  -15.385730    0.334994    0.000000
siesta:      5  -16.634667 -397.295640    0.000000
siesta:      6  -23.723373  294.820411    0.000000
siesta:      7  -19.449939    1.757716    0.000000
siesta:      8   -0.053704  409.627145    0.000000
siesta:      9    4.206649    1.021587    0.000000
siesta:     10    1.558584   -5.117710    0.000000
siesta:     11   -0.871321    4.566595    0.000000
siesta:     12   -2.444940   -1.344855    0.000000
siesta:     13    0.154244    2.373259    0.000000
siesta:     14   -7.306573   -2.399577    0.000000
siesta:     15   -4.159485    2.684941    0.000000
siesta:     16    3.394746   -3.934332    0.000000
siesta:     17    1.258581    2.628352    0.000000
siesta:     18  -15.620275    1.478715    0.000000
siesta:     19  -17.311490 -399.451775    0.000000
siesta:     20   -2.865861    3.689249    0.000000
siesta:     21   -3.400567    2.717380    0.000000
siesta:     22   -2.771023  107.877996    0.000000
siesta:     23   -4.260973 -387.502306    0.000000
siesta:     24    7.369712  548.346166    0.000000
siesta:     25  -12.012624 -131.936515    0.000000
siesta:     26   19.164474 -550.881366    0.000000
siesta:     27   26.325334    5.504770    0.000000
siesta:     28   25.545961 -542.642089    0.000000
siesta:     29    1.513364   -0.098587    0.000000
siesta:     30   -2.369149    2.055833    0.000000
siesta:     31    2.341439    1.864340    0.000000
siesta:     32   -0.865055    0.656389    0.000000
siesta:     33   28.592670  555.168860    0.000000
siesta:     34   -4.509331 -131.874892    0.000000
siesta:     35   38.115568  549.671038    0.000000
siesta:     36   23.284381   -5.427980    0.000000
siesta:     37   -2.646221   -2.292017    0.000000
siesta:     38    2.449703    0.145048    0.000000
siesta:     39   -0.959814   -0.647003    0.000000
siesta:     40    1.990440   -1.735931    0.000000
siesta:     41    0.311623    6.212948    0.000000
siesta:     42   -0.498582   -6.347322    0.000000
siesta:     43  -17.120955  403.896759    0.000000
siesta:     44   -1.642888 -119.691481    0.000000
siesta:     45   -4.753266  404.786306    0.000000
siesta:     46   -3.734009 -118.082306    0.000000
siesta:     47   24.812979  563.952348    0.000000
siesta:     48   22.133254   -2.595294    0.000000
siesta:     49   -1.358428    1.442542    0.000000
siesta:     50    0.681720    0.462276    0.000000
siesta:     51   -0.320980    0.573847    0.000000
siesta:     52   -0.215620   -0.739562    0.000000
siesta:     53  -30.377905  406.767025    0.000000
siesta:     54  -22.467731    4.132603    0.000000
siesta:     55    1.860512    1.557855    0.000000
siesta:     56    0.577062    0.108920    0.000000
siesta:     57    1.403474   -2.547467    0.000000
siesta:     58   -2.114455   -1.276976    0.000000
siesta:     59   -1.192278   -1.295562    0.000000
siesta:     60    4.982905    3.481944    0.000000
siesta:     61    0.927282    0.860812    0.000000
siesta:     62   -6.426022   -4.086453    0.000000
siesta:     63   -0.593513    5.590300    0.000000
siesta:     64   -2.853900   -7.189766    0.000000
siesta:     65    0.195178    0.302947    0.000000
siesta:     66   -0.994288   -2.050712    0.000000
siesta:     67   -0.484499   -1.446409    0.000000
siesta:     68   -5.960361 -557.945756    0.000000
siesta:     69   22.069977    7.704693    0.000000
siesta:     70   15.939817 -551.396353    0.000000
siesta:     71   -9.852224  121.184715    0.000000
siesta:     72    2.483762 -406.568583    0.000000
siesta: ----------------------------------------
siesta:    Tot   -0.012677    0.205826    0.000000

siesta: Stress tensor (static) (eV/Ang**3):
siesta:    -0.454700   -0.007513    0.000000
siesta:    -0.007513   -1.561133    0.000000
siesta:     0.000000    0.000000   -0.000416

siesta: Cell volume =       1893.226884 Ang**3

siesta: Pressure (static):
siesta:                Solid            Molecule  Units
siesta:           0.00731984          0.10316754  Ry/Bohr**3
siesta:           0.67208290          9.47249251  eV/Ang**3
siesta:        1076.80716093      15176.77021404  kBar
(Free)E+ p_basis*V_orbitals  =       -9095.754687
(Free)Eharris+ p_basis*V_orbitals  =       -9095.740786

siesta: Electric dipole (a.u.)  =    0.000000    0.000000    0.000000
siesta: Electric dipole (Debye) =    0.000000    0.000000    0.000000

* Maximum dynamic memory allocated : Node    0 =   251 MB
* Maximum dynamic memory allocated : Node    1 =    87 MB
* Maximum dynamic memory allocated : Node    2 =    91 MB
* Maximum dynamic memory allocated : Node    3 =   238 MB
* Maximum dynamic memory allocated : Node    4 =   227 MB
* Maximum dynamic memory allocated : Node    5 =    83 MB
* Maximum dynamic memory allocated : Node    6 =    85 MB
* Maximum dynamic memory allocated : Node    7 =   208 MB

* Maximum memory occured during matrixMtoO                    

timer: CPU execution times:
timer:  Routine       Calls   Time/call    Tot.time        %
timer:  siesta            1  215151.684  215151.684   100.00
timer:  Setup             1       3.889       3.889     0.00
timer:  bands             3     269.086     807.258     0.38
timer:  writewave         1       0.044       0.044     0.00
timer:  KSV_init          1       0.005       0.005     0.00
timer:  IterMD            1  214334.835  214334.835    99.62
timer:  hsparse           1       0.395       0.395     0.00
timer:  overlap           1       7.798       7.798     0.00
timer:  IterSCF          49    4369.099  214085.843    99.50
timer:  kinefsm           2       4.044       8.087     0.00
timer:  nlefsm            2      21.769      43.539     0.02
timer:  DHSCF            50     131.349    6567.458     3.05
timer:  DHSCF1            1       0.992       0.992     0.00
timer:  DHSCF2            1      46.299      46.299     0.02
timer:  REORD           402       0.010       4.021     0.00
timer:  POISON           51       2.227     113.593     0.05
timer:  DHSCF3           50     129.456    6472.812     3.01
timer:  rhoofd           50      26.655    1332.766     0.62
timer:  cellXC           50       3.477     173.874     0.08
timer:  vmat             50      63.780    3189.014     1.48
timer:  MolMec            2       0.000       0.000     0.00
timer:  diagon           49    4236.122  207569.982    96.48
timer:  c-eigval      11440       6.670   76307.959    35.47
timer:  c-buildHS     11440       0.123    1401.936     0.65
timer:  cdiag         22759       6.875  156467.274    72.72
timer:  cdiag1        22759       0.427    9710.670     4.51
timer:  cdiag2        22759       1.906   43367.684    20.16
timer:  cdiag3        22759       3.939   89642.509    41.66
timer:  cdiag4        22759       0.224    5087.203     2.36
timer:  c-eigvec      11319       7.275   82347.598    38.27
timer:  c-buildD      11319       4.387   49658.294    23.08
timer:  DHSCF4            1      44.695      44.695     0.02
timer:  dfscf             1      41.998      41.998     0.02
timer:  overfsm           1       0.482       0.482     0.00
timer:  optical           1       5.012       5.012     0.00
  

elaps: ELAPSED times:
elaps:  Routine       Calls   Time/call    Tot.time        %
elaps:  siesta            1   26925.491   26925.491   100.00
elaps:  Setup             1       0.502       0.502     0.00
elaps:  bands             3      33.688     101.064     0.38
elaps:  writewave         1       0.006       0.006     0.00
elaps:  KSV_init          1       0.001       0.001     0.00
elaps:  IterMD            1   26823.264   26823.264    99.62
elaps:  hsparse           1       0.052       0.052     0.00
elaps:  overlap           1       0.986       0.986     0.00
elaps:  IterSCF          49     546.781   26792.252    99.51
elaps:  kinefsm           2       0.507       1.015     0.00
elaps:  nlefsm            2       2.861       5.723     0.02
elaps:  DHSCF            50      16.555     827.757     3.07
elaps:  DHSCF1            1       0.128       0.128     0.00
elaps:  DHSCF2            1       5.787       5.787     0.02
elaps:  REORD           402       0.001       0.528     0.00
elaps:  POISON           51       0.279      14.224     0.05
elaps:  DHSCF3           50      16.195     809.761     3.01
elaps:  rhoofd           50       7.449     372.463     1.38
elaps:  cellXC           50       0.434      21.722     0.08
elaps:  vmat             50       7.979     398.940     1.48
elaps:  MolMec            2       0.000       0.000     0.00
elaps:  diagon           49     530.153   25977.503    96.48
elaps:  c-eigval      11440       0.835    9547.517    35.46
elaps:  c-buildHS     11440       0.017     192.693     0.72
elaps:  cdiag         22759       0.848   19300.465    71.68
elaps:  cdiag1        22759       0.053    1201.596     4.46
elaps:  cdiag2        22759       0.238    5426.356    20.15
elaps:  cdiag3        22759       0.493   11231.490    41.71
elaps:  cdiag4        22759       0.028     645.972     2.40
elaps:  c-eigvec      11319       0.891   10083.106    37.45
elaps:  c-buildD      11319       0.569    6438.444    23.91
elaps:  DHSCF4            1      11.713      11.713     0.04
elaps:  dfscf             1      11.176      11.176     0.04
elaps:  overfsm           1       0.060       0.060     0.00
elaps:  optical           1       0.001       0.001     0.00
  
>> End of run:  25-APR-2016   4:36:50
