Siesta Version:                                        siesta-3.2-pl-3
Architecture  : x86_64-unknown-linux-gnu--unknown
Compiler flags: mpiifort -g -O2 -fPIC -xSSE4.1 -fp-model source -shared-intel 
PARALLEL version

* Running on   12 nodes in parallel
>> Start of run:  14-APR-2016  15:00:58

                           ***********************       
                           *  WELCOME TO SIESTA  *       
                           ***********************       

reinit: Reading from standard input
************************** Dump of input data file ****************************
#(1) General system descriptors
SystemName            GRP_doping    # Descriptive name of the system
SystemLabel           GRP_doping    # Short name for naming files
%include STRUCT.fdf
%include KPT.fdf
%include BASIS.fdf
#%include TS.fdf # for transiesta calculation
#(4) DFT, Grid, SCF
XC.functional         GGA           # LDA or GGA (default = LDA)
XC.authors            PBE           # CA (Ceperley-Aldr) = PZ
                                    #    (Perdew-Zunger) - LDA - Default
                                    # PW92 (Perdew-Wang-92) - LDA
                                    # PBE (Perdew-Burke-Ernzerhof) - GGA
MeshCutoff            200.000000    Ry      # Default: 50.0 Ry ~ 0.444 Bohr
                                    #         100.0 Ry ~ 0.314 Bohr
MaxSCFIterations      500           # Default: 50
DM.MixingWeight       0.05          # Default: 0.25
DM.NumberPulay        10            # Default: 0
DM.PulayOnFile        F             # SystemLabel.P1, SystemLabel.P2
DM.Tolerance          1.d-4         # Default: 1.d-4
DM.UseSaveDM          .true.        # because of the bug
SCFMustConverge       .true.
NeglNonOverlapInt     F             # Default: F
#(5) Eigenvalue problem: order-N or diagonalization
SolutionMethod        Diagon        # or Transiesta
ElectronicTemperature 300.0 K       # Default: 300.0 K
#(6) Molecular dynamics and relaxations
#MD.TypeOfRun          CG            # Type of dynamics:
#MD.VariableCell       F
#MD.NumCGsteps         0           # 0 for single-point / 100 for gopt
#MD.MaxCGDispl         0.2 Bohr      # Default: 0.2 Bohr
#MD.MaxForceTol        0.02 eV/Ang   # Default: 0.04 eV/Ang
#MD.MaxStressTol       1.0 GPa       # Default: 1.0 GPa
# Geometry Constraints
#%block GeometryConstraints
#	position from 1 to 44
#%endblock GeometryConstraints
BandLinesScale   pi/a
%block BandLines
 1   0.00000000  0.00000000  0.00000000
50   0.00000000  0.07809418  0.00000000
50   0.04509075  0.07809242  0.00000000
20   0.00000000  0.00000000  0.00000000
%endblock BandLines
************************** End of input data file *****************************

reinit: -----------------------------------------------------------------------
reinit: System Name: GRP_doping
reinit: -----------------------------------------------------------------------
reinit: System Label: GRP_doping                                                  
reinit: -----------------------------------------------------------------------

initatom: Reading input for the pseudopotentials and atomic orbitals ----------
 Species number:            1  Label: N Atomic number:           7
 Species number:            2  Label: C Atomic number:           6
Ground state valence configuration:   2s02  2p03
Reading pseudopotential information in formatted form from N.psf

Valence configuration for pseudopotential generation:
2s( 2.00) rc: 1.48
2p( 3.00) rc: 1.48
3d( 0.00) rc: 1.48
4f( 0.00) rc: 1.48
Ground state valence configuration:   2s02  2p02
Reading pseudopotential information in formatted form from C.psf

Valence configuration for pseudopotential generation:
2s( 2.00) rc: 1.54
2p( 2.00) rc: 1.54
3d( 0.00) rc: 1.54
4f( 0.00) rc: 1.54
For N, standard SIESTA heuristics set lmxkb to 3
 (one more than the basis l, including polarization orbitals).
Use PS.lmax or PS.KBprojectors blocks to override.
For C, standard SIESTA heuristics set lmxkb to 3
 (one more than the basis l, including polarization orbitals).
Use PS.lmax or PS.KBprojectors blocks to override.

<basis_specs>
===============================================================================
N                    Z=   7    Mass=  14.010        Charge= 0.17977+309
Lmxo=1 Lmxkb= 3    BasisType=split      Semic=F
L=0  Nsemic=0  Cnfigmx=2
          n=1  nzeta=2  polorb=0
            splnorm:   0.15000    
               vcte:    0.0000    
               rinn:    0.0000    
                rcs:    0.0000      0.0000    
            lambdas:    1.0000      1.0000    
L=1  Nsemic=0  Cnfigmx=2
          n=1  nzeta=2  polorb=1
            splnorm:   0.15000    
               vcte:    0.0000    
               rinn:    0.0000    
                rcs:    0.0000      0.0000    
            lambdas:    1.0000      1.0000    
-------------------------------------------------------------------------------
L=0  Nkbl=1  erefs: 0.17977+309
L=1  Nkbl=1  erefs: 0.17977+309
L=2  Nkbl=1  erefs: 0.17977+309
L=3  Nkbl=1  erefs: 0.17977+309
===============================================================================
</basis_specs>

atom: Called for N                     (Z =   7)

read_vps: Pseudopotential generation method:
read_vps: ATM3      Troullier-Martins                       
Total valence charge:    5.00000

read_vps: Pseudopotential includes a core correction:
read_vps: Pseudo-core for xc-correction

xc_check: Exchange-correlation functional:
xc_check: GGA Perdew, Burke & Ernzerhof 1996
V l=0 = -2*Zval/r beyond r=  1.4606
V l=1 = -2*Zval/r beyond r=  1.4606
V l=2 = -2*Zval/r beyond r=  1.4606
V l=3 = -2*Zval/r beyond r=  1.4606
All V_l potentials equal beyond r=  1.4606
This should be close to max(r_c) in ps generation
All pots = -2*Zval/r beyond r=  1.4606

VLOCAL1: 99.0% of the norm of Vloc inside     20.347 Ry
VLOCAL1: 99.9% of the norm of Vloc inside     46.372 Ry
atom: Maximum radius for 4*pi*r*r*local-pseudopot. charge    1.76189
atom: Maximum radius for r*vlocal+2*Zval:    1.53550
GHOST: No ghost state for L =  0
GHOST: No ghost state for L =  1
GHOST: No ghost state for L =  2
GHOST: No ghost state for L =  3

KBgen: Kleinman-Bylander projectors: 
   l= 0   rc=  1.634559   el= -1.363963   Ekb=  5.296955   kbcos=  0.335621
   l= 1   rc=  1.614250   el= -0.521451   Ekb= -5.259161   kbcos= -0.433408
   l= 2   rc=  1.718383   el=  0.001991   Ekb= -1.271464   kbcos= -0.007566
   l= 3   rc=  1.761893   el=  0.003093   Ekb= -0.494769   kbcos= -0.001015

KBgen: Total number of  Kleinman-Bylander projectors:   16
atom: -------------------------------------------------------------------------

atom: SANKEY-TYPE ORBITALS:
atom: Selected multiple-zeta basis: split     

SPLIT: Orbitals with angular momentum L= 0

SPLIT: Basis orbitals for state 2s

SPLIT: PAO cut-off radius determined from an
SPLIT: energy shift=  0.007350 Ry

   izeta = 1
                 lambda =    1.000000
                     rc =    4.071465
                 energy =   -1.356470
                kinetic =    1.176977
    potential(screened) =   -2.533447
       potential(ionic) =   -8.057990

   izeta = 2
                 rmatch =    2.905100
              splitnorm =    0.150000
                 energy =   -1.158343
                kinetic =    1.813009
    potential(screened) =   -2.971352
       potential(ionic) =   -8.901931

SPLIT: Orbitals with angular momentum L= 1

SPLIT: Basis orbitals for state 2p

SPLIT: PAO cut-off radius determined from an
SPLIT: energy shift=  0.007350 Ry

   izeta = 1
                 lambda =    1.000000
                     rc =    4.972977
                 energy =   -0.513884
                kinetic =    3.441732
    potential(screened) =   -3.955616
       potential(ionic) =   -9.287901

   izeta = 2
                 rmatch =    3.054066
              splitnorm =    0.150000
                 energy =   -0.318226
                kinetic =    5.125348
    potential(screened) =   -5.443573
       potential(ionic) =  -11.380999

POLgen: Perturbative polarization orbital with L=  2

POLgen: Polarization orbital for state 2p

   izeta = 1
                     rc =    4.972977
                 energy =    1.607437
                kinetic =    3.268125
    potential(screened) =   -1.660688
       potential(ionic) =   -5.973652
atom: Total number of Sankey-type orbitals: 13

atm_pop: Valence configuration (for local Pseudopot. screening):
 2s( 2.00)                                                            
 2p( 3.00)                                                            
Vna: chval, zval:    5.00000   5.00000

Vna:  Cut-off radius for the neutral-atom potential:   4.972977
comcore: Pseudo-core radius Rcore=  1.554824

atom: _________________________________________________________________________

<basis_specs>
===============================================================================
C                    Z=   6    Mass=  12.010        Charge= 0.17977+309
Lmxo=1 Lmxkb= 3    BasisType=split      Semic=F
L=0  Nsemic=0  Cnfigmx=2
          n=1  nzeta=2  polorb=0
            splnorm:   0.15000    
               vcte:    0.0000    
               rinn:    0.0000    
                rcs:    0.0000      0.0000    
            lambdas:    1.0000      1.0000    
L=1  Nsemic=0  Cnfigmx=2
          n=1  nzeta=2  polorb=1
            splnorm:   0.15000    
               vcte:    0.0000    
               rinn:    0.0000    
                rcs:    0.0000      0.0000    
            lambdas:    1.0000      1.0000    
-------------------------------------------------------------------------------
L=0  Nkbl=1  erefs: 0.17977+309
L=1  Nkbl=1  erefs: 0.17977+309
L=2  Nkbl=1  erefs: 0.17977+309
L=3  Nkbl=1  erefs: 0.17977+309
===============================================================================
</basis_specs>

atom: Called for C                     (Z =   6)

read_vps: Pseudopotential generation method:
read_vps: ATM3      Troullier-Martins                       
Total valence charge:    4.00000

read_vps: Pseudopotential includes a core correction:
read_vps: Pseudo-core for xc-correction

xc_check: Exchange-correlation functional:
xc_check: GGA Perdew, Burke & Ernzerhof 1996
V l=0 = -2*Zval/r beyond r=  1.5227
V l=1 = -2*Zval/r beyond r=  1.5227
V l=2 = -2*Zval/r beyond r=  1.5227
V l=3 = -2*Zval/r beyond r=  1.5038
All V_l potentials equal beyond r=  1.5227
This should be close to max(r_c) in ps generation
All pots = -2*Zval/r beyond r=  1.5227

VLOCAL1: 99.0% of the norm of Vloc inside     18.722 Ry
VLOCAL1: 99.9% of the norm of Vloc inside     42.668 Ry
atom: Maximum radius for 4*pi*r*r*local-pseudopot. charge    1.83678
atom: Maximum radius for r*vlocal+2*Zval:    1.58088
GHOST: No ghost state for L =  0
GHOST: No ghost state for L =  1
GHOST: No ghost state for L =  2
GHOST: No ghost state for L =  3

KBgen: Kleinman-Bylander projectors: 
   l= 0   rc=  1.704034   el= -1.009801   Ekb=  5.335044   kbcos=  0.316824
   l= 1   rc=  1.704034   el= -0.388707   Ekb= -3.785862   kbcos= -0.366464
   l= 2   rc=  1.791422   el=  0.001971   Ekb= -0.970471   kbcos= -0.009212
   l= 3   rc=  1.859892   el=  0.003065   Ekb= -0.399525   kbcos= -0.001223

KBgen: Total number of  Kleinman-Bylander projectors:   16
atom: -------------------------------------------------------------------------

atom: SANKEY-TYPE ORBITALS:
atom: Selected multiple-zeta basis: split     

SPLIT: Orbitals with angular momentum L= 0

SPLIT: Basis orbitals for state 2s

SPLIT: PAO cut-off radius determined from an
SPLIT: energy shift=  0.007350 Ry

   izeta = 1
                 lambda =    1.000000
                     rc =    4.632753
                 energy =   -1.002270
                kinetic =    0.855760
    potential(screened) =   -1.858031
       potential(ionic) =   -5.417575

   izeta = 2
                 rmatch =    3.431921
              splitnorm =    0.150000
                 energy =   -0.867111
                kinetic =    1.300804
    potential(screened) =   -2.167915
       potential(ionic) =   -5.962684

SPLIT: Orbitals with angular momentum L= 1

SPLIT: Basis orbitals for state 2p

SPLIT: PAO cut-off radius determined from an
SPLIT: energy shift=  0.007350 Ry

   izeta = 1
                 lambda =    1.000000
                     rc =    5.658549
                 energy =   -0.381140
                kinetic =    2.399701
    potential(screened) =   -2.780841
       potential(ionic) =   -6.206085

   izeta = 2
                 rmatch =    3.653288
              splitnorm =    0.150000
                 energy =   -0.249149
                kinetic =    3.542762
    potential(screened) =   -3.791911
       potential(ionic) =   -7.581078

POLgen: Perturbative polarization orbital with L=  2

POLgen: Polarization orbital for state 2p

   izeta = 1
                     rc =    5.658549
                 energy =    1.109913
                kinetic =    2.304789
    potential(screened) =   -1.194876
       potential(ionic) =   -4.013592
atom: Total number of Sankey-type orbitals: 13

atm_pop: Valence configuration (for local Pseudopot. screening):
 2s( 2.00)                                                            
 2p( 2.00)                                                            
Vna: chval, zval:    4.00000   4.00000

Vna:  Cut-off radius for the neutral-atom potential:   5.658549
comcore: Pseudo-core radius Rcore=  1.791422

atom: _________________________________________________________________________

prinput: Basis input ----------------------------------------------------------

PAO.BasisType split     

%block ChemicalSpeciesLabel
    1    7 N                       # Species index, atomic number, species label
    2    6 C                       # Species index, atomic number, species label
%endblock ChemicalSpeciesLabel

%block PAO.Basis                 # Define Basis set
N                     2                    # Species label, number of l-shells
 n=2   0   2                         # n, l, Nzeta 
   4.071      2.905   
   1.000      1.000   
 n=2   1   2 P   1                   # n, l, Nzeta, Polarization, NzetaPol
   4.973      3.054   
   1.000      1.000   
C                     2                    # Species label, number of l-shells
 n=2   0   2                         # n, l, Nzeta 
   4.633      3.432   
   1.000      1.000   
 n=2   1   2 P   1                   # n, l, Nzeta, Polarization, NzetaPol
   5.659      3.653   
   1.000      1.000   
%endblock PAO.Basis

prinput: ----------------------------------------------------------------------

coor:   Atomic-coordinates input format  =     Fractional

siesta: Atomic coordinates (Bohr) and species
siesta:     -0.02582   2.59549   0.00000  1        1
siesta:      9.28770  18.72698   0.00000  1        2
siesta:     -4.68258  10.66124   0.00000  1        3
siesta:     -2.35420  25.44831   0.00000  1        4
siesta:     -9.33934  18.72698   0.00000  1        5
siesta:      4.63094  26.79272   0.00000  1        6
siesta:     -0.02582  34.85847   0.00000  1        7
siesta:     -0.02582   5.28395   0.00000  2        8
siesta:     -2.35420  38.89134   0.00000  2        9
siesta:     -2.35420  41.57980   0.00000  2       10
siesta:      2.30256  38.89134   0.00000  2       11
siesta:      2.30256  41.57980   0.00000  2       12
siesta:      4.63094  34.85847   0.00000  2       13
siesta:      4.63094  37.54693   0.00000  2       14
siesta:      6.95932  30.82560   0.00000  2       15
siesta:      6.95932  33.51406   0.00000  2       16
siesta:      9.28770  26.79272   0.00000  2       17
siesta:      9.28770  29.48119   0.00000  2       18
siesta:     -4.68258  34.85847   0.00000  2       19
siesta:     -4.68258  37.54693   0.00000  2       20
siesta:      2.30256   6.62836   0.00000  2       21
siesta:      2.30256   9.31683   0.00000  2       22
siesta:      4.63094  10.66124   0.00000  2       23
siesta:      4.63094  13.34970   0.00000  2       24
siesta:      6.95932  14.69411   0.00000  2       25
siesta:      6.95932  17.38257   0.00000  2       26
siesta:      9.28770  21.41544   0.00000  2       27
siesta:     11.61608  22.75985   0.00000  2       28
siesta:     11.61608  25.44831   0.00000  2       29
siesta:     -2.35420   6.62836   0.00000  2       30
siesta:     -2.35420   9.31683   0.00000  2       31
siesta:     -0.02582  10.66124   0.00000  2       32
siesta:     -0.02582  13.34970   0.00000  2       33
siesta:      2.30256  14.69411   0.00000  2       34
siesta:      2.30256  17.38257   0.00000  2       35
siesta:      4.63094  18.72698   0.00000  2       36
siesta:      4.63094  21.41544   0.00000  2       37
siesta:      6.95932  22.75985   0.00000  2       38
siesta:      6.95932  25.44831   0.00000  2       39
siesta:     -4.68258  13.34970   0.00000  2       40
siesta:     -2.35420  14.69411   0.00000  2       41
siesta:     -2.35420  17.38257   0.00000  2       42
siesta:     -0.02582  18.72698   0.00000  2       43
siesta:     -0.02582  21.41544   0.00000  2       44
siesta:      2.30256  22.75985   0.00000  2       45
siesta:      2.30256  25.44831   0.00000  2       46
siesta:     -7.01096  14.69411   0.00000  2       47
siesta:     -7.01096  17.38257   0.00000  2       48
siesta:     -4.68258  18.72698   0.00000  2       49
siesta:     -4.68258  21.41544   0.00000  2       50
siesta:     -2.35420  22.75985   0.00000  2       51
siesta:     -9.33934  21.41544   0.00000  2       52
siesta:     -7.01096  22.75985   0.00000  2       53
siesta:     -7.01096  25.44831   0.00000  2       54
siesta:    -11.66772  22.75985   0.00000  2       55
siesta:    -11.66772  25.44831   0.00000  2       56
siesta:     -9.33934  26.79272   0.00000  2       57
siesta:     -9.33934  29.48119   0.00000  2       58
siesta:      4.63094  29.48119   0.00000  2       59
siesta:     -0.02582  26.79272   0.00000  2       60
siesta:     -0.02582  29.48119   0.00000  2       61
siesta:     -4.68258  26.79272   0.00000  2       62
siesta:     -4.68258  29.48119   0.00000  2       63
siesta:      2.30256  30.82560   0.00000  2       64
siesta:      2.30256  33.51406   0.00000  2       65
siesta:     -2.35420  30.82560   0.00000  2       66
siesta:     -2.35420  33.51406   0.00000  2       67
siesta:     -7.01096  30.82560   0.00000  2       68
siesta:     -7.01096  33.51406   0.00000  2       69
siesta:     -0.02582  37.54693   0.00000  2       70
siesta:     -0.02582  42.92421   0.00000  2       71
siesta:     -0.02582  45.61267   0.00000  2       72

siesta: System type = slab      

initatomlists: Number of atoms, orbitals, and projectors:     72   936  1152

siesta: ******************** Simulation parameters ****************************
siesta:
siesta: The following are some of the parameters of the simulation.
siesta: A complete list of the parameters used, including default values,
siesta: can be found in file out.fdf
siesta:
redata: Non-Collinear-spin run           =     F
redata: SpinPolarized (Up/Down) run      =     F
redata: Number of spin components        =     1
redata: Long output                      =     F
redata: Number of Atomic Species         =        2
redata: Charge density info will appear in .RHO file
redata: Write Mulliken Pop.              =     NO
redata: Mesh Cutoff                      =   200.0000  Ry
redata: Net charge of the system         =     0.0000 |e|
redata: Max. number of SCF Iter          =      500
redata: SCF convergence failure will abort job
redata: Performing Pulay mixing using    =    10 iterations
redata: Mix DM in first SCF step ?       =     F
redata: Write Pulay info on disk?        =     F
redata: Discard 1st Pulay DM after  kick =     F
redata: New DM Mixing Weight             =     0.0500
redata: New DM Occupancy tolerance       = 0.000000000001
redata: No kicks to SCF
redata: DM Mixing Weight for Kicks       =     0.5000
redata: DM Tolerance for SCF             =     0.000100
redata: Require Energy convergence for SCF =     F
redata: DM Energy tolerance for SCF      =     0.000100 eV
redata: Require Harris convergence for SCF =     F
redata: DM Harris energy tolerance for SCF =     0.000100 eV
redata: Using Saved Data (generic)   =     F
redata: Use continuation files for DM    =     T
redata: Neglect nonoverlap interactions  =     F
redata: Method of Calculation            =     Diagonalization
redata: Divide and Conquer               =     T
redata: Electronic Temperature           =     0.0019  Ry
redata: Fix the spin of the system       =     F
redata: Dynamics option                  =     Verlet MD run
redata: Initial MD time step             =        1
redata:   Final MD time step             =        1
redata: Length of MD time step           =     1.0000  fs
redata: Initial Temperature of MD run    =     0.0000  K
redata: Perform a MD quench              =     F
redata: ***********************************************************************
Total number of electrons:   295.000000
Total ionic charge:   295.000000

* ProcessorY, Blocksize:    3  24

k-point displ. along   1 input, could be:     0.50    0.00
k-point displ. along   2 input, could be:     0.50    0.00
 Kpoints in:          231 . Kpoints trimmed:          231

siesta: k-grid: Number of k-points =   231
siesta: k-grid: Cutoff (effective) =     5.000 Ang
siesta: k-grid: Supercell and displacements
siesta: k-grid:   21   0   0      0.500
siesta: k-grid:    0  21   0      0.500
siesta: k-grid:    0   0   1      0.000
Naive supercell factors:     2    2    2

superc: Internal auxiliary supercell:     2 x     2 x     2  =       8
superc: Number of atoms, orbitals, and projectors:    576   7488   9216

* Maximum dynamic memory allocated =     4 MB

siesta:                 ==============================
                            Begin MD step =      1
                        ==============================

superc: Internal auxiliary supercell:     2 x     2 x     2  =       8
superc: Number of atoms, orbitals, and projectors:    576   7488   9216

outcell: Unit cell vectors (Ang):
       12.804619    7.392750    0.000000
        0.000000   14.785500    0.000000
        0.000000    0.000000   10.000000

outcell: Cell vector modules (Ang)   :   14.785500   14.785500   10.000000
outcell: Cell angles (23,13,12) (deg):     90.0000     90.0000     60.0000
outcell: Cell volume (Ang**3)        :   1893.2269
New_DM. Step:     1
Initializing Density Matrix...

iodm: Reading Density Matrix from files

InitMesh: MESH =   120 x   120 x    90 =     1296000
InitMesh: Mesh cutoff (required, used) =   200.000   223.865 Ry

* Maximum dynamic memory allocated =   138 MB

stepf: Fermi-Dirac step function

siesta: Program's energy decomposition (eV):
siesta: Ebs     =     -4783.937389
siesta: Eions   =     19528.238980
siesta: Ena     =      4791.702517
siesta: Ekin    =      9996.077250
siesta: Enl     =     -1277.750431
siesta: DEna    =      -776.088164
siesta: DUscf   =       102.195832
siesta: DUext   =         0.000000
siesta: Exc     =     -4515.925381
siesta: eta*DQ  =         0.000000
siesta: Emadel  =         0.000000
siesta: Emeta   =         0.000000
siesta: Emolmec =         0.000000
siesta: Ekinion =         0.000000
siesta: Eharris =    -11208.029619
siesta: Etot    =    -11208.027357
siesta: FreeEng =    -11208.027357

siesta: iscf   Eharris(eV)      E_KS(eV)   FreeEng(eV)   dDmax  Ef(eV)
siesta:    1   -11208.0296   -11208.0274   -11208.0274  0.0000 -4.2446
timer: Routine,Calls,Time,% = IterSCF        1    3011.601  99.59
elaps: Routine,Calls,Wall,% = IterSCF        1     251.571  99.59

siesta: E_KS(eV) =           -11208.0296

siesta: E_KS - E_eggbox =    -11208.0296

siesta: Atomic forces (eV/Ang):
----------------------------------------
   Tot   -0.423253    0.045734    0.000000
----------------------------------------
   Max  676.862018
   Res  168.652447    sqrt( Sum f_i^2 / 3N )
----------------------------------------
   Max  676.862018    constrained

Stress-tensor-Voigt (kbar):     -687.12    -2942.40       -0.16       -0.89        0.00        0.00
(Free)E + p*V (eV/cell)    -9778.4250
Target enthalpy (eV/cell)   -11208.0892

siesta: Stress tensor (static) (eV/Ang**3):
        -0.428860   -0.000558    0.000000
        -0.000558   -1.836479    0.000000
         0.000000    0.000000   -0.000101

siesta: Pressure (static):       1209.89168655  kBar

siesta: Stress tensor (total) (eV/Ang**3):
        -0.428860   -0.000558    0.000000
        -0.000558   -1.836479    0.000000
         0.000000    0.000000   -0.000101

siesta: Pressure (total):       1209.89168655  kBar

siesta: Temp_ion =       0.000 K

* Maximum dynamic memory allocated =   148 MB
Computing bands...

siesta: Program's energy decomposition (eV):
siesta: Ebs     =     -4783.937389
siesta: Eions   =     19528.238980
siesta: Ena     =      4791.702517
siesta: Ekin    =      9996.071193
siesta: Enl     =     -1277.747558
siesta: DEna    =      -776.088533
siesta: DUscf   =       102.196683
siesta: DUext   =         0.000000
siesta: Exc     =     -4515.924941
siesta: eta*DQ  =         0.000000
siesta: Emadel  =         0.000000
siesta: Emeta   =         0.000000
siesta: Emolmec =         0.000000
siesta: Ekinion =         0.000000
siesta: Eharris =    -11208.029619
siesta: Etot    =    -11208.029619
siesta: FreeEng =    -11208.089245

siesta: Final energy (eV):
siesta:  Band Struct. =   -4783.937389
siesta:       Kinetic =    9996.071193
siesta:       Hartree =   32476.087934
siesta:    Ext. field =       0.000000
siesta:   Exch.-corr. =   -4515.924941
siesta:  Ion-electron =  -74606.166977
siesta:       Ion-ion =   25441.903173
siesta:       Ekinion =       0.000000
siesta:         Total =  -11208.029619

siesta: Atomic forces (eV/Ang):
siesta:      1    1.182122  649.180275    0.000000
siesta:      2   -1.689924    0.697516    0.000000
siesta:      3  -39.126768  653.278149    0.000000
siesta:      4   -1.415825   -1.217866    0.000000
siesta:      5    1.600875    0.742407    0.000000
siesta:      6   -0.171090    0.031489    0.000000
siesta:      7   -0.197150  122.214249    0.000000
siesta:      8   -0.200208 -117.239055    0.000000
siesta:      9    3.235463  130.136713    0.000000
siesta:     10  -21.342495 -550.970736    0.000000
siesta:     11   -0.904314  128.631233    0.000000
siesta:     12   17.946623 -548.526773    0.000000
siesta:     13   27.386407    6.564464    0.000000
siesta:     14   34.406615 -549.058095    0.000000
siesta:     15    1.331310   -0.151714    0.000000
siesta:     16   -2.828600    1.828044    0.000000
siesta:     17    1.270731    2.463549    0.000000
siesta:     18   -1.235531   -0.018841    0.000000
siesta:     19  -26.604955    6.543305    0.000000
siesta:     20  -31.309895 -651.941272    0.000000
siesta:     21    4.980143  548.010143    0.000000
siesta:     22   -0.597050 -125.804250    0.000000
siesta:     23   33.682971  548.812312    0.000000
siesta:     24   26.513081   -6.231064    0.000000
siesta:     25   -2.241451   -1.681078    0.000000
siesta:     26    2.343546    1.788151    0.000000
siesta:     27    1.208307   -4.244845    0.000000
siesta:     28   -0.358833    6.995349    0.000000
siesta:     29   -0.120026   -7.967125    0.000000
siesta:     30   -5.366093  547.838780    0.000000
siesta:     31    6.095349 -130.745146    0.000000
siesta:     32   -2.976686  549.247864    0.000000
siesta:     33   -1.010554 -127.980592    0.000000
siesta:     34   21.748534  558.156815    0.000000
siesta:     35   22.437527   -6.776294    0.000000
siesta:     36   -0.930790    2.346132    0.000000
siesta:     37    0.267927   -0.147696    0.000000
siesta:     38   -0.643772    1.337349    0.000000
siesta:     39   -0.398067   -0.845292    0.000000
siesta:     40  -24.464073   -4.947136    0.000000
siesta:     41  -16.145885  561.112097    0.000000
siesta:     42  -23.202397   -6.015323    0.000000
siesta:     43   -0.983704  561.415461    0.000000
siesta:     44   -1.179003    1.381294    0.000000
siesta:     45    0.879283    1.044576    0.000000
siesta:     46    1.120953   -0.299139    0.000000
siesta:     47    2.425364   -2.007122    0.000000
siesta:     48   -2.208569    1.477406    0.000000
siesta:     49    1.242953    2.716052    0.000000
siesta:     50   -1.061660   -0.075791    0.000000
siesta:     51    1.153796    1.127161    0.000000
siesta:     52   -1.319744   -4.365316    0.000000
siesta:     53    0.534534    1.013565    0.000000
siesta:     54    0.302673   -1.129461    0.000000
siesta:     55    0.298439    7.058688    0.000000
siesta:     56    0.121147   -8.001472    0.000000
siesta:     57   -1.793063    2.482928    0.000000
siesta:     58    1.390315   -0.143115    0.000000
siesta:     59   -1.160577   -3.845774    0.000000
siesta:     60    0.151685    0.372895    0.000000
siesta:     61   -1.226825 -676.862018    0.000000
siesta:     62    0.650672    0.027941    0.000000
siesta:     63    1.627082   -4.014267    0.000000
siesta:     64   24.897509    5.561628    0.000000
siesta:     65   17.976149 -560.522171    0.000000
siesta:     66  -24.871552    6.478845    0.000000
siesta:     67  -18.070128 -562.014881    0.000000
siesta:     68   -1.774284    0.512460    0.000000
siesta:     69    2.669411    1.610988    0.000000
siesta:     70   -3.799488 -538.580168    0.000000
siesta:     71   -1.672878  130.127768    0.000000
siesta:     72    1.101159 -547.949421    0.000000
siesta: ----------------------------------------
siesta:    Tot   -0.423253    0.045734    0.000000

siesta: Stress tensor (static) (eV/Ang**3):
siesta:    -0.428860   -0.000558    0.000000
siesta:    -0.000558   -1.836479    0.000000
siesta:     0.000000    0.000000   -0.000101

siesta: Cell volume =       1893.226884 Ang**3

siesta: Pressure (static):
siesta:                Solid            Molecule  Units
siesta:           0.00822451          0.13191070  Ry/Bohr**3
siesta:           0.75514683         12.11159170  eV/Ang**3
siesta:        1209.89168655      19405.11896222  kBar
(Free)E+ p_basis*V_orbitals  =      -11178.352371
(Free)Eharris+ p_basis*V_orbitals  =      -11178.354633

siesta: Electric dipole (a.u.)  =    0.000000    0.000000    0.000000
siesta: Electric dipole (Debye) =    0.000000    0.000000    0.000000

* Maximum dynamic memory allocated : Node    0 =   148 MB
* Maximum dynamic memory allocated : Node    1 =    57 MB
* Maximum dynamic memory allocated : Node    2 =    57 MB
* Maximum dynamic memory allocated : Node    3 =   134 MB
* Maximum dynamic memory allocated : Node    4 =   146 MB
* Maximum dynamic memory allocated : Node    5 =    51 MB
* Maximum dynamic memory allocated : Node    6 =    53 MB
* Maximum dynamic memory allocated : Node    7 =   138 MB
* Maximum dynamic memory allocated : Node    8 =   130 MB
* Maximum dynamic memory allocated : Node    9 =    51 MB
* Maximum dynamic memory allocated : Node   10 =    53 MB
* Maximum dynamic memory allocated : Node   11 =   125 MB

* Maximum memory occured during matrixMtoO                    

timer: CPU execution times:
timer:  Routine       Calls   Time/call    Tot.time        %
timer:  siesta            1    3829.224    3829.224   100.00
timer:  Setup             1       3.344       3.344     0.09
timer:  bands             3     226.530     679.590    17.75
timer:  writewave         1       0.023       0.023     0.00
timer:  KSV_init          1       0.005       0.005     0.00
timer:  IterMD            1    3139.300    3139.300    81.98
timer:  hsparse           1       0.166       0.166     0.00
timer:  overlap           1       5.737       5.737     0.15
timer:  IterSCF           1    3011.601    3011.601    78.65
timer:  kinefsm           2       2.915       5.829     0.15
timer:  nlefsm            2      18.848      37.695     0.98
timer:  DHSCF             2      86.672     173.344     4.53
timer:  DHSCF1            1       0.902       0.902     0.02
timer:  DHSCF2            1      25.170      25.170     0.66
timer:  REORD            18       0.003       0.059     0.00
timer:  POISON            3       0.474       1.422     0.04
timer:  DHSCF3            2      62.602     125.205     3.27
timer:  rhoofd            2      13.125      26.250     0.69
timer:  cellXC            2       2.431       4.861     0.13
timer:  vmat              2      29.287      58.574     1.53
timer:  MolMec            2       0.000       0.000     0.00
timer:  diagon            1    2883.707    2883.707    75.31
timer:  c-eigval        352       5.593    1968.697    51.41
timer:  c-buildHS       352       0.032      11.302     0.30
timer:  cdiag           583       5.703    3325.001    86.83
timer:  cdiag1          583       0.301     175.267     4.58
timer:  cdiag2          583       1.704     993.531    25.95
timer:  cdiag3          583       3.479    2027.992    52.96
timer:  cdiag4          583       0.109      63.518     1.66
timer:  c-eigvec        231       5.949    1374.128    35.89
timer:  c-buildD        231       0.949     219.259     5.73
timer:  DHSCF4            1      22.018      22.018     0.57
timer:  dfscf             1      20.572      20.572     0.54
timer:  overfsm           1       0.286       0.286     0.01
timer:  optical           1       6.375       6.375     0.17
  

elaps: ELAPSED times:
elaps:  Routine       Calls   Time/call    Tot.time        %
elaps:  siesta            1     319.870     319.870   100.00
elaps:  Setup             1       0.279       0.279     0.09
elaps:  bands             3      18.938      56.815    17.76
elaps:  writewave         1       0.002       0.002     0.00
elaps:  KSV_init          1       0.000       0.000     0.00
elaps:  IterMD            1     262.238     262.238    81.98
elaps:  hsparse           1       0.016       0.016     0.00
elaps:  overlap           1       0.711       0.711     0.22
elaps:  IterSCF           1     251.571     251.571    78.65
elaps:  kinefsm           2       0.363       0.726     0.23
elaps:  nlefsm            2       1.662       3.323     1.04
elaps:  DHSCF             2       8.149      16.297     5.09
elaps:  DHSCF1            1       0.077       0.077     0.02
elaps:  DHSCF2            1       2.101       2.101     0.66
elaps:  REORD            18       0.000       0.006     0.00
elaps:  POISON            3       0.040       0.119     0.04
elaps:  DHSCF3            2       5.229      10.458     3.27
elaps:  rhoofd            2       2.326       4.652     1.45
elaps:  cellXC            2       0.203       0.406     0.13
elaps:  vmat              2       2.446       4.892     1.53
elaps:  MolMec            2       0.000       0.000     0.00
elaps:  diagon            1     240.896     240.896    75.31
elaps:  c-eigval        352       0.467     164.454    51.41
elaps:  c-buildHS       352       0.003       1.208     0.38
elaps:  cdiag           583       0.473     275.566    86.15
elaps:  cdiag1          583       0.025      14.457     4.52
elaps:  cdiag2          583       0.142      83.039    25.96
elaps:  cdiag3          583       0.291     169.762    53.07
elaps:  cdiag4          583       0.009       5.164     1.61
elaps:  c-eigvec        231       0.489     113.022    35.33
elaps:  c-buildD        231       0.087      20.075     6.28
elaps:  DHSCF4            1       3.656       3.656     1.14
elaps:  dfscf             1       3.464       3.464     1.08
elaps:  overfsm           1       0.031       0.031     0.01
elaps:  optical           1       0.000       0.000     0.00
  
>> End of run:  14-APR-2016  15:06:18
