Siesta Version:                                        siesta-3.2-pl-3
Architecture  : x86_64-unknown-linux-gnu--unknown
Compiler flags: mpiifort -g -O2 -fPIC -xSSE4.1 -fp-model source -shared-intel 
PARALLEL version

* Running on   12 nodes in parallel
>> Start of run:   6-APR-2016  14:02:02

                           ***********************       
                           *  WELCOME TO SIESTA  *       
                           ***********************       

reinit: Reading from standard input
************************** Dump of input data file ****************************
#(1) General system descriptors
SystemName            GRP_doping    # Descriptive name of the system
SystemLabel           GRP_doping    # Short name for naming files
%include STRUCT.fdf
%include KPT.fdf
%include BASIS.fdf
#%include TS.fdf # for transiesta calculation
#(4) DFT, Grid, SCF
XC.functional         GGA           # LDA or GGA (default = LDA)
XC.authors            PBE           # CA (Ceperley-Aldr) = PZ
                                    #    (Perdew-Zunger) - LDA - Default
                                    # PW92 (Perdew-Wang-92) - LDA
                                    # PBE (Perdew-Burke-Ernzerhof) - GGA
MeshCutoff            200.000000    Ry      # Default: 50.0 Ry ~ 0.444 Bohr
                                    #         100.0 Ry ~ 0.314 Bohr
MaxSCFIterations      500           # Default: 50
DM.MixingWeight       0.05          # Default: 0.25
DM.NumberPulay        10            # Default: 0
DM.PulayOnFile        F             # SystemLabel.P1, SystemLabel.P2
DM.Tolerance          1.d-4         # Default: 1.d-4
DM.UseSaveDM          .true.        # because of the bug
SCFMustConverge       .true.
NeglNonOverlapInt     F             # Default: F
Diag.ParallelOverK    .true.
#(5) Eigenvalue problem: order-N or diagonalization
SolutionMethod        Diagon        # or Transiesta
ElectronicTemperature 300.0 K       # Default: 300.0 K
#(6) Molecular dynamics and relaxations
#MD.TypeOfRun          CG            # Type of dynamics:
#MD.VariableCell       F
#MD.NumCGsteps         0           # 0 for single-point / 100 for gopt
#MD.MaxCGDispl         0.2 Bohr      # Default: 0.2 Bohr
#MD.MaxForceTol        0.02 eV/Ang   # Default: 0.04 eV/Ang
#MD.MaxStressTol       1.0 GPa       # Default: 1.0 GPa
************************** End of input data file *****************************

reinit: -----------------------------------------------------------------------
reinit: System Name: GRP_doping
reinit: -----------------------------------------------------------------------
reinit: System Label: GRP_doping                                                  
reinit: -----------------------------------------------------------------------

initatom: Reading input for the pseudopotentials and atomic orbitals ----------
 Species number:            1  Label: B Atomic number:           5
 Species number:            2  Label: C Atomic number:           6
Ground state valence configuration:   2s02  2p01
Reading pseudopotential information in formatted form from B.psf

Valence configuration for pseudopotential generation:
2s( 2.00) rc: 1.74
2p( 1.00) rc: 1.74
3d( 0.00) rc: 1.74
4f( 0.00) rc: 1.74
Ground state valence configuration:   2s02  2p02
Reading pseudopotential information in formatted form from C.psf

Valence configuration for pseudopotential generation:
2s( 2.00) rc: 1.54
2p( 2.00) rc: 1.54
3d( 0.00) rc: 1.54
4f( 0.00) rc: 1.54
For B, standard SIESTA heuristics set lmxkb to 3
 (one more than the basis l, including polarization orbitals).
Use PS.lmax or PS.KBprojectors blocks to override.
For C, standard SIESTA heuristics set lmxkb to 3
 (one more than the basis l, including polarization orbitals).
Use PS.lmax or PS.KBprojectors blocks to override.

<basis_specs>
===============================================================================
B                    Z=   5    Mass=  10.810        Charge= 0.17977+309
Lmxo=1 Lmxkb= 3    BasisType=split      Semic=F
L=0  Nsemic=0  Cnfigmx=2
          n=1  nzeta=2  polorb=0
            splnorm:   0.15000    
               vcte:    0.0000    
               rinn:    0.0000    
                rcs:    0.0000      0.0000    
            lambdas:    1.0000      1.0000    
L=1  Nsemic=0  Cnfigmx=2
          n=1  nzeta=2  polorb=1
            splnorm:   0.15000    
               vcte:    0.0000    
               rinn:    0.0000    
                rcs:    0.0000      0.0000    
            lambdas:    1.0000      1.0000    
-------------------------------------------------------------------------------
L=0  Nkbl=1  erefs: 0.17977+309
L=1  Nkbl=1  erefs: 0.17977+309
L=2  Nkbl=1  erefs: 0.17977+309
L=3  Nkbl=1  erefs: 0.17977+309
===============================================================================
</basis_specs>

atom: Called for B                     (Z =   5)

read_vps: Pseudopotential generation method:
read_vps: ATM3      Troullier-Martins                       
Total valence charge:    3.00000

read_vps: Pseudopotential includes a core correction:
read_vps: Pseudo-core for xc-correction

xc_check: Exchange-correlation functional:
xc_check: GGA Perdew, Burke & Ernzerhof 1996
V l=0 = -2*Zval/r beyond r=  1.7165
V l=1 = -2*Zval/r beyond r=  1.7165
V l=2 = -2*Zval/r beyond r=  1.7165
V l=3 = -2*Zval/r beyond r=  1.6951
All V_l potentials equal beyond r=  1.7165
This should be close to max(r_c) in ps generation
All pots = -2*Zval/r beyond r=  1.7165

VLOCAL1: 99.0% of the norm of Vloc inside     14.733 Ry
VLOCAL1: 99.9% of the norm of Vloc inside     33.577 Ry
atom: Maximum radius for 4*pi*r*r*local-pseudopot. charge    2.04484
atom: Maximum radius for r*vlocal+2*Zval:    1.75994
GHOST: No ghost state for L =  0
GHOST: No ghost state for L =  1
GHOST: No ghost state for L =  2
GHOST: No ghost state for L =  3

KBgen: Kleinman-Bylander projectors: 
   l= 0   rc=  1.897051   el= -0.693730   Ekb=  4.595746   kbcos=  0.286105
   l= 1   rc=  1.920920   el= -0.265236   Ekb= -2.350715   kbcos= -0.315747
   l= 2   rc=  2.044840   el=  0.002055   Ekb= -0.690767   kbcos= -0.013822
   l= 3   rc=  2.149707   el=  0.003188   Ekb= -0.315358   kbcos= -0.002055

KBgen: Total number of  Kleinman-Bylander projectors:   16
atom: -------------------------------------------------------------------------

atom: SANKEY-TYPE ORBITALS:
atom: Selected multiple-zeta basis: split     

SPLIT: Orbitals with angular momentum L= 0

SPLIT: Basis orbitals for state 2s

SPLIT: PAO cut-off radius determined from an
SPLIT: energy shift=  0.007350 Ry

   izeta = 1
                 lambda =    1.000000
                     rc =    5.422032
                 energy =   -0.686029
                kinetic =    0.576707
    potential(screened) =   -1.262736
       potential(ionic) =   -3.271094

   izeta = 2
                 rmatch =    4.222573
              splitnorm =    0.150000
                 energy =   -0.602132
                kinetic =    0.858975
    potential(screened) =   -1.461107
       potential(ionic) =   -3.582536

SPLIT: Orbitals with angular momentum L= 1

SPLIT: Basis orbitals for state 2p

SPLIT: PAO cut-off radius determined from an
SPLIT: energy shift=  0.007350 Ry

   izeta = 1
                 lambda =    1.000000
                     rc =    6.790259
                 energy =   -0.258578
                kinetic =    1.481412
    potential(screened) =   -1.739989
       potential(ionic) =   -3.657461

   izeta = 2
                 rmatch =    4.608740
              splitnorm =    0.150000
                 energy =   -0.173757
                kinetic =    2.186690
    potential(screened) =   -2.360447
       potential(ionic) =   -4.464260

POLgen: Perturbative polarization orbital with L=  2

POLgen: Polarization orbital for state 2p

   izeta = 1
                     rc =    6.790259
                 energy =    0.684082
                kinetic =    1.471481
    potential(screened) =   -0.787399
       potential(ionic) =   -2.406985
atom: Total number of Sankey-type orbitals: 13

atm_pop: Valence configuration (for local Pseudopot. screening):
 2s( 2.00)                                                            
 2p( 1.00)                                                            
Vna: chval, zval:    3.00000   3.00000

Vna:  Cut-off radius for the neutral-atom potential:   6.790259
comcore: Pseudo-core radius Rcore=  2.122997

atom: _________________________________________________________________________

<basis_specs>
===============================================================================
C                    Z=   6    Mass=  12.010        Charge= 0.17977+309
Lmxo=1 Lmxkb= 3    BasisType=split      Semic=F
L=0  Nsemic=0  Cnfigmx=2
          n=1  nzeta=2  polorb=0
            splnorm:   0.15000    
               vcte:    0.0000    
               rinn:    0.0000    
                rcs:    0.0000      0.0000    
            lambdas:    1.0000      1.0000    
L=1  Nsemic=0  Cnfigmx=2
          n=1  nzeta=2  polorb=1
            splnorm:   0.15000    
               vcte:    0.0000    
               rinn:    0.0000    
                rcs:    0.0000      0.0000    
            lambdas:    1.0000      1.0000    
-------------------------------------------------------------------------------
L=0  Nkbl=1  erefs: 0.17977+309
L=1  Nkbl=1  erefs: 0.17977+309
L=2  Nkbl=1  erefs: 0.17977+309
L=3  Nkbl=1  erefs: 0.17977+309
===============================================================================
</basis_specs>

atom: Called for C                     (Z =   6)

read_vps: Pseudopotential generation method:
read_vps: ATM3      Troullier-Martins                       
Total valence charge:    4.00000

read_vps: Pseudopotential includes a core correction:
read_vps: Pseudo-core for xc-correction

xc_check: Exchange-correlation functional:
xc_check: GGA Perdew, Burke & Ernzerhof 1996
V l=0 = -2*Zval/r beyond r=  1.5227
V l=1 = -2*Zval/r beyond r=  1.5227
V l=2 = -2*Zval/r beyond r=  1.5227
V l=3 = -2*Zval/r beyond r=  1.5038
All V_l potentials equal beyond r=  1.5227
This should be close to max(r_c) in ps generation
All pots = -2*Zval/r beyond r=  1.5227

VLOCAL1: 99.0% of the norm of Vloc inside     18.722 Ry
VLOCAL1: 99.9% of the norm of Vloc inside     42.668 Ry
atom: Maximum radius for 4*pi*r*r*local-pseudopot. charge    1.83678
atom: Maximum radius for r*vlocal+2*Zval:    1.58088
GHOST: No ghost state for L =  0
GHOST: No ghost state for L =  1
GHOST: No ghost state for L =  2
GHOST: No ghost state for L =  3

KBgen: Kleinman-Bylander projectors: 
   l= 0   rc=  1.704034   el= -1.009801   Ekb=  5.335044   kbcos=  0.316824
   l= 1   rc=  1.704034   el= -0.388707   Ekb= -3.785862   kbcos= -0.366464
   l= 2   rc=  1.791422   el=  0.001971   Ekb= -0.970471   kbcos= -0.009212
   l= 3   rc=  1.859892   el=  0.003065   Ekb= -0.399525   kbcos= -0.001223

KBgen: Total number of  Kleinman-Bylander projectors:   16
atom: -------------------------------------------------------------------------

atom: SANKEY-TYPE ORBITALS:
atom: Selected multiple-zeta basis: split     

SPLIT: Orbitals with angular momentum L= 0

SPLIT: Basis orbitals for state 2s

SPLIT: PAO cut-off radius determined from an
SPLIT: energy shift=  0.007350 Ry

   izeta = 1
                 lambda =    1.000000
                     rc =    4.632753
                 energy =   -1.002270
                kinetic =    0.855760
    potential(screened) =   -1.858031
       potential(ionic) =   -5.417575

   izeta = 2
                 rmatch =    3.431921
              splitnorm =    0.150000
                 energy =   -0.867111
                kinetic =    1.300804
    potential(screened) =   -2.167915
       potential(ionic) =   -5.962684

SPLIT: Orbitals with angular momentum L= 1

SPLIT: Basis orbitals for state 2p

SPLIT: PAO cut-off radius determined from an
SPLIT: energy shift=  0.007350 Ry

   izeta = 1
                 lambda =    1.000000
                     rc =    5.658549
                 energy =   -0.381140
                kinetic =    2.399701
    potential(screened) =   -2.780841
       potential(ionic) =   -6.206085

   izeta = 2
                 rmatch =    3.653288
              splitnorm =    0.150000
                 energy =   -0.249149
                kinetic =    3.542762
    potential(screened) =   -3.791911
       potential(ionic) =   -7.581078

POLgen: Perturbative polarization orbital with L=  2

POLgen: Polarization orbital for state 2p

   izeta = 1
                     rc =    5.658549
                 energy =    1.109913
                kinetic =    2.304789
    potential(screened) =   -1.194876
       potential(ionic) =   -4.013592
atom: Total number of Sankey-type orbitals: 13

atm_pop: Valence configuration (for local Pseudopot. screening):
 2s( 2.00)                                                            
 2p( 2.00)                                                            
Vna: chval, zval:    4.00000   4.00000

Vna:  Cut-off radius for the neutral-atom potential:   5.658549
comcore: Pseudo-core radius Rcore=  1.791422

atom: _________________________________________________________________________

prinput: Basis input ----------------------------------------------------------

PAO.BasisType split     

%block ChemicalSpeciesLabel
    1    5 B                       # Species index, atomic number, species label
    2    6 C                       # Species index, atomic number, species label
%endblock ChemicalSpeciesLabel

%block PAO.Basis                 # Define Basis set
B                     2                    # Species label, number of l-shells
 n=2   0   2                         # n, l, Nzeta 
   5.422      4.223   
   1.000      1.000   
 n=2   1   2 P   1                   # n, l, Nzeta, Polarization, NzetaPol
   6.790      4.609   
   1.000      1.000   
C                     2                    # Species label, number of l-shells
 n=2   0   2                         # n, l, Nzeta 
   4.633      3.432   
   1.000      1.000   
 n=2   1   2 P   1                   # n, l, Nzeta, Polarization, NzetaPol
   5.659      3.653   
   1.000      1.000   
%endblock PAO.Basis

prinput: ----------------------------------------------------------------------

coor:   Atomic-coordinates input format  =     Cartesian coordinates
coor:                                          (in Angstroms)

siesta: Atomic coordinates (Bohr) and species
siesta:      2.23554   1.32097   0.00000  1        1
siesta:     18.53247  10.73026   0.00000  1        2
siesta:      4.56367   2.66461   0.00000  2        3
siesta:     32.50328  21.48508   0.00000  2        4
siesta:     34.83141  22.82873   0.00000  2        5
siesta:     34.83116  17.45226   0.00000  2        6
siesta:     37.15930  18.79590   0.00000  2        7
siesta:     32.50291  13.41944   0.00000  2        8
siesta:     34.83104  14.76308   0.00000  2        9
siesta:     30.17465   9.38661   0.00000  2       10
siesta:     32.50278  10.73026   0.00000  2       11
siesta:     27.84639   5.35379   0.00000  2       12
siesta:     30.17453   6.69743   0.00000  2       13
siesta:     27.84714  21.48508   0.00000  2       14
siesta:     30.17527  22.82873   0.00000  2       15
siesta:      6.89168   1.32097   0.00000  2       16
siesta:      9.21981   2.66461   0.00000  2       17
siesta:     11.54782   1.32097   0.00000  2       18
siesta:     13.87595   2.66461   0.00000  2       19
siesta:     16.20396   1.32097   0.00000  2       20
siesta:     18.53210   2.66461   0.00000  2       21
siesta:     20.86199   1.32097   0.00000  2       22
siesta:     23.19013   2.66461   0.00000  2       23
siesta:     25.51813   1.32097   0.00000  2       24
siesta:     27.84627   2.66461   0.00000  2       25
siesta:      4.56380   5.35379   0.00000  2       26
siesta:      6.89193   6.69743   0.00000  2       27
siesta:      9.21994   5.35379   0.00000  2       28
siesta:     11.54807   6.69743   0.00000  2       29
siesta:     13.87608   5.35379   0.00000  2       30
siesta:     16.20421   6.69743   0.00000  2       31
siesta:     18.53411   5.35379   0.00000  2       32
siesta:     20.86224   6.69743   0.00000  2       33
siesta:     23.19025   5.35379   0.00000  2       34
siesta:     25.51838   6.69743   0.00000  2       35
siesta:      6.89205   9.38661   0.00000  2       36
siesta:      9.22019  10.73026   0.00000  2       37
siesta:     11.54820   9.38661   0.00000  2       38
siesta:     13.87633  10.73026   0.00000  2       39
siesta:     16.20434   9.38661   0.00000  2       40
siesta:     20.86237   9.38661   0.00000  2       41
siesta:     23.19050  10.73026   0.00000  2       42
siesta:      9.22031  13.41944   0.00000  2       43
siesta:     11.54845  14.76308   0.00000  2       44
siesta:     13.87645  13.41944   0.00000  2       45
siesta:     16.20459  14.76308   0.00000  2       46
siesta:     18.53448  13.41944   0.00000  2       47
siesta:     20.86262  14.76308   0.00000  2       48
siesta:     11.54857  17.45226   0.00000  2       49
siesta:     13.87670  18.79590   0.00000  2       50
siesta:     16.20471  17.45226   0.00000  2       51
siesta:     18.53284  18.79590   0.00000  2       52
siesta:     13.87683  21.48508   0.00000  2       53
siesta:     16.20496  22.82873   0.00000  2       54
siesta:     18.53486  21.48508   0.00000  2       55
siesta:     20.86299  22.82873   0.00000  2       56
siesta:     25.51851   9.38661   0.00000  2       57
siesta:     27.84664  10.73026   0.00000  2       58
siesta:     23.19063  13.41944   0.00000  2       59
siesta:     25.51876  14.76308   0.00000  2       60
siesta:     20.86274  17.45226   0.00000  2       61
siesta:     23.19088  18.79590   0.00000  2       62
siesta:     27.84677  13.41944   0.00000  2       63
siesta:     30.17490  14.76308   0.00000  2       64
siesta:     25.51888  17.45226   0.00000  2       65
siesta:     27.84702  18.79590   0.00000  2       66
siesta:     23.19100  21.48508   0.00000  2       67
siesta:     25.51913  22.82873   0.00000  2       68
siesta:     30.17503  17.45226   0.00000  2       69
siesta:     32.50316  18.79590   0.00000  2       70
siesta:     37.16131  21.48508   0.00000  2       71
siesta:     39.48945  22.82873   0.00000  2       72

siesta: System type = slab      

initatomlists: Number of atoms, orbitals, and projectors:     72   936  1152

siesta: ******************** Simulation parameters ****************************
siesta:
siesta: The following are some of the parameters of the simulation.
siesta: A complete list of the parameters used, including default values,
siesta: can be found in file out.fdf
siesta:
redata: Non-Collinear-spin run           =     F
redata: SpinPolarized (Up/Down) run      =     F
redata: Number of spin components        =     1
redata: Long output                      =     F
redata: Number of Atomic Species         =        2
redata: Charge density info will appear in .RHO file
redata: Write Mulliken Pop.              =     NO
redata: Mesh Cutoff                      =   200.0000  Ry
redata: Net charge of the system         =     0.0000 |e|
redata: Max. number of SCF Iter          =      500
redata: SCF convergence failure will abort job
redata: Performing Pulay mixing using    =    10 iterations
redata: Mix DM in first SCF step ?       =     F
redata: Write Pulay info on disk?        =     F
redata: Discard 1st Pulay DM after  kick =     F
redata: New DM Mixing Weight             =     0.0500
redata: New DM Occupancy tolerance       = 0.000000000001
redata: No kicks to SCF
redata: DM Mixing Weight for Kicks       =     0.5000
redata: DM Tolerance for SCF             =     0.000100
redata: Require Energy convergence for SCF =     F
redata: DM Energy tolerance for SCF      =     0.000100 eV
redata: Require Harris convergence for SCF =     F
redata: DM Harris energy tolerance for SCF =     0.000100 eV
redata: Using Saved Data (generic)   =     F
redata: Use continuation files for DM    =     T
redata: Neglect nonoverlap interactions  =     F
redata: Method of Calculation            =     Diagonalization
redata: Divide and Conquer               =     T
redata: Electronic Temperature           =     0.0019  Ry
redata: Fix the spin of the system       =     F
redata: Dynamics option                  =     Verlet MD run
redata: Initial MD time step             =        1
redata:   Final MD time step             =        1
redata: Length of MD time step           =     1.0000  fs
redata: Initial Temperature of MD run    =     0.0000  K
redata: Perform a MD quench              =     F
redata: ***********************************************************************
Total number of electrons:   286.000000
Total ionic charge:   286.000000

* ProcessorY, Blocksize:    3  24

k-point displ. along   1 input, could be:     0.50    0.00
k-point displ. along   2 input, could be:     0.50    0.00
 Kpoints in:          231 . Kpoints trimmed:          231

siesta: k-grid: Number of k-points =   231
siesta: k-grid: Cutoff (effective) =     5.000 Ang
siesta: k-grid: Supercell and displacements
siesta: k-grid:   21   0   0      0.500
siesta: k-grid:    0  21   0      0.500
siesta: k-grid:    0   0   1      0.000
Naive supercell factors:     2    2    2

superc: Internal auxiliary supercell:     2 x     2 x     2  =       8
superc: Number of atoms, orbitals, and projectors:    576   7488   9216

* Maximum dynamic memory allocated =     4 MB

siesta:                 ==============================
                            Begin MD step =      1
                        ==============================

superc: Internal auxiliary supercell:     2 x     2 x     2  =       8
superc: Number of atoms, orbitals, and projectors:    576   7488   9216

outcell: Unit cell vectors (Ang):
       14.785000    0.000000    0.000000
        7.393000   12.805052    0.000000
        0.000000    0.000000   10.000000

outcell: Cell vector modules (Ang)   :   14.785000   14.786000   10.000000
outcell: Cell angles (23,13,12) (deg):     90.0000     90.0000     60.0000
outcell: Cell volume (Ang**3)        :   1893.2269
New_DM. Step:     1
Initializing Density Matrix...

iodm: Reading Density Matrix from files

InitMesh: MESH =   120 x   120 x    90 =     1296000
InitMesh: Mesh cutoff (required, used) =   200.000   223.865 Ry

* Maximum dynamic memory allocated =   144 MB

stepf: Fermi-Dirac step function

siesta: Program's energy decomposition (eV):
siesta: Ebs     =     -3883.342632
siesta: Eions   =     18146.897649
siesta: Ena     =      3930.203808
siesta: Ekin    =      7735.930833
siesta: Enl     =      -770.101954
siesta: DEna    =      -297.921070
siesta: DUscf   =        27.532446
siesta: DUext   =         0.000000
siesta: Exc     =     -4046.416838
siesta: eta*DQ  =         0.000000
siesta: Emadel  =         0.000000
siesta: Emeta   =         0.000000
siesta: Emolmec =         0.000000
siesta: Ekinion =         0.000000
siesta: Eharris =    -11567.675341
siesta: Etot    =    -11567.670424
siesta: FreeEng =    -11567.670424

siesta: iscf   Eharris(eV)      E_KS(eV)   FreeEng(eV)   dDmax  Ef(eV)
siesta:    1   -11567.6753   -11567.6704   -11567.6704  0.0001 -5.3300
timer: Routine,Calls,Time,% = IterSCF        1    1203.491  98.90
elaps: Routine,Calls,Wall,% = IterSCF        1     100.536  98.89

siesta: E_KS(eV) =           -11567.6753

siesta: E_KS - E_eggbox =    -11567.6753

siesta: Atomic forces (eV/Ang):
----------------------------------------
   Tot    0.191670   -0.281015    0.000000
----------------------------------------
   Max    3.424979
   Res    0.593973    sqrt( Sum f_i^2 / 3N )
----------------------------------------
   Max    3.424979    constrained

Stress-tensor-Voigt (kbar):      -54.01      -53.11       -0.05       -0.44        0.00        0.00
(Free)E + p*V (eV/cell)   -11525.4742
Target enthalpy (eV/cell)   -11567.6864

siesta: Stress tensor (static) (eV/Ang**3):
        -0.033709   -0.000273    0.000000
        -0.000273   -0.033150    0.000000
         0.000000    0.000000   -0.000030

siesta: Pressure (static):         35.72316094  kBar

siesta: Stress tensor (total) (eV/Ang**3):
        -0.033709   -0.000273    0.000000
        -0.000273   -0.033150    0.000000
         0.000000    0.000000   -0.000030

siesta: Pressure (total):         35.72316094  kBar

siesta: Temp_ion =       0.000 K

* Maximum dynamic memory allocated =   239 MB

siesta: Program's energy decomposition (eV):
siesta: Ebs     =     -3883.342632
siesta: Eions   =     18146.897649
siesta: Ena     =      3930.203808
siesta: Ekin    =      7735.901298
siesta: Enl     =      -770.083141
siesta: DEna    =      -297.916680
siesta: DUscf   =        27.532036
siesta: DUext   =         0.000000
siesta: Exc     =     -4046.415009
siesta: eta*DQ  =         0.000000
siesta: Emadel  =         0.000000
siesta: Emeta   =         0.000000
siesta: Emolmec =         0.000000
siesta: Ekinion =         0.000000
siesta: Eharris =    -11567.675341
siesta: Etot    =    -11567.675337
siesta: FreeEng =    -11567.686368

siesta: Final energy (eV):
siesta:  Band Struct. =   -3883.342632
siesta:       Kinetic =    7735.901298
siesta:       Hartree =   22791.290583
siesta:    Ext. field =       0.000000
siesta:   Exch.-corr. =   -4046.415009
siesta:  Ion-electron =  -52699.828749
siesta:       Ion-ion =   14651.376541
siesta:       Ekinion =       0.000000
siesta:         Total =  -11567.675337

siesta: Atomic forces (eV/Ang):
siesta:      1   -0.010497   -0.030226    0.000000
siesta:      2    0.047860    0.008084    0.000000
siesta:      3    2.990382    1.726045    0.000000
siesta:      4    0.058941    0.000654    0.000000
siesta:      5   -0.065954    0.098806    0.000000
siesta:      6    0.036398    0.029807    0.000000
siesta:      7    0.041536   -0.126719    0.000000
siesta:      8    0.014909   -0.089854    0.000000
siesta:      9    0.076938   -0.046754    0.000000
siesta:     10    0.009703   -0.272268    0.000000
siesta:     11    0.086190    0.082206    0.000000
siesta:     12   -0.490990   -0.316878    0.000000
siesta:     13    0.003772    0.318827    0.000000
siesta:     14   -0.056195    0.036772    0.000000
siesta:     15   -0.011027    0.102154    0.000000
siesta:     16    0.001977    0.571532    0.000000
siesta:     17    0.086204   -0.122725    0.000000
siesta:     18    0.089212   -0.010920    0.000000
siesta:     19   -0.059740   -0.058160    0.000000
siesta:     20   -0.060079   -0.117155    0.000000
siesta:     21    0.037040    0.253223    0.000000
siesta:     22   -0.006114   -0.072150    0.000000
siesta:     23   -0.052467   -0.163071    0.000000
siesta:     24   -0.007958    0.550624    0.000000
siesta:     25   -2.954338    1.717335    0.000000
siesta:     26    0.512566   -0.312857    0.000000
siesta:     27   -0.065052    0.140969    0.000000
siesta:     28   -0.033891   -0.034882    0.000000
siesta:     29    0.039282    0.026349    0.000000
siesta:     30    0.073801   -0.147853    0.000000
siesta:     31   -0.492277    0.302432    0.000000
siesta:     32   -0.026242   -0.322285    0.000000
siesta:     33    0.499859    0.307014    0.000000
siesta:     34   -0.027204   -0.181630    0.000000
siesta:     35    0.026304    0.176529    0.000000
siesta:     36    0.051014    0.050251    0.000000
siesta:     37   -0.081552   -0.018118    0.000000
siesta:     38   -0.080153    0.110142    0.000000
siesta:     39    0.005058   -0.600708    0.000000
siesta:     40   -2.987428   -1.744586    0.000000
siesta:     41    2.940124   -1.723247    0.000000
siesta:     42    0.018265   -0.582441    0.000000
siesta:     43   -0.118308   -0.026684    0.000000
siesta:     44    0.221583   -0.126569    0.000000
siesta:     45   -0.260085    0.153662    0.000000
siesta:     46    0.543058    0.279648    0.000000
siesta:     47   -0.038452    3.424979    0.000000
siesta:     48   -0.500072    0.316751    0.000000
siesta:     49   -0.032510    0.034192    0.000000
siesta:     50   -0.166633    0.042899    0.000000
siesta:     51   -0.156356    0.046750    0.000000
siesta:     52    0.202814   -0.066584    0.000000
siesta:     53    0.520541   -0.325086    0.000000
siesta:     54    0.037390   -3.394354    0.000000
siesta:     55   -0.546470   -0.285417    0.000000
siesta:     56    0.262451   -0.143114    0.000000
siesta:     57    0.055250    0.148611    0.000000
siesta:     58   -0.025370    0.046704    0.000000
siesta:     59    0.288311    0.150399    0.000000
siesta:     60   -0.257113   -0.144175    0.000000
siesta:     61    0.140313   -0.042574    0.000000
siesta:     62    0.019347   -0.039558    0.000000
siesta:     63    0.108453   -0.090749    0.000000
siesta:     64   -0.050631   -0.003766    0.000000
siesta:     65   -0.011025    0.115261    0.000000
siesta:     66   -0.031403   -0.037786    0.000000
siesta:     67   -0.217306    0.123007    0.000000
siesta:     68    0.104889    0.045991    0.000000
siesta:     69    0.015593   -0.005423    0.000000
siesta:     70   -0.009945   -0.003733    0.000000
siesta:     71    0.221185    0.145699    0.000000
siesta:     72   -0.306005   -0.134266    0.000000
siesta: ----------------------------------------
siesta:    Tot    0.191670   -0.281015    0.000000

siesta: Stress tensor (static) (eV/Ang**3):
siesta:    -0.033709   -0.000273    0.000000
siesta:    -0.000273   -0.033150    0.000000
siesta:     0.000000    0.000000   -0.000030

siesta: Cell volume =       1893.226895 Ang**3

siesta: Pressure (static):
siesta:                Solid            Molecule  Units
siesta:           0.00024284          0.00037455  Ry/Bohr**3
siesta:           0.02229640          0.03438960  eV/Ang**3
siesta:          35.72316094         55.09881621  kBar
(Free)E+ p_basis*V_orbitals  =      -11536.316842
(Free)Eharris+ p_basis*V_orbitals  =      -11536.321759

siesta: Electric dipole (a.u.)  =    0.000000    0.000000    0.000000
siesta: Electric dipole (Debye) =    0.000000    0.000000    0.000000

* Maximum dynamic memory allocated : Node    0 =   239 MB
* Maximum dynamic memory allocated : Node    1 =   149 MB
* Maximum dynamic memory allocated : Node    2 =   150 MB
* Maximum dynamic memory allocated : Node    3 =   227 MB
* Maximum dynamic memory allocated : Node    4 =   233 MB
* Maximum dynamic memory allocated : Node    5 =   144 MB
* Maximum dynamic memory allocated : Node    6 =   146 MB
* Maximum dynamic memory allocated : Node    7 =   227 MB
* Maximum dynamic memory allocated : Node    8 =   233 MB
* Maximum dynamic memory allocated : Node    9 =   144 MB
* Maximum dynamic memory allocated : Node   10 =   146 MB
* Maximum dynamic memory allocated : Node   11 =   226 MB

* Maximum memory occured during cdiag                         

timer: CPU execution times:
timer:  Routine       Calls   Time/call    Tot.time        %
timer:  siesta            1    1340.582    1340.582   100.00
timer:  Setup             1       3.441       3.441     0.26
timer:  bands             1       0.011       0.011     0.00
timer:  writewave         1       0.018       0.018     0.00
timer:  KSV_init          1       0.009       0.009     0.00
timer:  IterMD            1    1330.538    1330.538    99.25
timer:  hsparse           1       0.286       0.286     0.02
timer:  overlap           1       4.825       4.825     0.36
timer:  IterSCF           1    1203.491    1203.491    89.77
timer:  kinefsm           2       2.453       4.906     0.37
timer:  nlefsm            2      19.301      38.602     2.88
timer:  DHSCF             2      89.510     179.021    13.35
timer:  DHSCF1            1       1.196       1.196     0.09
timer:  DHSCF2            1      30.288      30.288     2.26
timer:  REORD            18       0.003       0.051     0.00
timer:  POISON            3       0.477       1.431     0.11
timer:  DHSCF3            2      62.016     124.031     9.25
timer:  rhoofd            2      12.620      25.240     1.88
timer:  cellXC            2       2.451       4.901     0.37
timer:  vmat              2      31.024      62.048     4.63
timer:  MolMec            2       0.000       0.000     0.00
timer:  diagon            1    1068.750    1068.750    79.72
timer:  cdiag            40      17.830     686.341    51.20
timer:  cdiag1           40       0.868      33.413     2.49
timer:  cdiag2           40       2.988     114.964     8.58
timer:  cdiag3           40      13.777     530.359    39.56
timer:  cdiag4           40       0.194       7.474     0.56
timer:  DHSCF4            1      23.450      23.450     1.75
timer:  dfscf             1      21.468      21.468     1.60
timer:  overfsm           1       0.282       0.282     0.02
timer:  optical           1       6.044       6.044     0.45
  

elaps: ELAPSED times:
elaps:  Routine       Calls   Time/call    Tot.time        %
elaps:  siesta            1     111.993     111.993   100.00
elaps:  Setup             1       0.288       0.288     0.26
elaps:  bands             1       0.001       0.001     0.00
elaps:  writewave         1       0.002       0.002     0.00
elaps:  KSV_init          1       0.000       0.000     0.00
elaps:  IterMD            1     111.153     111.153    99.25
elaps:  hsparse           1       0.028       0.028     0.03
elaps:  overlap           1       0.712       0.712     0.64
elaps:  IterSCF           1     100.536     100.536    89.77
elaps:  kinefsm           2       0.364       0.728     0.65
elaps:  nlefsm            2       1.790       3.580     3.20
elaps:  DHSCF             2       8.282      16.565    14.79
elaps:  DHSCF1            1       0.102       0.102     0.09
elaps:  DHSCF2            1       2.529       2.529     2.26
elaps:  REORD            18       0.000       0.005     0.00
elaps:  POISON            3       0.041       0.122     0.11
elaps:  DHSCF3            2       5.180      10.360     9.25
elaps:  rhoofd            2       1.879       3.758     3.36
elaps:  cellXC            2       0.204       0.409     0.37
elaps:  vmat              2       2.591       5.182     4.63
elaps:  MolMec            2       0.000       0.000     0.00
elaps:  diagon            1      89.281      89.281    79.72
elaps:  cdiag            40       1.474      58.951    52.64
elaps:  cdiag1           40       0.069       2.760     2.46
elaps:  cdiag2           40       0.238       9.524     8.50
elaps:  cdiag3           40       1.149      45.954    41.03
elaps:  cdiag4           40       0.018       0.705     0.63
elaps:  DHSCF4            1       3.569       3.569     3.19
elaps:  dfscf             1       3.329       3.329     2.97
elaps:  overfsm           1       0.031       0.031     0.03
elaps:  optical           1       0.000       0.000     0.00
  
>> End of run:   6-APR-2016  14:03:54
