Siesta Version:                                        siesta-3.2-pl-3
Architecture  : x86_64-unknown-linux-gnu--unknown
Compiler flags: mpiifort -g -O2 -fPIC -xSSE4.1 -fp-model source -shared-intel 
PARALLEL version

* Running on    8 nodes in parallel
>> Start of run:  26-APR-2016  22:36:37

                           ***********************       
                           *  WELCOME TO SIESTA  *       
                           ***********************       

reinit: Reading from standard input
************************** Dump of input data file ****************************
#(1) General system descriptors
SystemName            GRP_doping    # Descriptive name of the system
SystemLabel           GRP_doping    # Short name for naming files
%include STRUCT.fdf
%include KPT.fdf
%include BASIS.fdf
#%include TS.fdf # for transiesta calculation
#(4) DFT, Grid, SCF
XC.functional         GGA           # LDA or GGA (default = LDA)
XC.authors            PBE           # CA (Ceperley-Aldr) = PZ
                                    #    (Perdew-Zunger) - LDA - Default
                                    # PW92 (Perdew-Wang-92) - LDA
                                    # PBE (Perdew-Burke-Ernzerhof) - GGA
MeshCutoff            200.000000    Ry      # Default: 50.0 Ry ~ 0.444 Bohr
                                    #         100.0 Ry ~ 0.314 Bohr
MaxSCFIterations      500           # Default: 50
DM.MixingWeight       0.05          # Default: 0.25
DM.NumberPulay        10            # Default: 0
DM.PulayOnFile        F             # SystemLabel.P1, SystemLabel.P2
DM.Tolerance          1.d-4         # Default: 1.d-4
DM.UseSaveDM          .true.        # because of the bug
SCFMustConverge       .true.
NeglNonOverlapInt     F             # Default: F
#(5) Eigenvalue problem: order-N or diagonalization
SolutionMethod        Diagon        # or Transiesta
ElectronicTemperature 300.0 K       # Default: 300.0 K
#(6) Molecular dynamics and relaxations
#MD.TypeOfRun          CG            # Type of dynamics:
#MD.VariableCell       F
#MD.NumCGsteps         0           # 0 for single-point / 100 for gopt
#MD.MaxCGDispl         0.2 Bohr      # Default: 0.2 Bohr
#MD.MaxForceTol        0.02 eV/Ang   # Default: 0.04 eV/Ang
#MD.MaxStressTol       1.0 GPa       # Default: 1.0 GPa
# Geometry Constraints
#%block GeometryConstraints
#	position from 1 to 44
#%endblock GeometryConstraints
BandLinesScale   pi/a
%block BandLines
 1   0.00000000  0.00000000  0.00000000
50   0.00000000  0.07809418  0.00000000
50   0.04509075  0.07809242  0.00000000
20   0.00000000  0.00000000  0.00000000
%endblock BandLines
************************** End of input data file *****************************

reinit: -----------------------------------------------------------------------
reinit: System Name: GRP_doping
reinit: -----------------------------------------------------------------------
reinit: System Label: GRP_doping                                                  
reinit: -----------------------------------------------------------------------

initatom: Reading input for the pseudopotentials and atomic orbitals ----------
 Species number:            1  Label: N Atomic number:           7
 Species number:            2  Label: C Atomic number:           6
Ground state valence configuration:   2s02  2p03
Reading pseudopotential information in formatted form from N.psf

Valence configuration for pseudopotential generation:
2s( 2.00) rc: 1.48
2p( 3.00) rc: 1.48
3d( 0.00) rc: 1.48
4f( 0.00) rc: 1.48
Ground state valence configuration:   2s02  2p02
Reading pseudopotential information in formatted form from C.psf

Valence configuration for pseudopotential generation:
2s( 2.00) rc: 1.54
2p( 2.00) rc: 1.54
3d( 0.00) rc: 1.54
4f( 0.00) rc: 1.54
For N, standard SIESTA heuristics set lmxkb to 3
 (one more than the basis l, including polarization orbitals).
Use PS.lmax or PS.KBprojectors blocks to override.
For C, standard SIESTA heuristics set lmxkb to 3
 (one more than the basis l, including polarization orbitals).
Use PS.lmax or PS.KBprojectors blocks to override.

<basis_specs>
===============================================================================
N                    Z=   7    Mass=  14.010        Charge= 0.17977+309
Lmxo=1 Lmxkb= 3    BasisType=split      Semic=F
L=0  Nsemic=0  Cnfigmx=2
          n=1  nzeta=2  polorb=0
            splnorm:   0.15000    
               vcte:    0.0000    
               rinn:    0.0000    
                rcs:    0.0000      0.0000    
            lambdas:    1.0000      1.0000    
L=1  Nsemic=0  Cnfigmx=2
          n=1  nzeta=2  polorb=1
            splnorm:   0.15000    
               vcte:    0.0000    
               rinn:    0.0000    
                rcs:    0.0000      0.0000    
            lambdas:    1.0000      1.0000    
-------------------------------------------------------------------------------
L=0  Nkbl=1  erefs: 0.17977+309
L=1  Nkbl=1  erefs: 0.17977+309
L=2  Nkbl=1  erefs: 0.17977+309
L=3  Nkbl=1  erefs: 0.17977+309
===============================================================================
</basis_specs>

atom: Called for N                     (Z =   7)

read_vps: Pseudopotential generation method:
read_vps: ATM3      Troullier-Martins                       
Total valence charge:    5.00000

read_vps: Pseudopotential includes a core correction:
read_vps: Pseudo-core for xc-correction

xc_check: Exchange-correlation functional:
xc_check: GGA Perdew, Burke & Ernzerhof 1996
V l=0 = -2*Zval/r beyond r=  1.4606
V l=1 = -2*Zval/r beyond r=  1.4606
V l=2 = -2*Zval/r beyond r=  1.4606
V l=3 = -2*Zval/r beyond r=  1.4606
All V_l potentials equal beyond r=  1.4606
This should be close to max(r_c) in ps generation
All pots = -2*Zval/r beyond r=  1.4606

VLOCAL1: 99.0% of the norm of Vloc inside     20.347 Ry
VLOCAL1: 99.9% of the norm of Vloc inside     46.372 Ry
atom: Maximum radius for 4*pi*r*r*local-pseudopot. charge    1.76189
atom: Maximum radius for r*vlocal+2*Zval:    1.53550
GHOST: No ghost state for L =  0
GHOST: No ghost state for L =  1
GHOST: No ghost state for L =  2
GHOST: No ghost state for L =  3

KBgen: Kleinman-Bylander projectors: 
   l= 0   rc=  1.634559   el= -1.363963   Ekb=  5.296955   kbcos=  0.335621
   l= 1   rc=  1.614250   el= -0.521451   Ekb= -5.259161   kbcos= -0.433408
   l= 2   rc=  1.718383   el=  0.001991   Ekb= -1.271464   kbcos= -0.007566
   l= 3   rc=  1.761893   el=  0.003093   Ekb= -0.494769   kbcos= -0.001015

KBgen: Total number of  Kleinman-Bylander projectors:   16
atom: -------------------------------------------------------------------------

atom: SANKEY-TYPE ORBITALS:
atom: Selected multiple-zeta basis: split     

SPLIT: Orbitals with angular momentum L= 0

SPLIT: Basis orbitals for state 2s

SPLIT: PAO cut-off radius determined from an
SPLIT: energy shift=  0.007350 Ry

   izeta = 1
                 lambda =    1.000000
                     rc =    4.071465
                 energy =   -1.356470
                kinetic =    1.176977
    potential(screened) =   -2.533447
       potential(ionic) =   -8.057990

   izeta = 2
                 rmatch =    2.905100
              splitnorm =    0.150000
                 energy =   -1.158343
                kinetic =    1.813009
    potential(screened) =   -2.971352
       potential(ionic) =   -8.901931

SPLIT: Orbitals with angular momentum L= 1

SPLIT: Basis orbitals for state 2p

SPLIT: PAO cut-off radius determined from an
SPLIT: energy shift=  0.007350 Ry

   izeta = 1
                 lambda =    1.000000
                     rc =    4.972977
                 energy =   -0.513884
                kinetic =    3.441732
    potential(screened) =   -3.955616
       potential(ionic) =   -9.287901

   izeta = 2
                 rmatch =    3.054066
              splitnorm =    0.150000
                 energy =   -0.318226
                kinetic =    5.125348
    potential(screened) =   -5.443573
       potential(ionic) =  -11.380999

POLgen: Perturbative polarization orbital with L=  2

POLgen: Polarization orbital for state 2p

   izeta = 1
                     rc =    4.972977
                 energy =    1.607437
                kinetic =    3.268125
    potential(screened) =   -1.660688
       potential(ionic) =   -5.973652
atom: Total number of Sankey-type orbitals: 13

atm_pop: Valence configuration (for local Pseudopot. screening):
 2s( 2.00)                                                            
 2p( 3.00)                                                            
Vna: chval, zval:    5.00000   5.00000

Vna:  Cut-off radius for the neutral-atom potential:   4.972977
comcore: Pseudo-core radius Rcore=  1.554824

atom: _________________________________________________________________________

<basis_specs>
===============================================================================
C                    Z=   6    Mass=  12.010        Charge= 0.17977+309
Lmxo=1 Lmxkb= 3    BasisType=split      Semic=F
L=0  Nsemic=0  Cnfigmx=2
          n=1  nzeta=2  polorb=0
            splnorm:   0.15000    
               vcte:    0.0000    
               rinn:    0.0000    
                rcs:    0.0000      0.0000    
            lambdas:    1.0000      1.0000    
L=1  Nsemic=0  Cnfigmx=2
          n=1  nzeta=2  polorb=1
            splnorm:   0.15000    
               vcte:    0.0000    
               rinn:    0.0000    
                rcs:    0.0000      0.0000    
            lambdas:    1.0000      1.0000    
-------------------------------------------------------------------------------
L=0  Nkbl=1  erefs: 0.17977+309
L=1  Nkbl=1  erefs: 0.17977+309
L=2  Nkbl=1  erefs: 0.17977+309
L=3  Nkbl=1  erefs: 0.17977+309
===============================================================================
</basis_specs>

atom: Called for C                     (Z =   6)

read_vps: Pseudopotential generation method:
read_vps: ATM3      Troullier-Martins                       
Total valence charge:    4.00000

read_vps: Pseudopotential includes a core correction:
read_vps: Pseudo-core for xc-correction

xc_check: Exchange-correlation functional:
xc_check: GGA Perdew, Burke & Ernzerhof 1996
V l=0 = -2*Zval/r beyond r=  1.5227
V l=1 = -2*Zval/r beyond r=  1.5227
V l=2 = -2*Zval/r beyond r=  1.5227
V l=3 = -2*Zval/r beyond r=  1.5038
All V_l potentials equal beyond r=  1.5227
This should be close to max(r_c) in ps generation
All pots = -2*Zval/r beyond r=  1.5227

VLOCAL1: 99.0% of the norm of Vloc inside     18.722 Ry
VLOCAL1: 99.9% of the norm of Vloc inside     42.668 Ry
atom: Maximum radius for 4*pi*r*r*local-pseudopot. charge    1.83678
atom: Maximum radius for r*vlocal+2*Zval:    1.58088
GHOST: No ghost state for L =  0
GHOST: No ghost state for L =  1
GHOST: No ghost state for L =  2
GHOST: No ghost state for L =  3

KBgen: Kleinman-Bylander projectors: 
   l= 0   rc=  1.704034   el= -1.009801   Ekb=  5.335044   kbcos=  0.316824
   l= 1   rc=  1.704034   el= -0.388707   Ekb= -3.785862   kbcos= -0.366464
   l= 2   rc=  1.791422   el=  0.001971   Ekb= -0.970471   kbcos= -0.009212
   l= 3   rc=  1.859892   el=  0.003065   Ekb= -0.399525   kbcos= -0.001223

KBgen: Total number of  Kleinman-Bylander projectors:   16
atom: -------------------------------------------------------------------------

atom: SANKEY-TYPE ORBITALS:
atom: Selected multiple-zeta basis: split     

SPLIT: Orbitals with angular momentum L= 0

SPLIT: Basis orbitals for state 2s

SPLIT: PAO cut-off radius determined from an
SPLIT: energy shift=  0.007350 Ry

   izeta = 1
                 lambda =    1.000000
                     rc =    4.632753
                 energy =   -1.002270
                kinetic =    0.855760
    potential(screened) =   -1.858031
       potential(ionic) =   -5.417575

   izeta = 2
                 rmatch =    3.431921
              splitnorm =    0.150000
                 energy =   -0.867111
                kinetic =    1.300804
    potential(screened) =   -2.167915
       potential(ionic) =   -5.962684

SPLIT: Orbitals with angular momentum L= 1

SPLIT: Basis orbitals for state 2p

SPLIT: PAO cut-off radius determined from an
SPLIT: energy shift=  0.007350 Ry

   izeta = 1
                 lambda =    1.000000
                     rc =    5.658549
                 energy =   -0.381140
                kinetic =    2.399701
    potential(screened) =   -2.780841
       potential(ionic) =   -6.206085

   izeta = 2
                 rmatch =    3.653288
              splitnorm =    0.150000
                 energy =   -0.249149
                kinetic =    3.542762
    potential(screened) =   -3.791911
       potential(ionic) =   -7.581078

POLgen: Perturbative polarization orbital with L=  2

POLgen: Polarization orbital for state 2p

   izeta = 1
                     rc =    5.658549
                 energy =    1.109913
                kinetic =    2.304789
    potential(screened) =   -1.194876
       potential(ionic) =   -4.013592
atom: Total number of Sankey-type orbitals: 13

atm_pop: Valence configuration (for local Pseudopot. screening):
 2s( 2.00)                                                            
 2p( 2.00)                                                            
Vna: chval, zval:    4.00000   4.00000

Vna:  Cut-off radius for the neutral-atom potential:   5.658549
comcore: Pseudo-core radius Rcore=  1.791422

atom: _________________________________________________________________________

prinput: Basis input ----------------------------------------------------------

PAO.BasisType split     

%block ChemicalSpeciesLabel
    1    7 N                       # Species index, atomic number, species label
    2    6 C                       # Species index, atomic number, species label
%endblock ChemicalSpeciesLabel

%block PAO.Basis                 # Define Basis set
N                     2                    # Species label, number of l-shells
 n=2   0   2                         # n, l, Nzeta 
   4.071      2.905   
   1.000      1.000   
 n=2   1   2 P   1                   # n, l, Nzeta, Polarization, NzetaPol
   4.973      3.054   
   1.000      1.000   
C                     2                    # Species label, number of l-shells
 n=2   0   2                         # n, l, Nzeta 
   4.633      3.432   
   1.000      1.000   
 n=2   1   2 P   1                   # n, l, Nzeta, Polarization, NzetaPol
   5.659      3.653   
   1.000      1.000   
%endblock PAO.Basis

prinput: ----------------------------------------------------------------------

coor:   Atomic-coordinates input format  =     Fractional

siesta: Atomic coordinates (Bohr) and species
siesta:     -2.35420  38.89134   0.00000  1        1
siesta:      2.30256  38.89134   0.00000  1        2
siesta:      4.63094  34.85847   0.00000  1        3
siesta:      4.63094  37.54693   0.00000  1        4
siesta:      6.95932  33.51406   0.00000  1        5
siesta:     -4.68258  34.85847   0.00000  1        6
siesta:     -2.35420  14.69411   0.00000  1        7
siesta:     -2.35420  17.38257   0.00000  1        8
siesta:      2.30256  25.44831   0.00000  1        9
siesta:     -4.68258  18.72698   0.00000  1       10
siesta:     -4.68258  21.41544   0.00000  1       11
siesta:     -7.01096  22.75985   0.00000  1       12
siesta:     -7.01096  25.44831   0.00000  1       13
siesta:     -0.02582  26.79272   0.00000  1       14
siesta:     -0.02582  29.48119   0.00000  1       15
siesta:     -4.68258  26.79272   0.00000  1       16
siesta:     -4.68258  29.48119   0.00000  1       17
siesta:     -2.35420  30.82560   0.00000  1       18
siesta:     -2.35420  33.51406   0.00000  1       19
siesta:     -7.01096  30.82560   0.00000  1       20
siesta:     -0.02582  34.85847   0.00000  1       21
siesta:     -0.02582  37.54693   0.00000  1       22
siesta:     -0.02582   2.59549   0.00000  2       23
siesta:     -0.02582   5.28395   0.00000  2       24
siesta:     -2.35420  41.57980   0.00000  2       25
siesta:      2.30256  41.57980   0.00000  2       26
siesta:      6.95932  30.82560   0.00000  2       27
siesta:      9.28770  26.79272   0.00000  2       28
siesta:      9.28770  29.48119   0.00000  2       29
siesta:     -4.68258  37.54693   0.00000  2       30
siesta:      2.30256   6.62836   0.00000  2       31
siesta:      2.30256   9.31683   0.00000  2       32
siesta:      4.63094  10.66124   0.00000  2       33
siesta:      4.63094  13.34970   0.00000  2       34
siesta:      6.95932  14.69411   0.00000  2       35
siesta:      6.95932  17.38257   0.00000  2       36
siesta:      9.28770  18.72698   0.00000  2       37
siesta:      9.28770  21.41544   0.00000  2       38
siesta:     11.61608  22.75985   0.00000  2       39
siesta:     11.61608  25.44831   0.00000  2       40
siesta:     -2.35420   6.62836   0.00000  2       41
siesta:     -2.35420   9.31683   0.00000  2       42
siesta:     -0.02582  10.66124   0.00000  2       43
siesta:     -0.02582  13.34970   0.00000  2       44
siesta:      2.30256  14.69411   0.00000  2       45
siesta:      2.30256  17.38257   0.00000  2       46
siesta:      4.63094  18.72698   0.00000  2       47
siesta:      4.63094  21.41544   0.00000  2       48
siesta:      6.95932  22.75985   0.00000  2       49
siesta:      6.95932  25.44831   0.00000  2       50
siesta:     -4.68258  10.66124   0.00000  2       51
siesta:     -4.68258  13.34970   0.00000  2       52
siesta:     -0.02582  18.72698   0.00000  2       53
siesta:     -0.02582  21.41544   0.00000  2       54
siesta:      2.30256  22.75985   0.00000  2       55
siesta:     -7.01096  14.69411   0.00000  2       56
siesta:     -7.01096  17.38257   0.00000  2       57
siesta:     -2.35420  22.75985   0.00000  2       58
siesta:     -2.35420  25.44831   0.00000  2       59
siesta:     -9.33934  18.72698   0.00000  2       60
siesta:     -9.33934  21.41544   0.00000  2       61
siesta:    -11.66772  22.75985   0.00000  2       62
siesta:    -11.66772  25.44831   0.00000  2       63
siesta:     -9.33934  26.79272   0.00000  2       64
siesta:     -9.33934  29.48119   0.00000  2       65
siesta:      4.63094  26.79272   0.00000  2       66
siesta:      4.63094  29.48119   0.00000  2       67
siesta:      2.30256  30.82560   0.00000  2       68
siesta:      2.30256  33.51406   0.00000  2       69
siesta:     -7.01096  33.51406   0.00000  2       70
siesta:     -0.02582  42.92421   0.00000  2       71
siesta:     -0.02582  45.61267   0.00000  2       72

siesta: System type = slab      

initatomlists: Number of atoms, orbitals, and projectors:     72   936  1152

siesta: ******************** Simulation parameters ****************************
siesta:
siesta: The following are some of the parameters of the simulation.
siesta: A complete list of the parameters used, including default values,
siesta: can be found in file out.fdf
siesta:
redata: Non-Collinear-spin run           =     F
redata: SpinPolarized (Up/Down) run      =     F
redata: Number of spin components        =     1
redata: Long output                      =     F
redata: Number of Atomic Species         =        2
redata: Charge density info will appear in .RHO file
redata: Write Mulliken Pop.              =     NO
redata: Mesh Cutoff                      =   200.0000  Ry
redata: Net charge of the system         =     0.0000 |e|
redata: Max. number of SCF Iter          =      500
redata: SCF convergence failure will abort job
redata: Performing Pulay mixing using    =    10 iterations
redata: Mix DM in first SCF step ?       =     F
redata: Write Pulay info on disk?        =     F
redata: Discard 1st Pulay DM after  kick =     F
redata: New DM Mixing Weight             =     0.0500
redata: New DM Occupancy tolerance       = 0.000000000001
redata: No kicks to SCF
redata: DM Mixing Weight for Kicks       =     0.5000
redata: DM Tolerance for SCF             =     0.000100
redata: Require Energy convergence for SCF =     F
redata: DM Energy tolerance for SCF      =     0.000100 eV
redata: Require Harris convergence for SCF =     F
redata: DM Harris energy tolerance for SCF =     0.000100 eV
redata: Using Saved Data (generic)   =     F
redata: Use continuation files for DM    =     T
redata: Neglect nonoverlap interactions  =     F
redata: Method of Calculation            =     Diagonalization
redata: Divide and Conquer               =     T
redata: Electronic Temperature           =     0.0019  Ry
redata: Fix the spin of the system       =     F
redata: Dynamics option                  =     Verlet MD run
redata: Initial MD time step             =        1
redata:   Final MD time step             =        1
redata: Length of MD time step           =     1.0000  fs
redata: Initial Temperature of MD run    =     0.0000  K
redata: Perform a MD quench              =     F
redata: ***********************************************************************
Total number of electrons:   310.000000
Total ionic charge:   310.000000

* ProcessorY, Blocksize:    2  24

k-point displ. along   1 input, could be:     0.50    0.00
k-point displ. along   2 input, could be:     0.50    0.00
 Kpoints in:          231 . Kpoints trimmed:          231

siesta: k-grid: Number of k-points =   231
siesta: k-grid: Cutoff (effective) =     5.000 Ang
siesta: k-grid: Supercell and displacements
siesta: k-grid:   21   0   0      0.500
siesta: k-grid:    0  21   0      0.500
siesta: k-grid:    0   0   1      0.000
Naive supercell factors:     2    2    2

superc: Internal auxiliary supercell:     2 x     2 x     2  =       8
superc: Number of atoms, orbitals, and projectors:    576   7488   9216

* Maximum dynamic memory allocated =     4 MB

siesta:                 ==============================
                            Begin MD step =      1
                        ==============================

superc: Internal auxiliary supercell:     2 x     2 x     2  =       8
superc: Number of atoms, orbitals, and projectors:    576   7488   9216

outcell: Unit cell vectors (Ang):
       12.804619    7.392750    0.000000
        0.000000   14.785500    0.000000
        0.000000    0.000000   10.000000

outcell: Cell vector modules (Ang)   :   14.785500   14.785500   10.000000
outcell: Cell angles (23,13,12) (deg):     90.0000     90.0000     60.0000
outcell: Cell volume (Ang**3)        :   1893.2269
New_DM. Step:     1
Initializing Density Matrix...

InitMesh: MESH =   120 x   120 x    90 =     1296000
InitMesh: Mesh cutoff (required, used) =   200.000   223.865 Ry

* Maximum dynamic memory allocated =   180 MB

stepf: Fermi-Dirac step function

siesta: Program's energy decomposition (eV):
siesta: Ebs     =     -6323.026503
siesta: Eions   =     21939.441643
siesta: Ena     =      4955.631173
siesta: Ekin    =      8224.476411
siesta: Enl     =       -14.882482
siesta: DEna    =        -0.000015
siesta: DUscf   =         0.000000
siesta: DUext   =         0.000000
siesta: Exc     =     -4725.804597
siesta: eta*DQ  =         0.000000
siesta: Emadel  =         0.000000
siesta: Emeta   =         0.000000
siesta: Emolmec =         0.000000
siesta: Ekinion =         0.000000
siesta: Eharris =    -13112.110481
siesta: Etot    =    -13500.021152
siesta: FreeEng =    -13500.021152

siesta: iscf   Eharris(eV)      E_KS(eV)   FreeEng(eV)   dDmax  Ef(eV)
siesta:    1   -13112.1105   -13500.0212   -13500.0212  6.0121 -6.8130
timer: Routine,Calls,Time,% = IterSCF        1    3393.857  99.70
elaps: Routine,Calls,Wall,% = IterSCF        1     425.037  99.70
siesta:    2   -16880.4928   -12530.8803   -12530.9124 24.0982 -2.8922
siesta:    3   -13002.3359   -13296.2948   -13296.3010  2.2358 -4.9478
siesta:    4   -12981.9082   -13137.2068   -13137.2502  1.0274 -4.0197
siesta:    5   -12956.7515   -13061.0988   -13061.1119  0.8596 -3.7866
siesta:    6   -12952.5562   -13037.8974   -13037.9452  0.7873 -3.7191
siesta:    7   -12948.2192   -13025.8213   -13025.8842  0.7175 -3.7499
siesta:    8   -12945.7408   -12996.0534   -12996.1235  0.5372 -3.8594
siesta:    9   -12945.6538   -12978.6801   -12978.7257  0.4719 -3.8042
siesta:   10   -12945.5061   -12966.6240   -12966.6528  0.3524 -3.8273
siesta:   11   -12944.4364   -12946.6715   -12946.7206  0.3143 -3.8130
siesta:   12   -12944.5737   -12936.6521   -12936.7330  0.2683 -3.7829
siesta:   13   -12944.4026   -12934.3288   -12934.3935  0.2164 -3.7776
siesta:   14   -12944.0163   -12936.1519   -12936.2184  0.2013 -3.7956
siesta:   15   -12943.7818   -12934.5583   -12934.6230  0.1318 -3.8210
siesta:   16   -12943.6794   -12936.3166   -12936.3970  0.0712 -3.8275
siesta:   17   -12943.6687   -12937.1628   -12937.2438  0.1356 -3.8298
siesta:   18   -12943.6225   -12939.5003   -12939.5726  0.0755 -3.8389
siesta:   19   -12943.6144   -12940.7081   -12940.7856  0.0657 -3.8415
siesta:   20   -12943.6036   -12941.5609   -12941.6325  0.0285 -3.8410
siesta:   21   -12943.5938   -12942.8111   -12942.8882  0.0205 -3.8415
siesta:   22   -12943.5975   -12943.5674   -12943.6479  0.0639 -3.8384
siesta:   23   -12943.5913   -12944.4967   -12944.5740  0.0267 -3.8357
siesta:   24   -12943.5898   -12944.8059   -12944.8859  0.0214 -3.8324
siesta:   25   -12943.5879   -12944.4184   -12944.4984  0.0104 -3.8281
siesta:   26   -12943.5878   -12944.2390   -12944.3193  0.0070 -3.8247
siesta:   27   -12943.5883   -12943.9868   -12944.0670  0.0087 -3.8250
siesta:   28   -12943.5879   -12943.8987   -12943.9784  0.0030 -3.8248
siesta:   29   -12943.5878   -12943.8278   -12943.9077  0.0017 -3.8253
siesta:   30   -12943.5878   -12943.7877   -12943.8676  0.0007 -3.8253
siesta:   31   -12943.5877   -12943.7431   -12943.8230  0.0006 -3.8254
siesta:   32   -12943.5878   -12943.6962   -12943.7762  0.0014 -3.8255
siesta:   33   -12943.5878   -12943.6442   -12943.7241  0.0009 -3.8256
siesta:   34   -12943.5877   -12943.6330   -12943.7129  0.0004 -3.8257
siesta:   35   -12943.5877   -12943.6252   -12943.7052  0.0003 -3.8257
siesta:   36   -12943.5877   -12943.6149   -12943.6949  0.0002 -3.8257
siesta:   37   -12943.5877   -12943.5999   -12943.6799  0.0001 -3.8258
siesta:   38   -12943.5877   -12943.5942   -12943.6742  0.0001 -3.8258

siesta: E_KS(eV) =           -12943.5909

siesta: E_KS - E_eggbox =    -12943.5909

siesta: Atomic forces (eV/Ang):
----------------------------------------
   Tot    0.010889   -0.209976    0.000000
----------------------------------------
   Max  682.182810
   Res  179.949410    sqrt( Sum f_i^2 / 3N )
----------------------------------------
   Max  682.182810    constrained

Stress-tensor-Voigt (kbar):     -643.57    -3271.09       -0.09        8.93        0.00        0.00
(Free)E + p*V (eV/cell)   -11401.7242
Target enthalpy (eV/cell)   -12943.6708

siesta: Stress tensor (static) (eV/Ang**3):
        -0.401680    0.005574    0.000000
         0.005574   -2.041629    0.000000
         0.000000    0.000000   -0.000053

siesta: Pressure (static):       1304.91363308  kBar

siesta: Stress tensor (total) (eV/Ang**3):
        -0.401680    0.005574    0.000000
         0.005574   -2.041629    0.000000
         0.000000    0.000000   -0.000053

siesta: Pressure (total):       1304.91363308  kBar

siesta: Temp_ion =       0.000 K

* Maximum dynamic memory allocated =   197 MB
Computing bands...

siesta: Program's energy decomposition (eV):
siesta: Ebs     =     -5062.291184
siesta: Eions   =     21939.441643
siesta: Ena     =      4955.631173
siesta: Ekin    =     11384.389013
siesta: Enl     =     -1727.915536
siesta: DEna    =      -823.056573
siesta: DUscf   =       113.230926
siesta: DUext   =         0.000000
siesta: Exc     =     -4906.428217
siesta: eta*DQ  =         0.000000
siesta: Emadel  =         0.000000
siesta: Emeta   =         0.000000
siesta: Emolmec =         0.000000
siesta: Ekinion =         0.000000
siesta: Eharris =    -12943.587671
siesta: Etot    =    -12943.590857
siesta: FreeEng =    -12943.670845

siesta: Final energy (eV):
siesta:  Band Struct. =   -5062.291184
siesta:       Kinetic =   11384.389013
siesta:       Hartree =   37195.054183
siesta:    Ext. field =       0.000000
siesta:   Exch.-corr. =   -4906.428217
siesta:  Ion-electron =  -85252.685524
siesta:       Ion-ion =   28636.079689
siesta:       Ekinion =       0.000000
siesta:         Total =  -12943.590857

siesta: Atomic forces (eV/Ang):
siesta:      1   -1.708168  112.778659    0.000000
siesta:      2   -3.218883  126.410320    0.000000
siesta:      3   24.661096    1.768863    0.000000
siesta:      4   27.228682 -652.188620    0.000000
siesta:      5   -1.025385   -1.583155    0.000000
siesta:      6  -32.644398    9.195529    0.000000
siesta:      7    0.557148  670.605181    0.000000
siesta:      8  -26.184683   -1.819427    0.000000
siesta:      9    2.017853   -1.688130    0.000000
siesta:     10   -1.963436    3.671658    0.000000
siesta:     11    1.460448    2.253787    0.000000
siesta:     12   -0.226981   -0.354268    0.000000
siesta:     13    0.646945   -0.163574    0.000000
siesta:     14    0.481737    3.086462    0.000000
siesta:     15   18.743073 -682.182810    0.000000
siesta:     16    1.455033   -1.199016    0.000000
siesta:     17   -0.844862   -3.071357    0.000000
siesta:     18  -34.602058   11.793159    0.000000
siesta:     19    0.848105 -680.038646    0.000000
siesta:     20   -2.840244    2.652310    0.000000
siesta:     21    2.318822  106.601810    0.000000
siesta:     22   -0.304324 -666.096459    0.000000
siesta:     23  -10.698470  639.665447    0.000000
siesta:     24    3.768140 -117.637571    0.000000
siesta:     25  -27.147274 -652.813517    0.000000
siesta:     26    9.691139 -544.875084    0.000000
siesta:     27    0.663739    2.251393    0.000000
siesta:     28    1.766571    3.471780    0.000000
siesta:     29   -0.819871    0.289637    0.000000
siesta:     30  -22.892363 -551.017932    0.000000
siesta:     31   15.625051  548.249893    0.000000
siesta:     32   -1.289140 -120.399543    0.000000
siesta:     33   25.203973  654.170154    0.000000
siesta:     34   26.816647   -2.279617    0.000000
siesta:     35   -2.377076   -1.363926    0.000000
siesta:     36    1.551274   -0.063833    0.000000
siesta:     37   -1.057589    0.311827    0.000000
siesta:     38    1.790059   -2.524100    0.000000
siesta:     39   -0.057239    7.946469    0.000000
siesta:     40   -0.043937   -7.950279    0.000000
siesta:     41  -23.483485  655.327377    0.000000
siesta:     42   -0.917467 -113.019164    0.000000
siesta:     43    4.635540  671.605993    0.000000
siesta:     44    4.004885 -117.900809    0.000000
siesta:     45   22.399371  561.977180    0.000000
siesta:     46   23.204644   -5.615026    0.000000
siesta:     47   -0.940620    2.564805    0.000000
siesta:     48    0.452462   -0.047094    0.000000
siesta:     49   -0.074248    0.855718    0.000000
siesta:     50   -0.768317   -1.394912    0.000000
siesta:     51  -24.189297  549.977533    0.000000
siesta:     52  -28.402134   -5.955499    0.000000
siesta:     53   14.989699  574.205158    0.000000
siesta:     54    0.359639    1.068753    0.000000
siesta:     55   -1.193838    0.462450    0.000000
siesta:     56    2.312771   -0.013349    0.000000
siesta:     57   -1.463915   -0.206172    0.000000
siesta:     58   -1.749547   -1.204110    0.000000
siesta:     59   -2.501044    1.135755    0.000000
siesta:     60    1.486561    0.197337    0.000000
siesta:     61   -1.193196   -1.560977    0.000000
siesta:     62    0.645947    5.599947    0.000000
siesta:     63    0.615482   -5.404785    0.000000
siesta:     64   -0.878539    3.177247    0.000000
siesta:     65    0.840765   -0.176629    0.000000
siesta:     66   -0.283347    0.897764    0.000000
siesta:     67   -1.947457   -3.391955    0.000000
siesta:     68   24.964103    9.623260    0.000000
siesta:     69   10.962770 -571.917639    0.000000
siesta:     70    1.490775   -2.424763    0.000000
siesta:     71   -4.110570  126.859440    0.000000
siesta:     72  -14.606660 -551.376285    0.000000
siesta: ----------------------------------------
siesta:    Tot    0.010889   -0.209976    0.000000

siesta: Stress tensor (static) (eV/Ang**3):
siesta:    -0.401680    0.005574    0.000000
siesta:     0.005574   -2.041629    0.000000
siesta:     0.000000    0.000000   -0.000053

siesta: Cell volume =       1893.226884 Ang**3

siesta: Pressure (static):
siesta:                Solid            Molecule  Units
siesta:           0.00887045          0.14307744  Ry/Bohr**3
siesta:           0.81445422         13.13688407  eV/Ang**3
siesta:        1304.91363308      21047.83619835  kBar
(Free)E+ p_basis*V_orbitals  =      -12916.078426
(Free)Eharris+ p_basis*V_orbitals  =      -12916.071930

siesta: Electric dipole (a.u.)  =    0.000000    0.000000    0.000000
siesta: Electric dipole (Debye) =    0.000000    0.000000    0.000000

* Maximum dynamic memory allocated : Node    0 =   197 MB
* Maximum dynamic memory allocated : Node    1 =    71 MB
* Maximum dynamic memory allocated : Node    2 =    71 MB
* Maximum dynamic memory allocated : Node    3 =   187 MB
* Maximum dynamic memory allocated : Node    4 =   188 MB
* Maximum dynamic memory allocated : Node    5 =    71 MB
* Maximum dynamic memory allocated : Node    6 =    72 MB
* Maximum dynamic memory allocated : Node    7 =   174 MB

* Maximum memory occured during matrixMtoO                    

timer: CPU execution times:
timer:  Routine       Calls   Time/call    Tot.time        %
timer:  siesta            1  125438.244  125438.244   100.00
timer:  Setup             1       2.690       2.690     0.00
timer:  bands             3     243.711     731.132     0.58
timer:  writewave         1       0.017       0.017     0.00
timer:  KSV_init          1       0.002       0.002     0.00
timer:  IterMD            1  124699.219  124699.219    99.41
timer:  hsparse           1       0.284       0.284     0.00
timer:  overlap           1       7.141       7.141     0.01
timer:  IterSCF          38    3277.753  124554.599    99.30
timer:  kinefsm           2       3.671       7.342     0.01
timer:  nlefsm            2      17.290      34.580     0.03
timer:  DHSCF            39      71.512    2788.959     2.22
timer:  DHSCF1            1       0.744       0.744     0.00
timer:  DHSCF2            1      30.256      30.256     0.02
timer:  REORD           314       0.005       1.566     0.00
timer:  POISON           40       0.872      34.872     0.03
timer:  DHSCF3           39      69.990    2729.591     2.18
timer:  rhoofd           39      15.020     585.765     0.47
timer:  cellXC           39       3.280     127.916     0.10
timer:  vmat             39      32.557    1269.715     1.01
timer:  MolMec            2       0.000       0.001     0.00
timer:  diagon           38    3205.541  121810.553    97.11
timer:  c-eigval       8899       6.028   53646.181    42.77
timer:  c-buildHS      8899       0.047     418.583     0.33
timer:  cdiag         17677       6.134  108432.422    86.44
timer:  cdiag1        17677       0.386    6819.325     5.44
timer:  cdiag2        17677       1.768   31246.921    24.91
timer:  cdiag3        17677       3.736   66041.584    52.65
timer:  cdiag4        17677       0.152    2695.285     2.15
timer:  c-eigvec       8778       6.328   55547.002    44.28
timer:  c-buildD       8778       1.516   13303.960    10.61
timer:  DHSCF4            1      27.613      27.613     0.02
timer:  dfscf             1      25.755      25.755     0.02
timer:  overfsm           1       0.380       0.380     0.00
timer:  optical           1       4.542       4.542     0.00
  

elaps: ELAPSED times:
elaps:  Routine       Calls   Time/call    Tot.time        %
elaps:  siesta            1   15708.804   15708.804   100.00
elaps:  Setup             1       0.337       0.337     0.00
elaps:  bands             3      30.537      91.611     0.58
elaps:  writewave         1       0.002       0.002     0.00
elaps:  KSV_init          1       0.000       0.000     0.00
elaps:  IterMD            1   15616.255   15616.255    99.41
elaps:  hsparse           1       0.036       0.036     0.00
elaps:  overlap           1       0.897       0.897     0.01
elaps:  IterSCF          38     410.478   15598.147    99.30
elaps:  kinefsm           2       0.464       0.928     0.01
elaps:  nlefsm            2       2.186       4.371     0.03
elaps:  DHSCF            39       9.047     352.840     2.25
elaps:  DHSCF1            1       0.095       0.095     0.00
elaps:  DHSCF2            1       3.787       3.787     0.02
elaps:  REORD           314       0.001       0.208     0.00
elaps:  POISON           40       0.109       4.378     0.03
elaps:  DHSCF3           39       8.766     341.862     2.18
elaps:  rhoofd           39       4.104     160.056     1.02
elaps:  cellXC           39       0.410      16.008     0.10
elaps:  vmat             39       4.077     159.019     1.01
elaps:  MolMec            2       0.000       0.000     0.00
elaps:  diagon           38     401.434   15254.507    97.11
elaps:  c-eigval       8899       0.755    6718.138    42.77
elaps:  c-buildHS      8899       0.006      56.928     0.36
elaps:  cdiag         17677       0.767   13559.773    86.32
elaps:  cdiag1        17677       0.049     859.178     5.47
elaps:  cdiag2        17677       0.221    3913.855    24.92
elaps:  cdiag3        17677       0.469    8281.949    52.72
elaps:  cdiag4        17677       0.019     327.963     2.09
elaps:  c-eigvec       8778       0.791    6944.764    44.21
elaps:  c-buildD       8778       0.191    1677.058    10.68
elaps:  DHSCF4            1       7.007       7.007     0.04
elaps:  dfscf             1       6.614       6.614     0.04
elaps:  overfsm           1       0.049       0.049     0.00
elaps:  optical           1       0.000       0.000     0.00
  
>> End of run:  27-APR-2016   2:58:26
