Siesta Version:                                        siesta-3.2-pl-3
Architecture  : x86_64-unknown-linux-gnu--unknown
Compiler flags: mpiifort -g -O2 -fPIC -xSSE4.1 -fp-model source -shared-intel 
PARALLEL version

* Running on   12 nodes in parallel
>> Start of run:   6-MAY-2016  14:23:26

                           ***********************       
                           *  WELCOME TO SIESTA  *       
                           ***********************       

reinit: Reading from standard input
************************** Dump of input data file ****************************
#(1) General system descriptors
SystemName            GRP_doping    # Descriptive name of the system
SystemLabel           GRP_doping    # Short name for naming files
%include STRUCT.fdf
%include KPT.fdf
%include BASIS.fdf
#%include TS.fdf # for transiesta calculation
#(4) DFT, Grid, SCF
XC.functional         GGA           # LDA or GGA (default = LDA)
XC.authors            PBE           # CA (Ceperley-Aldr) = PZ
                                    #    (Perdew-Zunger) - LDA - Default
                                    # PW92 (Perdew-Wang-92) - LDA
                                    # PBE (Perdew-Burke-Ernzerhof) - GGA
MeshCutoff            200.000000    Ry      # Default: 50.0 Ry ~ 0.444 Bohr
                                    #         100.0 Ry ~ 0.314 Bohr
MaxSCFIterations      500           # Default: 50
DM.MixingWeight       0.05          # Default: 0.25
DM.NumberPulay        10            # Default: 0
DM.PulayOnFile        F             # SystemLabel.P1, SystemLabel.P2
DM.Tolerance          1.d-4         # Default: 1.d-4
DM.UseSaveDM          .true.        # because of the bug
SCFMustConverge       .true.
NeglNonOverlapInt     F             # Default: F
#(5) Eigenvalue problem: order-N or diagonalization
SolutionMethod        Diagon        # or Transiesta
ElectronicTemperature 300.0 K       # Default: 300.0 K
#(6) Molecular dynamics and relaxations
#MD.TypeOfRun          CG            # Type of dynamics:
#MD.VariableCell       F
#MD.NumCGsteps         0           # 0 for single-point / 100 for gopt
#MD.MaxCGDispl         0.2 Bohr      # Default: 0.2 Bohr
#MD.MaxForceTol        0.02 eV/Ang   # Default: 0.04 eV/Ang
#MD.MaxStressTol       1.0 GPa       # Default: 1.0 GPa
# Geometry Constraints
#%block GeometryConstraints
#	position from 1 to 44
#%endblock GeometryConstraints
BandLinesScale   pi/a
%block BandLines
 1   0.00000000  0.00000000  0.00000000
50   0.00000000  0.07809418  0.00000000
50   0.04509075  0.07809242  0.00000000
20   0.00000000  0.00000000  0.00000000
%endblock BandLines
************************** End of input data file *****************************

reinit: -----------------------------------------------------------------------
reinit: System Name: GRP_doping
reinit: -----------------------------------------------------------------------
reinit: System Label: GRP_doping                                                  
reinit: -----------------------------------------------------------------------

initatom: Reading input for the pseudopotentials and atomic orbitals ----------
 Species number:            1  Label: N Atomic number:           7
 Species number:            2  Label: C Atomic number:           6
Ground state valence configuration:   2s02  2p03
Reading pseudopotential information in formatted form from N.psf

Valence configuration for pseudopotential generation:
2s( 2.00) rc: 1.48
2p( 3.00) rc: 1.48
3d( 0.00) rc: 1.48
4f( 0.00) rc: 1.48
Ground state valence configuration:   2s02  2p02
Reading pseudopotential information in formatted form from C.psf

Valence configuration for pseudopotential generation:
2s( 2.00) rc: 1.54
2p( 2.00) rc: 1.54
3d( 0.00) rc: 1.54
4f( 0.00) rc: 1.54
For N, standard SIESTA heuristics set lmxkb to 3
 (one more than the basis l, including polarization orbitals).
Use PS.lmax or PS.KBprojectors blocks to override.
For C, standard SIESTA heuristics set lmxkb to 3
 (one more than the basis l, including polarization orbitals).
Use PS.lmax or PS.KBprojectors blocks to override.

<basis_specs>
===============================================================================
N                    Z=   7    Mass=  14.010        Charge= 0.17977+309
Lmxo=1 Lmxkb= 3    BasisType=split      Semic=F
L=0  Nsemic=0  Cnfigmx=2
          n=1  nzeta=2  polorb=0
            splnorm:   0.15000    
               vcte:    0.0000    
               rinn:    0.0000    
                rcs:    0.0000      0.0000    
            lambdas:    1.0000      1.0000    
L=1  Nsemic=0  Cnfigmx=2
          n=1  nzeta=2  polorb=1
            splnorm:   0.15000    
               vcte:    0.0000    
               rinn:    0.0000    
                rcs:    0.0000      0.0000    
            lambdas:    1.0000      1.0000    
-------------------------------------------------------------------------------
L=0  Nkbl=1  erefs: 0.17977+309
L=1  Nkbl=1  erefs: 0.17977+309
L=2  Nkbl=1  erefs: 0.17977+309
L=3  Nkbl=1  erefs: 0.17977+309
===============================================================================
</basis_specs>

atom: Called for N                     (Z =   7)

read_vps: Pseudopotential generation method:
read_vps: ATM3      Troullier-Martins                       
Total valence charge:    5.00000

read_vps: Pseudopotential includes a core correction:
read_vps: Pseudo-core for xc-correction

xc_check: Exchange-correlation functional:
xc_check: GGA Perdew, Burke & Ernzerhof 1996
V l=0 = -2*Zval/r beyond r=  1.4606
V l=1 = -2*Zval/r beyond r=  1.4606
V l=2 = -2*Zval/r beyond r=  1.4606
V l=3 = -2*Zval/r beyond r=  1.4606
All V_l potentials equal beyond r=  1.4606
This should be close to max(r_c) in ps generation
All pots = -2*Zval/r beyond r=  1.4606

VLOCAL1: 99.0% of the norm of Vloc inside     20.347 Ry
VLOCAL1: 99.9% of the norm of Vloc inside     46.372 Ry
atom: Maximum radius for 4*pi*r*r*local-pseudopot. charge    1.76189
atom: Maximum radius for r*vlocal+2*Zval:    1.53550
GHOST: No ghost state for L =  0
GHOST: No ghost state for L =  1
GHOST: No ghost state for L =  2
GHOST: No ghost state for L =  3

KBgen: Kleinman-Bylander projectors: 
   l= 0   rc=  1.634559   el= -1.363963   Ekb=  5.296955   kbcos=  0.335621
   l= 1   rc=  1.614250   el= -0.521451   Ekb= -5.259161   kbcos= -0.433408
   l= 2   rc=  1.718383   el=  0.001991   Ekb= -1.271464   kbcos= -0.007566
   l= 3   rc=  1.761893   el=  0.003093   Ekb= -0.494769   kbcos= -0.001015

KBgen: Total number of  Kleinman-Bylander projectors:   16
atom: -------------------------------------------------------------------------

atom: SANKEY-TYPE ORBITALS:
atom: Selected multiple-zeta basis: split     

SPLIT: Orbitals with angular momentum L= 0

SPLIT: Basis orbitals for state 2s

SPLIT: PAO cut-off radius determined from an
SPLIT: energy shift=  0.007350 Ry

   izeta = 1
                 lambda =    1.000000
                     rc =    4.071465
                 energy =   -1.356470
                kinetic =    1.176977
    potential(screened) =   -2.533447
       potential(ionic) =   -8.057990

   izeta = 2
                 rmatch =    2.905100
              splitnorm =    0.150000
                 energy =   -1.158343
                kinetic =    1.813009
    potential(screened) =   -2.971352
       potential(ionic) =   -8.901931

SPLIT: Orbitals with angular momentum L= 1

SPLIT: Basis orbitals for state 2p

SPLIT: PAO cut-off radius determined from an
SPLIT: energy shift=  0.007350 Ry

   izeta = 1
                 lambda =    1.000000
                     rc =    4.972977
                 energy =   -0.513884
                kinetic =    3.441732
    potential(screened) =   -3.955616
       potential(ionic) =   -9.287901

   izeta = 2
                 rmatch =    3.054066
              splitnorm =    0.150000
                 energy =   -0.318226
                kinetic =    5.125348
    potential(screened) =   -5.443573
       potential(ionic) =  -11.380999

POLgen: Perturbative polarization orbital with L=  2

POLgen: Polarization orbital for state 2p

   izeta = 1
                     rc =    4.972977
                 energy =    1.607437
                kinetic =    3.268125
    potential(screened) =   -1.660688
       potential(ionic) =   -5.973652
atom: Total number of Sankey-type orbitals: 13

atm_pop: Valence configuration (for local Pseudopot. screening):
 2s( 2.00)                                                            
 2p( 3.00)                                                            
Vna: chval, zval:    5.00000   5.00000

Vna:  Cut-off radius for the neutral-atom potential:   4.972977
comcore: Pseudo-core radius Rcore=  1.554824

atom: _________________________________________________________________________

<basis_specs>
===============================================================================
C                    Z=   6    Mass=  12.010        Charge= 0.17977+309
Lmxo=1 Lmxkb= 3    BasisType=split      Semic=F
L=0  Nsemic=0  Cnfigmx=2
          n=1  nzeta=2  polorb=0
            splnorm:   0.15000    
               vcte:    0.0000    
               rinn:    0.0000    
                rcs:    0.0000      0.0000    
            lambdas:    1.0000      1.0000    
L=1  Nsemic=0  Cnfigmx=2
          n=1  nzeta=2  polorb=1
            splnorm:   0.15000    
               vcte:    0.0000    
               rinn:    0.0000    
                rcs:    0.0000      0.0000    
            lambdas:    1.0000      1.0000    
-------------------------------------------------------------------------------
L=0  Nkbl=1  erefs: 0.17977+309
L=1  Nkbl=1  erefs: 0.17977+309
L=2  Nkbl=1  erefs: 0.17977+309
L=3  Nkbl=1  erefs: 0.17977+309
===============================================================================
</basis_specs>

atom: Called for C                     (Z =   6)

read_vps: Pseudopotential generation method:
read_vps: ATM3      Troullier-Martins                       
Total valence charge:    4.00000

read_vps: Pseudopotential includes a core correction:
read_vps: Pseudo-core for xc-correction

xc_check: Exchange-correlation functional:
xc_check: GGA Perdew, Burke & Ernzerhof 1996
V l=0 = -2*Zval/r beyond r=  1.5227
V l=1 = -2*Zval/r beyond r=  1.5227
V l=2 = -2*Zval/r beyond r=  1.5227
V l=3 = -2*Zval/r beyond r=  1.5038
All V_l potentials equal beyond r=  1.5227
This should be close to max(r_c) in ps generation
All pots = -2*Zval/r beyond r=  1.5227

VLOCAL1: 99.0% of the norm of Vloc inside     18.722 Ry
VLOCAL1: 99.9% of the norm of Vloc inside     42.668 Ry
atom: Maximum radius for 4*pi*r*r*local-pseudopot. charge    1.83678
atom: Maximum radius for r*vlocal+2*Zval:    1.58088
GHOST: No ghost state for L =  0
GHOST: No ghost state for L =  1
GHOST: No ghost state for L =  2
GHOST: No ghost state for L =  3

KBgen: Kleinman-Bylander projectors: 
   l= 0   rc=  1.704034   el= -1.009801   Ekb=  5.335044   kbcos=  0.316824
   l= 1   rc=  1.704034   el= -0.388707   Ekb= -3.785862   kbcos= -0.366464
   l= 2   rc=  1.791422   el=  0.001971   Ekb= -0.970471   kbcos= -0.009212
   l= 3   rc=  1.859892   el=  0.003065   Ekb= -0.399525   kbcos= -0.001223

KBgen: Total number of  Kleinman-Bylander projectors:   16
atom: -------------------------------------------------------------------------

atom: SANKEY-TYPE ORBITALS:
atom: Selected multiple-zeta basis: split     

SPLIT: Orbitals with angular momentum L= 0

SPLIT: Basis orbitals for state 2s

SPLIT: PAO cut-off radius determined from an
SPLIT: energy shift=  0.007350 Ry

   izeta = 1
                 lambda =    1.000000
                     rc =    4.632753
                 energy =   -1.002270
                kinetic =    0.855760
    potential(screened) =   -1.858031
       potential(ionic) =   -5.417575

   izeta = 2
                 rmatch =    3.431921
              splitnorm =    0.150000
                 energy =   -0.867111
                kinetic =    1.300804
    potential(screened) =   -2.167915
       potential(ionic) =   -5.962684

SPLIT: Orbitals with angular momentum L= 1

SPLIT: Basis orbitals for state 2p

SPLIT: PAO cut-off radius determined from an
SPLIT: energy shift=  0.007350 Ry

   izeta = 1
                 lambda =    1.000000
                     rc =    5.658549
                 energy =   -0.381140
                kinetic =    2.399701
    potential(screened) =   -2.780841
       potential(ionic) =   -6.206085

   izeta = 2
                 rmatch =    3.653288
              splitnorm =    0.150000
                 energy =   -0.249149
                kinetic =    3.542762
    potential(screened) =   -3.791911
       potential(ionic) =   -7.581078

POLgen: Perturbative polarization orbital with L=  2

POLgen: Polarization orbital for state 2p

   izeta = 1
                     rc =    5.658549
                 energy =    1.109913
                kinetic =    2.304789
    potential(screened) =   -1.194876
       potential(ionic) =   -4.013592
atom: Total number of Sankey-type orbitals: 13

atm_pop: Valence configuration (for local Pseudopot. screening):
 2s( 2.00)                                                            
 2p( 2.00)                                                            
Vna: chval, zval:    4.00000   4.00000

Vna:  Cut-off radius for the neutral-atom potential:   5.658549
comcore: Pseudo-core radius Rcore=  1.791422

atom: _________________________________________________________________________

prinput: Basis input ----------------------------------------------------------

PAO.BasisType split     

%block ChemicalSpeciesLabel
    1    7 N                       # Species index, atomic number, species label
    2    6 C                       # Species index, atomic number, species label
%endblock ChemicalSpeciesLabel

%block PAO.Basis                 # Define Basis set
N                     2                    # Species label, number of l-shells
 n=2   0   2                         # n, l, Nzeta 
   4.071      2.905   
   1.000      1.000   
 n=2   1   2 P   1                   # n, l, Nzeta, Polarization, NzetaPol
   4.973      3.054   
   1.000      1.000   
C                     2                    # Species label, number of l-shells
 n=2   0   2                         # n, l, Nzeta 
   4.633      3.432   
   1.000      1.000   
 n=2   1   2 P   1                   # n, l, Nzeta, Polarization, NzetaPol
   5.659      3.653   
   1.000      1.000   
%endblock PAO.Basis

prinput: ----------------------------------------------------------------------

coor:   Atomic-coordinates input format  =     Fractional

siesta: Atomic coordinates (Bohr) and species
siesta:      9.28770  21.41544   0.00000  1        1
siesta:     -0.02582  10.66124   0.00000  1        2
siesta:      2.30256  17.38257   0.00000  1        3
siesta:     -4.68258  21.41544   0.00000  1        4
siesta:     -2.35420  22.75985   0.00000  1        5
siesta:     -9.33934  21.41544   0.00000  1        6
siesta:     -7.01096  25.44831   0.00000  1        7
siesta:    -11.66772  22.75985   0.00000  1        8
siesta:      4.63094  26.79272   0.00000  1        9
siesta:     -0.02582  26.79272   0.00000  1       10
siesta:     -0.02582  29.48119   0.00000  1       11
siesta:     -4.68258  26.79272   0.00000  1       12
siesta:     -4.68258  29.48119   0.00000  1       13
siesta:      2.30256  33.51406   0.00000  1       14
siesta:     -0.02582  34.85847   0.00000  1       15
siesta:     -0.02582   2.59549   0.00000  2       16
siesta:     -0.02582   5.28395   0.00000  2       17
siesta:     -2.35420  38.89134   0.00000  2       18
siesta:     -2.35420  41.57980   0.00000  2       19
siesta:      2.30256  38.89134   0.00000  2       20
siesta:      2.30256  41.57980   0.00000  2       21
siesta:      4.63094  34.85847   0.00000  2       22
siesta:      4.63094  37.54693   0.00000  2       23
siesta:      6.95932  30.82560   0.00000  2       24
siesta:      6.95932  33.51406   0.00000  2       25
siesta:      9.28770  26.79272   0.00000  2       26
siesta:      9.28770  29.48119   0.00000  2       27
siesta:     -4.68258  34.85847   0.00000  2       28
siesta:     -4.68258  37.54693   0.00000  2       29
siesta:      2.30256   6.62836   0.00000  2       30
siesta:      2.30256   9.31683   0.00000  2       31
siesta:      4.63094  10.66124   0.00000  2       32
siesta:      4.63094  13.34970   0.00000  2       33
siesta:      6.95932  14.69411   0.00000  2       34
siesta:      6.95932  17.38257   0.00000  2       35
siesta:      9.28770  18.72698   0.00000  2       36
siesta:     11.61608  22.75985   0.00000  2       37
siesta:     11.61608  25.44831   0.00000  2       38
siesta:     -2.35420   6.62836   0.00000  2       39
siesta:     -2.35420   9.31683   0.00000  2       40
siesta:     -0.02582  13.34970   0.00000  2       41
siesta:      2.30256  14.69411   0.00000  2       42
siesta:      4.63094  18.72698   0.00000  2       43
siesta:      4.63094  21.41544   0.00000  2       44
siesta:      6.95932  22.75985   0.00000  2       45
siesta:      6.95932  25.44831   0.00000  2       46
siesta:     -4.68258  10.66124   0.00000  2       47
siesta:     -4.68258  13.34970   0.00000  2       48
siesta:     -2.35420  14.69411   0.00000  2       49
siesta:     -2.35420  17.38257   0.00000  2       50
siesta:     -0.02582  18.72698   0.00000  2       51
siesta:     -0.02582  21.41544   0.00000  2       52
siesta:      2.30256  22.75985   0.00000  2       53
siesta:      2.30256  25.44831   0.00000  2       54
siesta:     -7.01096  14.69411   0.00000  2       55
siesta:     -7.01096  17.38257   0.00000  2       56
siesta:     -4.68258  18.72698   0.00000  2       57
siesta:     -2.35420  25.44831   0.00000  2       58
siesta:     -9.33934  18.72698   0.00000  2       59
siesta:     -7.01096  22.75985   0.00000  2       60
siesta:    -11.66772  25.44831   0.00000  2       61
siesta:     -9.33934  26.79272   0.00000  2       62
siesta:     -9.33934  29.48119   0.00000  2       63
siesta:      4.63094  29.48119   0.00000  2       64
siesta:      2.30256  30.82560   0.00000  2       65
siesta:     -2.35420  30.82560   0.00000  2       66
siesta:     -2.35420  33.51406   0.00000  2       67
siesta:     -7.01096  30.82560   0.00000  2       68
siesta:     -7.01096  33.51406   0.00000  2       69
siesta:     -0.02582  37.54693   0.00000  2       70
siesta:     -0.02582  42.92421   0.00000  2       71
siesta:     -0.02582  45.61267   0.00000  2       72

siesta: System type = slab      

initatomlists: Number of atoms, orbitals, and projectors:     72   936  1152

siesta: ******************** Simulation parameters ****************************
siesta:
siesta: The following are some of the parameters of the simulation.
siesta: A complete list of the parameters used, including default values,
siesta: can be found in file out.fdf
siesta:
redata: Non-Collinear-spin run           =     F
redata: SpinPolarized (Up/Down) run      =     F
redata: Number of spin components        =     1
redata: Long output                      =     F
redata: Number of Atomic Species         =        2
redata: Charge density info will appear in .RHO file
redata: Write Mulliken Pop.              =     NO
redata: Mesh Cutoff                      =   200.0000  Ry
redata: Net charge of the system         =     0.0000 |e|
redata: Max. number of SCF Iter          =      500
redata: SCF convergence failure will abort job
redata: Performing Pulay mixing using    =    10 iterations
redata: Mix DM in first SCF step ?       =     F
redata: Write Pulay info on disk?        =     F
redata: Discard 1st Pulay DM after  kick =     F
redata: New DM Mixing Weight             =     0.0500
redata: New DM Occupancy tolerance       = 0.000000000001
redata: No kicks to SCF
redata: DM Mixing Weight for Kicks       =     0.5000
redata: DM Tolerance for SCF             =     0.000100
redata: Require Energy convergence for SCF =     F
redata: DM Energy tolerance for SCF      =     0.000100 eV
redata: Require Harris convergence for SCF =     F
redata: DM Harris energy tolerance for SCF =     0.000100 eV
redata: Using Saved Data (generic)   =     F
redata: Use continuation files for DM    =     T
redata: Neglect nonoverlap interactions  =     F
redata: Method of Calculation            =     Diagonalization
redata: Divide and Conquer               =     T
redata: Electronic Temperature           =     0.0019  Ry
redata: Fix the spin of the system       =     F
redata: Dynamics option                  =     Verlet MD run
redata: Initial MD time step             =        1
redata:   Final MD time step             =        1
redata: Length of MD time step           =     1.0000  fs
redata: Initial Temperature of MD run    =     0.0000  K
redata: Perform a MD quench              =     F
redata: ***********************************************************************
Total number of electrons:   303.000000
Total ionic charge:   303.000000

* ProcessorY, Blocksize:    3  24

k-point displ. along   1 input, could be:     0.50    0.00
k-point displ. along   2 input, could be:     0.50    0.00
 Kpoints in:          231 . Kpoints trimmed:          231

siesta: k-grid: Number of k-points =   231
siesta: k-grid: Cutoff (effective) =     5.000 Ang
siesta: k-grid: Supercell and displacements
siesta: k-grid:   21   0   0      0.500
siesta: k-grid:    0  21   0      0.500
siesta: k-grid:    0   0   1      0.000
Naive supercell factors:     2    2    2

superc: Internal auxiliary supercell:     2 x     2 x     2  =       8
superc: Number of atoms, orbitals, and projectors:    576   7488   9216

* Maximum dynamic memory allocated =     4 MB

siesta:                 ==============================
                            Begin MD step =      1
                        ==============================

superc: Internal auxiliary supercell:     2 x     2 x     2  =       8
superc: Number of atoms, orbitals, and projectors:    576   7488   9216

outcell: Unit cell vectors (Ang):
       12.804619    7.392750    0.000000
        0.000000   14.785500    0.000000
        0.000000    0.000000   10.000000

outcell: Cell vector modules (Ang)   :   14.785500   14.785500   10.000000
outcell: Cell angles (23,13,12) (deg):     90.0000     90.0000     60.0000
outcell: Cell volume (Ang**3)        :   1893.2269
New_DM. Step:     1
Initializing Density Matrix...

InitMesh: MESH =   120 x   120 x    90 =     1296000
InitMesh: Mesh cutoff (required, used) =   200.000   223.865 Ry

* Maximum dynamic memory allocated =   135 MB

stepf: Fermi-Dirac step function

siesta: Program's energy decomposition (eV):
siesta: Ebs     =     -6174.798173
siesta: Eions   =     20814.213734
siesta: Ena     =      4877.810979
siesta: Ekin    =      7637.016727
siesta: Enl     =       195.938724
siesta: DEna    =        -0.000015
siesta: DUscf   =         0.000000
siesta: DUext   =         0.000000
siesta: Exc     =     -4544.890718
siesta: eta*DQ  =         0.000000
siesta: Emadel  =         0.000000
siesta: Emeta   =         0.000000
siesta: Emolmec =         0.000000
siesta: Ekinion =         0.000000
siesta: Eharris =    -12294.977920
siesta: Etot    =    -12648.338036
siesta: FreeEng =    -12648.338036

siesta: iscf   Eharris(eV)      E_KS(eV)   FreeEng(eV)   dDmax  Ef(eV)
siesta:    1   -12294.9779   -12648.3380   -12648.3380  5.9140 -6.9651
timer: Routine,Calls,Time,% = IterSCF        1    3008.239  99.60
elaps: Routine,Calls,Wall,% = IterSCF        1     251.283  99.60
siesta:    2   -17307.4117   -11608.1126   -11608.1718 20.8563 -4.6228
siesta:    3   -12231.5349   -12441.0402   -12441.0770  2.7528 -4.7259
siesta:    4   -12204.6380   -12297.3366   -12297.3692  1.4612 -4.1114
siesta:    5   -12177.9148   -12280.1570   -12280.2420  1.1253 -4.1212
siesta:    6   -12142.9237   -12204.3570   -12204.4013  0.9547 -3.8426
siesta:    7   -12139.3609   -12191.7463   -12191.7725  0.9076 -3.8559
siesta:    8   -12136.6752   -12184.4367   -12184.4960  0.8509 -3.8888
siesta:    9   -12133.0116   -12166.4549   -12166.5057  0.6760 -3.9138
siesta:   10   -12132.2208   -12143.0534   -12143.1012  0.4616 -3.8895
siesta:   11   -12132.3212   -12130.0503   -12130.1086  0.4338 -3.8927
siesta:   12   -12132.6227   -12122.9069   -12122.9585  0.3426 -3.8829
siesta:   13   -12132.2182   -12118.3483   -12118.4093  0.2045 -3.9068
siesta:   14   -12131.7184   -12117.6902   -12117.7430  0.1817 -3.8948
siesta:   15   -12131.5530   -12117.1322   -12117.1722  0.1636 -3.8897
siesta:   16   -12131.2999   -12119.5766   -12119.6205  0.1308 -3.9029
siesta:   17   -12131.1660   -12121.6286   -12121.6811  0.1015 -3.9112
siesta:   18   -12131.1318   -12122.9310   -12122.9801  0.0793 -3.9160
siesta:   19   -12131.1100   -12126.8836   -12126.9382  0.0438 -3.9168
siesta:   20   -12131.1141   -12130.0038   -12130.0584  0.0320 -3.9261
siesta:   21   -12131.0994   -12131.2524   -12131.3067  0.0211 -3.9263
siesta:   22   -12131.0910   -12132.2406   -12132.2947  0.0127 -3.9243
siesta:   23   -12131.0876   -12131.9705   -12132.0239  0.0117 -3.9233
siesta:   24   -12131.0867   -12131.5975   -12131.6509  0.0091 -3.9207
siesta:   25   -12131.0863   -12131.5151   -12131.5682  0.0060 -3.9169
siesta:   26   -12131.0862   -12131.4439   -12131.4971  0.0056 -3.9157
siesta:   27   -12131.0862   -12131.3950   -12131.4481  0.0042 -3.9151
siesta:   28   -12131.0862   -12131.2691   -12131.3222  0.0030 -3.9149
siesta:   29   -12131.0862   -12131.2135   -12131.2665  0.0019 -3.9152
siesta:   30   -12131.0862   -12131.1632   -12131.2161  0.0006 -3.9155
siesta:   31   -12131.0862   -12131.1478   -12131.2008  0.0003 -3.9156
siesta:   32   -12131.0861   -12131.1220   -12131.1750  0.0002 -3.9156
siesta:   33   -12131.0861   -12131.1103   -12131.1633  0.0002 -3.9157
siesta:   34   -12131.0861   -12131.1050   -12131.1580  0.0002 -3.9157
siesta:   35   -12131.0861   -12131.1018   -12131.1548  0.0002 -3.9157
siesta:   36   -12131.0861   -12131.0970   -12131.1500  0.0001 -3.9157
siesta:   37   -12131.0862   -12131.0944   -12131.1475  0.0001 -3.9157

siesta: E_KS(eV) =           -12131.0914

siesta: E_KS - E_eggbox =    -12131.0914

siesta: Atomic forces (eV/Ang):
----------------------------------------
   Tot   -0.449944   -0.146342    0.000000
----------------------------------------
   Max  681.142323
   Res  172.960739    sqrt( Sum f_i^2 / 3N )
----------------------------------------
   Max  681.142323    constrained

Stress-tensor-Voigt (kbar):     -667.01    -3057.53       -0.09       -3.33        0.00        0.00
(Free)E + p*V (eV/cell)   -10664.0757
Target enthalpy (eV/cell)   -12131.1444

siesta: Stress tensor (static) (eV/Ang**3):
        -0.416314   -0.002078    0.000000
        -0.002079   -1.908342    0.000000
         0.000000    0.000000   -0.000056

siesta: Pressure (static):       1241.54621020  kBar

siesta: Stress tensor (total) (eV/Ang**3):
        -0.416314   -0.002078    0.000000
        -0.002079   -1.908342    0.000000
         0.000000    0.000000   -0.000056

siesta: Pressure (total):       1241.54621020  kBar

siesta: Temp_ion =       0.000 K

* Maximum dynamic memory allocated =   147 MB
Computing bands...

siesta: Program's energy decomposition (eV):
siesta: Ebs     =     -4946.987050
siesta: Eions   =     20814.213734
siesta: Ena     =      4877.810979
siesta: Ekin    =     10696.930564
siesta: Enl     =     -1497.009882
siesta: DEna    =      -786.774721
siesta: DUscf   =       108.357459
siesta: DUext   =         0.000000
siesta: Exc     =     -4716.192080
siesta: eta*DQ  =         0.000000
siesta: Emadel  =         0.000000
siesta: Emeta   =         0.000000
siesta: Emolmec =         0.000000
siesta: Ekinion =         0.000000
siesta: Eharris =    -12131.086152
siesta: Etot    =    -12131.091414
siesta: FreeEng =    -12131.144441

siesta: Final energy (eV):
siesta:  Band Struct. =   -4946.987050
siesta:       Kinetic =   10696.930564
siesta:       Hartree =   34483.405087
siesta:    Ext. field =       0.000000
siesta:   Exch.-corr. =   -4716.192080
siesta:  Ion-electron =  -79251.073729
siesta:       Ion-ion =   26655.838743
siesta:       Ekinion =       0.000000
siesta:         Total =  -12131.091414

siesta: Atomic forces (eV/Ang):
siesta:      1    0.708904   -1.474988    0.000000
siesta:      2   -3.126980  664.627351    0.000000
siesta:      3   26.014266   -4.808902    0.000000
siesta:      4   -1.195773    0.464923    0.000000
siesta:      5   -0.311736    0.503983    0.000000
siesta:      6    2.270216   -1.363071    0.000000
siesta:      7   -0.014415   -2.263096    0.000000
siesta:      8   -0.580714    3.797336    0.000000
siesta:      9   -1.036594    0.710078    0.000000
siesta:     10   -0.106936    1.573838    0.000000
siesta:     11   -1.045614 -681.105576    0.000000
siesta:     12    2.255968   -1.113971    0.000000
siesta:     13    0.442720   -2.578003    0.000000
siesta:     14   16.744297 -681.142323    0.000000
siesta:     15   -2.047072  112.867641    0.000000
siesta:     16    2.974345  645.091644    0.000000
siesta:     17   -4.094706 -115.745205    0.000000
siesta:     18    0.103143  126.334110    0.000000
siesta:     19  -12.195831 -550.523550    0.000000
siesta:     20   -0.377176  127.101028    0.000000
siesta:     21   14.252721 -550.944516    0.000000
siesta:     22   26.452502    9.446392    0.000000
siesta:     23   30.378566 -549.836745    0.000000
siesta:     24    1.752565   -0.130043    0.000000
siesta:     25   -3.023342    1.941173    0.000000
siesta:     26    1.420226    2.421918    0.000000
siesta:     27   -1.403735    0.167836    0.000000
siesta:     28  -26.146177    6.960795    0.000000
siesta:     29  -31.431817 -550.473509    0.000000
siesta:     30   10.151933  651.771197    0.000000
siesta:     31    1.075100 -115.521069    0.000000
siesta:     32   32.726038  551.336987    0.000000
siesta:     33   26.890302   -5.712958    0.000000
siesta:     34   -2.890731   -1.755262    0.000000
siesta:     35    0.971470    0.178103    0.000000
siesta:     36    0.237286    1.245227    0.000000
siesta:     37   -1.155134    4.729613    0.000000
siesta:     38   -0.202031   -6.639850    0.000000
siesta:     39   -2.662061  544.998788    0.000000
siesta:     40   -0.162361 -125.777277    0.000000
siesta:     41   -0.309088 -122.877433    0.000000
siesta:     42   15.278038  557.398623    0.000000
siesta:     43   -0.969257    2.838068    0.000000
siesta:     44    0.605323   -1.036930    0.000000
siesta:     45    0.095541    0.487835    0.000000
siesta:     46   -0.157450   -0.749371    0.000000
siesta:     47  -33.315881  551.785956    0.000000
siesta:     48  -26.449252   -6.388090    0.000000
siesta:     49  -20.879885  560.297009    0.000000
siesta:     50  -23.748969   -3.970535    0.000000
siesta:     51  -11.650012  576.227179    0.000000
siesta:     52    0.031599    0.222287    0.000000
siesta:     53   -1.855550    0.724515    0.000000
siesta:     54    2.278512    0.057476    0.000000
siesta:     55    2.485850   -1.184427    0.000000
siesta:     56   -1.389473    0.473217    0.000000
siesta:     57    2.658045    2.434659    0.000000
siesta:     58   -3.112858    0.556351    0.000000
siesta:     59   -0.763528    1.781292    0.000000
siesta:     60    0.387870    0.846502    0.000000
siesta:     61   -0.009375   -5.311753    0.000000
siesta:     62   -0.607369    2.667129    0.000000
siesta:     63    1.057959   -1.122140    0.000000
siesta:     64   -0.613813   -3.519895    0.000000
siesta:     65   26.550354   10.118729    0.000000
siesta:     66  -29.200440    9.712075    0.000000
siesta:     67  -19.915154 -561.685894    0.000000
siesta:     68   -1.935730    1.040661    0.000000
siesta:     69    2.930732    0.185707    0.000000
siesta:     70    6.590955 -653.818544    0.000000
siesta:     71    1.546662  123.478027    0.000000
siesta:     72   11.324070 -551.174679    0.000000
siesta: ----------------------------------------
siesta:    Tot   -0.449944   -0.146342    0.000000

siesta: Stress tensor (static) (eV/Ang**3):
siesta:    -0.416314   -0.002078    0.000000
siesta:    -0.002079   -1.908342    0.000000
siesta:     0.000000    0.000000   -0.000056

siesta: Cell volume =       1893.226884 Ang**3

siesta: Pressure (static):
siesta:                Solid            Molecule  Units
siesta:           0.00843969          0.13617682  Ry/Bohr**3
siesta:           0.77490382         12.50329228  eV/Ang**3
siesta:        1241.54621020      20032.69927390  kBar
(Free)E+ p_basis*V_orbitals  =      -12102.551277
(Free)Eharris+ p_basis*V_orbitals  =      -12102.542993

siesta: Electric dipole (a.u.)  =    0.000000    0.000000    0.000000
siesta: Electric dipole (Debye) =    0.000000    0.000000    0.000000

* Maximum dynamic memory allocated : Node    0 =   143 MB
* Maximum dynamic memory allocated : Node    1 =    58 MB
* Maximum dynamic memory allocated : Node    2 =    59 MB
* Maximum dynamic memory allocated : Node    3 =   132 MB
* Maximum dynamic memory allocated : Node    4 =   147 MB
* Maximum dynamic memory allocated : Node    5 =    54 MB
* Maximum dynamic memory allocated : Node    6 =    55 MB
* Maximum dynamic memory allocated : Node    7 =   139 MB
* Maximum dynamic memory allocated : Node    8 =   127 MB
* Maximum dynamic memory allocated : Node    9 =    52 MB
* Maximum dynamic memory allocated : Node   10 =    54 MB
* Maximum dynamic memory allocated : Node   11 =   123 MB

* Maximum memory occured during matrixMtoO                    

timer: CPU execution times:
timer:  Routine       Calls   Time/call    Tot.time        %
timer:  siesta            1  108622.698  108622.698   100.00
timer:  Setup             1       3.332       3.332     0.00
timer:  bands             3     226.233     678.698     0.62
timer:  writewave         1       0.024       0.024     0.00
timer:  KSV_init          1       0.004       0.004     0.00
timer:  IterMD            1  107933.713  107933.713    99.37
timer:  hsparse           1       0.165       0.165     0.00
timer:  overlap           1       7.156       7.156     0.01
timer:  IterSCF          37    2913.746  107808.607    99.25
timer:  kinefsm           2       3.626       7.252     0.01
timer:  nlefsm            2      18.523      37.046     0.03
timer:  DHSCF            38      62.924    2391.115     2.20
timer:  DHSCF1            1       0.899       0.899     0.00
timer:  DHSCF2            1      24.873      24.873     0.02
timer:  REORD           306       0.002       0.716     0.00
timer:  POISON           39       0.452      17.617     0.02
timer:  DHSCF3           38      61.692    2344.283     2.16
timer:  rhoofd           38      12.254     465.643     0.43
timer:  cellXC           38       2.407      91.454     0.08
timer:  vmat             38      29.273    1112.388     1.02
timer:  MolMec            2       0.000       0.000     0.00
timer:  diagon           37    2849.652  105437.114    97.07
timer:  c-eigval       8668       5.589   48445.541    44.60
timer:  c-buildHS      8668       0.033     283.469     0.26
timer:  cdiag         17215       5.679   97772.467    90.01
timer:  cdiag1        17215       0.263    4519.657     4.16
timer:  cdiag2        17215       1.835   31583.368    29.08
timer:  cdiag3        17215       3.385   58270.966    53.65
timer:  cdiag4        17215       0.089    1531.624     1.41
timer:  c-eigvec       8547       5.832   49843.323    45.89
timer:  c-buildD       8547       0.910    7780.615     7.16
timer:  DHSCF4            1      20.801      20.801     0.02
timer:  dfscf             1      19.382      19.382     0.02
timer:  overfsm           1       0.278       0.278     0.00
timer:  optical           1       6.346       6.346     0.01
  

elaps: ELAPSED times:
elaps:  Routine       Calls   Time/call    Tot.time        %
elaps:  siesta            1    9073.197    9073.197   100.00
elaps:  Setup             1       0.279       0.279     0.00
elaps:  bands             3      18.913      56.738     0.63
elaps:  writewave         1       0.002       0.002     0.00
elaps:  KSV_init          1       0.000       0.000     0.00
elaps:  IterMD            1    9015.645    9015.645    99.37
elaps:  hsparse           1       0.017       0.017     0.00
elaps:  overlap           1       0.708       0.708     0.01
elaps:  IterSCF          37     243.384    9005.196    99.25
elaps:  kinefsm           2       0.360       0.720     0.01
elaps:  nlefsm            2       1.573       3.146     0.03
elaps:  DHSCF            38       5.300     201.405     2.22
elaps:  DHSCF1            1       0.077       0.077     0.00
elaps:  DHSCF2            1       2.076       2.076     0.02
elaps:  REORD           306       0.000       0.093     0.00
elaps:  POISON           39       0.038       1.482     0.02
elaps:  DHSCF3           38       5.155     195.872     2.16
elaps:  rhoofd           38       2.128      80.853     0.89
elaps:  cellXC           38       0.201       7.622     0.08
elaps:  vmat             38       2.447      92.968     1.02
elaps:  MolMec            2       0.000       0.000     0.00
elaps:  diagon           37     238.031    8807.142    97.07
elaps:  c-eigval       8668       0.467    4046.567    44.60
elaps:  c-buildHS      8668       0.003      28.271     0.31
elaps:  cdiag         17215       0.472    8133.076    89.64
elaps:  cdiag1        17215       0.021     370.093     4.08
elaps:  cdiag2        17215       0.153    2640.571    29.10
elaps:  cdiag3        17215       0.283    4874.879    53.73
elaps:  cdiag4        17215       0.007     122.649     1.35
elaps:  c-eigvec       8547       0.484    4138.478    45.61
elaps:  c-buildD       8547       0.079     674.514     7.43
elaps:  DHSCF4            1       3.344       3.344     0.04
elaps:  dfscf             1       3.157       3.157     0.03
elaps:  overfsm           1       0.027       0.027     0.00
elaps:  optical           1       0.000       0.000     0.00
  
>> End of run:   6-MAY-2016  16:54:39
