Siesta Version:                                        siesta-3.2-pl-3
Architecture  : x86_64-unknown-linux-gnu--unknown
Compiler flags: mpiifort -g -O2 -fPIC -xSSE4.1 -fp-model source -shared-intel 
PARALLEL version

* Running on   12 nodes in parallel
>> Start of run:   1-MAY-2016   5:13:39

                           ***********************       
                           *  WELCOME TO SIESTA  *       
                           ***********************       

reinit: Reading from standard input
************************** Dump of input data file ****************************
#(1) General system descriptors
SystemName            GRP_doping    # Descriptive name of the system
SystemLabel           GRP_doping    # Short name for naming files
%include STRUCT.fdf
%include KPT.fdf
%include BASIS.fdf
#%include TS.fdf # for transiesta calculation
#(4) DFT, Grid, SCF
XC.functional         GGA           # LDA or GGA (default = LDA)
XC.authors            PBE           # CA (Ceperley-Aldr) = PZ
                                    #    (Perdew-Zunger) - LDA - Default
                                    # PW92 (Perdew-Wang-92) - LDA
                                    # PBE (Perdew-Burke-Ernzerhof) - GGA
MeshCutoff            200.000000    Ry      # Default: 50.0 Ry ~ 0.444 Bohr
                                    #         100.0 Ry ~ 0.314 Bohr
MaxSCFIterations      500           # Default: 50
DM.MixingWeight       0.05          # Default: 0.25
DM.NumberPulay        10            # Default: 0
DM.PulayOnFile        F             # SystemLabel.P1, SystemLabel.P2
DM.Tolerance          1.d-4         # Default: 1.d-4
DM.UseSaveDM          .true.        # because of the bug
SCFMustConverge       .true.
NeglNonOverlapInt     F             # Default: F
#(5) Eigenvalue problem: order-N or diagonalization
SolutionMethod        Diagon        # or Transiesta
ElectronicTemperature 300.0 K       # Default: 300.0 K
#(6) Molecular dynamics and relaxations
#MD.TypeOfRun          CG            # Type of dynamics:
#MD.VariableCell       F
#MD.NumCGsteps         0           # 0 for single-point / 100 for gopt
#MD.MaxCGDispl         0.2 Bohr      # Default: 0.2 Bohr
#MD.MaxForceTol        0.02 eV/Ang   # Default: 0.04 eV/Ang
#MD.MaxStressTol       1.0 GPa       # Default: 1.0 GPa
# Geometry Constraints
#%block GeometryConstraints
#	position from 1 to 44
#%endblock GeometryConstraints
BandLinesScale   pi/a
%block BandLines
 1   0.00000000  0.00000000  0.00000000
50   0.00000000  0.07809418  0.00000000
50   0.04509075  0.07809242  0.00000000
20   0.00000000  0.00000000  0.00000000
%endblock BandLines
************************** End of input data file *****************************

reinit: -----------------------------------------------------------------------
reinit: System Name: GRP_doping
reinit: -----------------------------------------------------------------------
reinit: System Label: GRP_doping                                                  
reinit: -----------------------------------------------------------------------

initatom: Reading input for the pseudopotentials and atomic orbitals ----------
 Species number:            1  Label: N Atomic number:           7
 Species number:            2  Label: C Atomic number:           6
Ground state valence configuration:   2s02  2p03
Reading pseudopotential information in formatted form from N.psf

Valence configuration for pseudopotential generation:
2s( 2.00) rc: 1.48
2p( 3.00) rc: 1.48
3d( 0.00) rc: 1.48
4f( 0.00) rc: 1.48
Ground state valence configuration:   2s02  2p02
Reading pseudopotential information in formatted form from C.psf

Valence configuration for pseudopotential generation:
2s( 2.00) rc: 1.54
2p( 2.00) rc: 1.54
3d( 0.00) rc: 1.54
4f( 0.00) rc: 1.54
For N, standard SIESTA heuristics set lmxkb to 3
 (one more than the basis l, including polarization orbitals).
Use PS.lmax or PS.KBprojectors blocks to override.
For C, standard SIESTA heuristics set lmxkb to 3
 (one more than the basis l, including polarization orbitals).
Use PS.lmax or PS.KBprojectors blocks to override.

<basis_specs>
===============================================================================
N                    Z=   7    Mass=  14.010        Charge= 0.17977+309
Lmxo=1 Lmxkb= 3    BasisType=split      Semic=F
L=0  Nsemic=0  Cnfigmx=2
          n=1  nzeta=2  polorb=0
            splnorm:   0.15000    
               vcte:    0.0000    
               rinn:    0.0000    
                rcs:    0.0000      0.0000    
            lambdas:    1.0000      1.0000    
L=1  Nsemic=0  Cnfigmx=2
          n=1  nzeta=2  polorb=1
            splnorm:   0.15000    
               vcte:    0.0000    
               rinn:    0.0000    
                rcs:    0.0000      0.0000    
            lambdas:    1.0000      1.0000    
-------------------------------------------------------------------------------
L=0  Nkbl=1  erefs: 0.17977+309
L=1  Nkbl=1  erefs: 0.17977+309
L=2  Nkbl=1  erefs: 0.17977+309
L=3  Nkbl=1  erefs: 0.17977+309
===============================================================================
</basis_specs>

atom: Called for N                     (Z =   7)

read_vps: Pseudopotential generation method:
read_vps: ATM3      Troullier-Martins                       
Total valence charge:    5.00000

read_vps: Pseudopotential includes a core correction:
read_vps: Pseudo-core for xc-correction

xc_check: Exchange-correlation functional:
xc_check: GGA Perdew, Burke & Ernzerhof 1996
V l=0 = -2*Zval/r beyond r=  1.4606
V l=1 = -2*Zval/r beyond r=  1.4606
V l=2 = -2*Zval/r beyond r=  1.4606
V l=3 = -2*Zval/r beyond r=  1.4606
All V_l potentials equal beyond r=  1.4606
This should be close to max(r_c) in ps generation
All pots = -2*Zval/r beyond r=  1.4606

VLOCAL1: 99.0% of the norm of Vloc inside     20.347 Ry
VLOCAL1: 99.9% of the norm of Vloc inside     46.372 Ry
atom: Maximum radius for 4*pi*r*r*local-pseudopot. charge    1.76189
atom: Maximum radius for r*vlocal+2*Zval:    1.53550
GHOST: No ghost state for L =  0
GHOST: No ghost state for L =  1
GHOST: No ghost state for L =  2
GHOST: No ghost state for L =  3

KBgen: Kleinman-Bylander projectors: 
   l= 0   rc=  1.634559   el= -1.363963   Ekb=  5.296955   kbcos=  0.335621
   l= 1   rc=  1.614250   el= -0.521451   Ekb= -5.259161   kbcos= -0.433408
   l= 2   rc=  1.718383   el=  0.001991   Ekb= -1.271464   kbcos= -0.007566
   l= 3   rc=  1.761893   el=  0.003093   Ekb= -0.494769   kbcos= -0.001015

KBgen: Total number of  Kleinman-Bylander projectors:   16
atom: -------------------------------------------------------------------------

atom: SANKEY-TYPE ORBITALS:
atom: Selected multiple-zeta basis: split     

SPLIT: Orbitals with angular momentum L= 0

SPLIT: Basis orbitals for state 2s

SPLIT: PAO cut-off radius determined from an
SPLIT: energy shift=  0.007350 Ry

   izeta = 1
                 lambda =    1.000000
                     rc =    4.071465
                 energy =   -1.356470
                kinetic =    1.176977
    potential(screened) =   -2.533447
       potential(ionic) =   -8.057990

   izeta = 2
                 rmatch =    2.905100
              splitnorm =    0.150000
                 energy =   -1.158343
                kinetic =    1.813009
    potential(screened) =   -2.971352
       potential(ionic) =   -8.901931

SPLIT: Orbitals with angular momentum L= 1

SPLIT: Basis orbitals for state 2p

SPLIT: PAO cut-off radius determined from an
SPLIT: energy shift=  0.007350 Ry

   izeta = 1
                 lambda =    1.000000
                     rc =    4.972977
                 energy =   -0.513884
                kinetic =    3.441732
    potential(screened) =   -3.955616
       potential(ionic) =   -9.287901

   izeta = 2
                 rmatch =    3.054066
              splitnorm =    0.150000
                 energy =   -0.318226
                kinetic =    5.125348
    potential(screened) =   -5.443573
       potential(ionic) =  -11.380999

POLgen: Perturbative polarization orbital with L=  2

POLgen: Polarization orbital for state 2p

   izeta = 1
                     rc =    4.972977
                 energy =    1.607437
                kinetic =    3.268125
    potential(screened) =   -1.660688
       potential(ionic) =   -5.973652
atom: Total number of Sankey-type orbitals: 13

atm_pop: Valence configuration (for local Pseudopot. screening):
 2s( 2.00)                                                            
 2p( 3.00)                                                            
Vna: chval, zval:    5.00000   5.00000

Vna:  Cut-off radius for the neutral-atom potential:   4.972977
comcore: Pseudo-core radius Rcore=  1.554824

atom: _________________________________________________________________________

<basis_specs>
===============================================================================
C                    Z=   6    Mass=  12.010        Charge= 0.17977+309
Lmxo=1 Lmxkb= 3    BasisType=split      Semic=F
L=0  Nsemic=0  Cnfigmx=2
          n=1  nzeta=2  polorb=0
            splnorm:   0.15000    
               vcte:    0.0000    
               rinn:    0.0000    
                rcs:    0.0000      0.0000    
            lambdas:    1.0000      1.0000    
L=1  Nsemic=0  Cnfigmx=2
          n=1  nzeta=2  polorb=1
            splnorm:   0.15000    
               vcte:    0.0000    
               rinn:    0.0000    
                rcs:    0.0000      0.0000    
            lambdas:    1.0000      1.0000    
-------------------------------------------------------------------------------
L=0  Nkbl=1  erefs: 0.17977+309
L=1  Nkbl=1  erefs: 0.17977+309
L=2  Nkbl=1  erefs: 0.17977+309
L=3  Nkbl=1  erefs: 0.17977+309
===============================================================================
</basis_specs>

atom: Called for C                     (Z =   6)

read_vps: Pseudopotential generation method:
read_vps: ATM3      Troullier-Martins                       
Total valence charge:    4.00000

read_vps: Pseudopotential includes a core correction:
read_vps: Pseudo-core for xc-correction

xc_check: Exchange-correlation functional:
xc_check: GGA Perdew, Burke & Ernzerhof 1996
V l=0 = -2*Zval/r beyond r=  1.5227
V l=1 = -2*Zval/r beyond r=  1.5227
V l=2 = -2*Zval/r beyond r=  1.5227
V l=3 = -2*Zval/r beyond r=  1.5038
All V_l potentials equal beyond r=  1.5227
This should be close to max(r_c) in ps generation
All pots = -2*Zval/r beyond r=  1.5227

VLOCAL1: 99.0% of the norm of Vloc inside     18.722 Ry
VLOCAL1: 99.9% of the norm of Vloc inside     42.668 Ry
atom: Maximum radius for 4*pi*r*r*local-pseudopot. charge    1.83678
atom: Maximum radius for r*vlocal+2*Zval:    1.58088
GHOST: No ghost state for L =  0
GHOST: No ghost state for L =  1
GHOST: No ghost state for L =  2
GHOST: No ghost state for L =  3

KBgen: Kleinman-Bylander projectors: 
   l= 0   rc=  1.704034   el= -1.009801   Ekb=  5.335044   kbcos=  0.316824
   l= 1   rc=  1.704034   el= -0.388707   Ekb= -3.785862   kbcos= -0.366464
   l= 2   rc=  1.791422   el=  0.001971   Ekb= -0.970471   kbcos= -0.009212
   l= 3   rc=  1.859892   el=  0.003065   Ekb= -0.399525   kbcos= -0.001223

KBgen: Total number of  Kleinman-Bylander projectors:   16
atom: -------------------------------------------------------------------------

atom: SANKEY-TYPE ORBITALS:
atom: Selected multiple-zeta basis: split     

SPLIT: Orbitals with angular momentum L= 0

SPLIT: Basis orbitals for state 2s

SPLIT: PAO cut-off radius determined from an
SPLIT: energy shift=  0.007350 Ry

   izeta = 1
                 lambda =    1.000000
                     rc =    4.632753
                 energy =   -1.002270
                kinetic =    0.855760
    potential(screened) =   -1.858031
       potential(ionic) =   -5.417575

   izeta = 2
                 rmatch =    3.431921
              splitnorm =    0.150000
                 energy =   -0.867111
                kinetic =    1.300804
    potential(screened) =   -2.167915
       potential(ionic) =   -5.962684

SPLIT: Orbitals with angular momentum L= 1

SPLIT: Basis orbitals for state 2p

SPLIT: PAO cut-off radius determined from an
SPLIT: energy shift=  0.007350 Ry

   izeta = 1
                 lambda =    1.000000
                     rc =    5.658549
                 energy =   -0.381140
                kinetic =    2.399701
    potential(screened) =   -2.780841
       potential(ionic) =   -6.206085

   izeta = 2
                 rmatch =    3.653288
              splitnorm =    0.150000
                 energy =   -0.249149
                kinetic =    3.542762
    potential(screened) =   -3.791911
       potential(ionic) =   -7.581078

POLgen: Perturbative polarization orbital with L=  2

POLgen: Polarization orbital for state 2p

   izeta = 1
                     rc =    5.658549
                 energy =    1.109913
                kinetic =    2.304789
    potential(screened) =   -1.194876
       potential(ionic) =   -4.013592
atom: Total number of Sankey-type orbitals: 13

atm_pop: Valence configuration (for local Pseudopot. screening):
 2s( 2.00)                                                            
 2p( 2.00)                                                            
Vna: chval, zval:    4.00000   4.00000

Vna:  Cut-off radius for the neutral-atom potential:   5.658549
comcore: Pseudo-core radius Rcore=  1.791422

atom: _________________________________________________________________________

prinput: Basis input ----------------------------------------------------------

PAO.BasisType split     

%block ChemicalSpeciesLabel
    1    7 N                       # Species index, atomic number, species label
    2    6 C                       # Species index, atomic number, species label
%endblock ChemicalSpeciesLabel

%block PAO.Basis                 # Define Basis set
N                     2                    # Species label, number of l-shells
 n=2   0   2                         # n, l, Nzeta 
   4.071      2.905   
   1.000      1.000   
 n=2   1   2 P   1                   # n, l, Nzeta, Polarization, NzetaPol
   4.973      3.054   
   1.000      1.000   
C                     2                    # Species label, number of l-shells
 n=2   0   2                         # n, l, Nzeta 
   4.633      3.432   
   1.000      1.000   
 n=2   1   2 P   1                   # n, l, Nzeta, Polarization, NzetaPol
   5.659      3.653   
   1.000      1.000   
%endblock PAO.Basis

prinput: ----------------------------------------------------------------------

coor:   Atomic-coordinates input format  =     Fractional

siesta: Atomic coordinates (Bohr) and species
siesta:      4.63094  34.85847   0.00000  1        1
siesta:      6.95932  30.82560   0.00000  1        2
siesta:      6.95932  33.51406   0.00000  1        3
siesta:      6.95932  22.75985   0.00000  1        4
siesta:      6.95932  25.44831   0.00000  1        5
siesta:     -0.02582  21.41544   0.00000  1        6
siesta:      2.30256  22.75985   0.00000  1        7
siesta:      2.30256  25.44831   0.00000  1        8
siesta:     -2.35420  22.75985   0.00000  1        9
siesta:     -2.35420  25.44831   0.00000  1       10
siesta:      4.63094  26.79272   0.00000  1       11
siesta:      4.63094  29.48119   0.00000  1       12
siesta:     -0.02582  26.79272   0.00000  1       13
siesta:     -0.02582  29.48119   0.00000  1       14
siesta:      2.30256  30.82560   0.00000  1       15
siesta:      2.30256  33.51406   0.00000  1       16
siesta:     -2.35420  30.82560   0.00000  1       17
siesta:     -2.35420  33.51406   0.00000  1       18
siesta:     -0.02582  34.85847   0.00000  1       19
siesta:     -0.02582   2.59549   0.00000  2       20
siesta:     -0.02582   5.28395   0.00000  2       21
siesta:     -2.35420  38.89134   0.00000  2       22
siesta:     -2.35420  41.57980   0.00000  2       23
siesta:      2.30256  38.89134   0.00000  2       24
siesta:      2.30256  41.57980   0.00000  2       25
siesta:      4.63094  37.54693   0.00000  2       26
siesta:      9.28770  26.79272   0.00000  2       27
siesta:      9.28770  29.48119   0.00000  2       28
siesta:     -4.68258  34.85847   0.00000  2       29
siesta:     -4.68258  37.54693   0.00000  2       30
siesta:      2.30256   6.62836   0.00000  2       31
siesta:      2.30256   9.31683   0.00000  2       32
siesta:      4.63094  10.66124   0.00000  2       33
siesta:      4.63094  13.34970   0.00000  2       34
siesta:      6.95932  14.69411   0.00000  2       35
siesta:      6.95932  17.38257   0.00000  2       36
siesta:      9.28770  18.72698   0.00000  2       37
siesta:      9.28770  21.41544   0.00000  2       38
siesta:     11.61608  22.75985   0.00000  2       39
siesta:     11.61608  25.44831   0.00000  2       40
siesta:     -2.35420   6.62836   0.00000  2       41
siesta:     -2.35420   9.31683   0.00000  2       42
siesta:     -0.02582  10.66124   0.00000  2       43
siesta:     -0.02582  13.34970   0.00000  2       44
siesta:      2.30256  14.69411   0.00000  2       45
siesta:      2.30256  17.38257   0.00000  2       46
siesta:      4.63094  18.72698   0.00000  2       47
siesta:      4.63094  21.41544   0.00000  2       48
siesta:     -4.68258  10.66124   0.00000  2       49
siesta:     -4.68258  13.34970   0.00000  2       50
siesta:     -2.35420  14.69411   0.00000  2       51
siesta:     -2.35420  17.38257   0.00000  2       52
siesta:     -0.02582  18.72698   0.00000  2       53
siesta:     -7.01096  14.69411   0.00000  2       54
siesta:     -7.01096  17.38257   0.00000  2       55
siesta:     -4.68258  18.72698   0.00000  2       56
siesta:     -4.68258  21.41544   0.00000  2       57
siesta:     -9.33934  18.72698   0.00000  2       58
siesta:     -9.33934  21.41544   0.00000  2       59
siesta:     -7.01096  22.75985   0.00000  2       60
siesta:     -7.01096  25.44831   0.00000  2       61
siesta:    -11.66772  22.75985   0.00000  2       62
siesta:    -11.66772  25.44831   0.00000  2       63
siesta:     -9.33934  26.79272   0.00000  2       64
siesta:     -9.33934  29.48119   0.00000  2       65
siesta:     -4.68258  26.79272   0.00000  2       66
siesta:     -4.68258  29.48119   0.00000  2       67
siesta:     -7.01096  30.82560   0.00000  2       68
siesta:     -7.01096  33.51406   0.00000  2       69
siesta:     -0.02582  37.54693   0.00000  2       70
siesta:     -0.02582  42.92421   0.00000  2       71
siesta:     -0.02582  45.61267   0.00000  2       72

siesta: System type = slab      

initatomlists: Number of atoms, orbitals, and projectors:     72   936  1152

siesta: ******************** Simulation parameters ****************************
siesta:
siesta: The following are some of the parameters of the simulation.
siesta: A complete list of the parameters used, including default values,
siesta: can be found in file out.fdf
siesta:
redata: Non-Collinear-spin run           =     F
redata: SpinPolarized (Up/Down) run      =     F
redata: Number of spin components        =     1
redata: Long output                      =     F
redata: Number of Atomic Species         =        2
redata: Charge density info will appear in .RHO file
redata: Write Mulliken Pop.              =     NO
redata: Mesh Cutoff                      =   200.0000  Ry
redata: Net charge of the system         =     0.0000 |e|
redata: Max. number of SCF Iter          =      500
redata: SCF convergence failure will abort job
redata: Performing Pulay mixing using    =    10 iterations
redata: Mix DM in first SCF step ?       =     F
redata: Write Pulay info on disk?        =     F
redata: Discard 1st Pulay DM after  kick =     F
redata: New DM Mixing Weight             =     0.0500
redata: New DM Occupancy tolerance       = 0.000000000001
redata: No kicks to SCF
redata: DM Mixing Weight for Kicks       =     0.5000
redata: DM Tolerance for SCF             =     0.000100
redata: Require Energy convergence for SCF =     F
redata: DM Energy tolerance for SCF      =     0.000100 eV
redata: Require Harris convergence for SCF =     F
redata: DM Harris energy tolerance for SCF =     0.000100 eV
redata: Using Saved Data (generic)   =     F
redata: Use continuation files for DM    =     T
redata: Neglect nonoverlap interactions  =     F
redata: Method of Calculation            =     Diagonalization
redata: Divide and Conquer               =     T
redata: Electronic Temperature           =     0.0019  Ry
redata: Fix the spin of the system       =     F
redata: Dynamics option                  =     Verlet MD run
redata: Initial MD time step             =        1
redata:   Final MD time step             =        1
redata: Length of MD time step           =     1.0000  fs
redata: Initial Temperature of MD run    =     0.0000  K
redata: Perform a MD quench              =     F
redata: ***********************************************************************
Total number of electrons:   307.000000
Total ionic charge:   307.000000

* ProcessorY, Blocksize:    3  24

k-point displ. along   1 input, could be:     0.50    0.00
k-point displ. along   2 input, could be:     0.50    0.00
 Kpoints in:          231 . Kpoints trimmed:          231

siesta: k-grid: Number of k-points =   231
siesta: k-grid: Cutoff (effective) =     5.000 Ang
siesta: k-grid: Supercell and displacements
siesta: k-grid:   21   0   0      0.500
siesta: k-grid:    0  21   0      0.500
siesta: k-grid:    0   0   1      0.000
Naive supercell factors:     2    2    2

superc: Internal auxiliary supercell:     2 x     2 x     2  =       8
superc: Number of atoms, orbitals, and projectors:    576   7488   9216

* Maximum dynamic memory allocated =     4 MB

siesta:                 ==============================
                            Begin MD step =      1
                        ==============================

superc: Internal auxiliary supercell:     2 x     2 x     2  =       8
superc: Number of atoms, orbitals, and projectors:    576   7488   9216

outcell: Unit cell vectors (Ang):
       12.804619    7.392750    0.000000
        0.000000   14.785500    0.000000
        0.000000    0.000000   10.000000

outcell: Cell vector modules (Ang)   :   14.785500   14.785500   10.000000
outcell: Cell angles (23,13,12) (deg):     90.0000     90.0000     60.0000
outcell: Cell volume (Ang**3)        :   1893.2269
New_DM. Step:     1
Initializing Density Matrix...

InitMesh: MESH =   120 x   120 x    90 =     1296000
InitMesh: Mesh cutoff (required, used) =   200.000   223.865 Ry

* Maximum dynamic memory allocated =   136 MB

stepf: Fermi-Dirac step function

siesta: Program's energy decomposition (eV):
siesta: Ebs     =     -6219.959419
siesta: Eions   =     21457.201110
siesta: Ena     =      4918.336180
siesta: Ekin    =      7972.707975
siesta: Enl     =        86.756404
siesta: DEna    =        -0.000015
siesta: DUscf   =         0.000000
siesta: DUext   =         0.000000
siesta: Exc     =     -4643.034021
siesta: eta*DQ  =         0.000000
siesta: Emadel  =         0.000000
siesta: Emeta   =         0.000000
siesta: Emolmec =         0.000000
siesta: Ekinion =         0.000000
siesta: Eharris =    -12766.332862
siesta: Etot    =    -13122.434588
siesta: FreeEng =    -13122.434588

siesta: iscf   Eharris(eV)      E_KS(eV)   FreeEng(eV)   dDmax  Ef(eV)
siesta:    1   -12766.3329   -13122.4346   -13122.4346  6.4532 -6.8511
timer: Routine,Calls,Time,% = IterSCF        1    2985.972  99.59
elaps: Routine,Calls,Wall,% = IterSCF        1     249.422  99.59
siesta:    2   -19140.8873   -11915.9495   -11916.0093 21.1449 -6.4922
siesta:    3   -12679.1600   -12976.2913   -12976.3407  3.5716 -5.7302
siesta:    4   -12667.7750   -12793.2227   -12793.2782  1.4530 -4.5299
siesta:    5   -12608.1802   -12734.1110   -12734.1545  0.8836 -4.0290
siesta:    6   -12598.4615   -12666.5059   -12666.5690  1.0282 -3.6788
siesta:    7   -12595.8966   -12656.2373   -12656.2911  0.9570 -3.7209
siesta:    8   -12590.7389   -12633.6188   -12633.6746  0.7279 -3.9175
siesta:    9   -12590.1907   -12611.4475   -12611.4970  0.6406 -3.8722
siesta:   10   -12589.6941   -12594.2265   -12594.2928  0.5149 -3.8374
siesta:   11   -12589.8152   -12574.6364   -12574.6897  0.3085 -3.8011
siesta:   12   -12589.4507   -12568.6576   -12568.7340  0.2599 -3.8013
siesta:   13   -12589.1040   -12561.8407   -12561.8976  0.1704 -3.7542
siesta:   14   -12588.7455   -12564.0877   -12564.1432  0.1124 -3.7502
siesta:   15   -12588.3603   -12562.3862   -12562.4457  0.0887 -3.7453
siesta:   16   -12588.0112   -12567.5004   -12567.5583  0.0653 -3.7548
siesta:   17   -12587.9443   -12570.8272   -12570.8857  0.0468 -3.8004
siesta:   18   -12587.9222   -12576.4637   -12576.5210  0.0436 -3.8150
siesta:   19   -12587.9087   -12580.5010   -12580.5543  0.0304 -3.8286
siesta:   20   -12587.8908   -12583.5273   -12583.5847  0.0214 -3.8187
siesta:   21   -12587.8848   -12585.9862   -12586.0443  0.0210 -3.8139
siesta:   22   -12587.8827   -12587.1858   -12587.2445  0.0153 -3.8043
siesta:   23   -12587.8784   -12587.5488   -12587.6069  0.0133 -3.8017
siesta:   24   -12587.8769   -12587.7392   -12587.7973  0.0096 -3.7969
siesta:   25   -12587.8759   -12587.8478   -12587.9063  0.0081 -3.7963
siesta:   26   -12587.8758   -12587.9397   -12587.9983  0.0064 -3.7959
siesta:   27   -12587.8759   -12587.9196   -12587.9781  0.0047 -3.7968
siesta:   28   -12587.8757   -12587.9742   -12588.0324  0.0030 -3.7969
siesta:   29   -12587.8756   -12588.0494   -12588.1078  0.0015 -3.7974
siesta:   30   -12587.8756   -12588.0548   -12588.1133  0.0011 -3.7975
siesta:   31   -12587.8756   -12587.9736   -12588.0320  0.0006 -3.7975
siesta:   32   -12587.8756   -12587.9164   -12587.9748  0.0004 -3.7974
siesta:   33   -12587.8756   -12587.9048   -12587.9633  0.0003 -3.7975
siesta:   34   -12587.8756   -12587.8982   -12587.9567  0.0002 -3.7975
siesta:   35   -12587.8756   -12587.8968   -12587.9552  0.0002 -3.7975
siesta:   36   -12587.8756   -12587.8908   -12587.9492  0.0002 -3.7975
siesta:   37   -12587.8756   -12587.8840   -12587.9425  0.0001 -3.7975

siesta: E_KS(eV) =           -12587.8787

siesta: E_KS - E_eggbox =    -12587.8787

siesta: Atomic forces (eV/Ang):
----------------------------------------
   Tot    0.078533   -0.201545    0.000000
----------------------------------------
   Max  692.499877
   Res  172.608917    sqrt( Sum f_i^2 / 3N )
----------------------------------------
   Max  692.499877    constrained

Stress-tensor-Voigt (kbar):     -709.44    -3056.13       -0.09       -6.40        0.00        0.00
(Free)E + p*V (eV/cell)   -11104.7128
Target enthalpy (eV/cell)   -12587.9371

siesta: Stress tensor (static) (eV/Ang**3):
        -0.442794   -0.003997    0.000000
        -0.003997   -1.907464    0.000000
         0.000000    0.000000   -0.000053

siesta: Pressure (static):       1255.21828278  kBar

siesta: Stress tensor (total) (eV/Ang**3):
        -0.442794   -0.003997    0.000000
        -0.003997   -1.907464    0.000000
         0.000000    0.000000   -0.000053

siesta: Pressure (total):       1255.21828278  kBar

siesta: Temp_ion =       0.000 K

* Maximum dynamic memory allocated =   148 MB
Computing bands...

siesta: Program's energy decomposition (eV):
siesta: Ebs     =     -5006.869400
siesta: Eions   =     21457.201110
siesta: Ena     =      4918.336180
siesta: Ekin    =     11032.774390
siesta: Enl     =     -1590.795915
siesta: DEna    =      -785.414635
siesta: DUscf   =       110.022339
siesta: DUext   =         0.000000
siesta: Exc     =     -4815.599949
siesta: eta*DQ  =         0.000000
siesta: Emadel  =         0.000000
siesta: Emeta   =         0.000000
siesta: Emolmec =         0.000000
siesta: Ekinion =         0.000000
siesta: Eharris =    -12587.875625
siesta: Etot    =    -12587.878701
siesta: FreeEng =    -12587.937127

siesta: Final energy (eV):
siesta:  Band Struct. =   -5006.869400
siesta:       Kinetic =   11032.774390
siesta:       Hartree =   35803.228442
siesta:    Ext. field =       0.000000
siesta:   Exch.-corr. =   -4815.599949
siesta:  Ion-electron =  -82170.584308
siesta:       Ion-ion =   27562.302725
siesta:       Ekinion =       0.000000
siesta:         Total =  -12587.878701

siesta: Atomic forces (eV/Ang):
siesta:      1   30.357097   12.379146    0.000000
siesta:      2    3.604255    0.634745    0.000000
siesta:      3    0.322534   -3.545505    0.000000
siesta:      4   -2.045449    0.799139    0.000000
siesta:      5    0.552153   -1.266323    0.000000
siesta:      6   -0.284864   -1.799236    0.000000
siesta:      7    1.863329   -0.580377    0.000000
siesta:      8    0.291747   -0.560148    0.000000
siesta:      9   -0.569513   -0.651425    0.000000
siesta:     10   -0.875786   -0.038067    0.000000
siesta:     11    1.049138   -0.891391    0.000000
siesta:     12    0.149065   -0.852368    0.000000
siesta:     13   -0.587884    6.762502    0.000000
siesta:     14   -1.401784 -692.499877    0.000000
siesta:     15   31.618131   11.410355    0.000000
siesta:     16    0.504075 -682.668715    0.000000
siesta:     17  -31.080652    8.907763    0.000000
siesta:     18  -15.982952 -673.300780    0.000000
siesta:     19    1.268803  117.966407    0.000000
siesta:     20   -3.859199  637.937879    0.000000
siesta:     21    2.602823 -112.916387    0.000000
siesta:     22    3.216053  126.249466    0.000000
siesta:     23  -13.309560 -548.406022    0.000000
siesta:     24   -1.358960  126.930452    0.000000
siesta:     25   14.567004 -548.783093    0.000000
siesta:     26   25.455110 -549.837537    0.000000
siesta:     27    0.705784    1.772323    0.000000
siesta:     28   -1.861935    1.827181    0.000000
siesta:     29  -27.407701    9.060237    0.000000
siesta:     30  -32.128479 -548.631991    0.000000
siesta:     31   21.588592  658.318289    0.000000
siesta:     32    0.663734 -114.844945    0.000000
siesta:     33   36.685395  551.608746    0.000000
siesta:     34   26.655768   -6.567756    0.000000
siesta:     35   -2.418414   -0.911682    0.000000
siesta:     36    1.624481   -0.501176    0.000000
siesta:     37   -0.643299    1.060156    0.000000
siesta:     38    2.048662   -2.425495    0.000000
siesta:     39   -0.716568    5.329050    0.000000
siesta:     40   -0.879047   -4.995611    0.000000
siesta:     41   -8.860841  654.065838    0.000000
siesta:     42    0.224326 -117.427211    0.000000
siesta:     43   -1.007649  544.726801    0.000000
siesta:     44   -0.651672 -128.545664    0.000000
siesta:     45   23.782348  558.646625    0.000000
siesta:     46   22.840767   -6.212289    0.000000
siesta:     47   -1.240170    3.138455    0.000000
siesta:     48    0.226295    0.432556    0.000000
siesta:     49  -35.486940  549.898528    0.000000
siesta:     50  -26.652477   -6.377864    0.000000
siesta:     51  -21.963934  559.463147    0.000000
siesta:     52  -22.889048   -5.810067    0.000000
siesta:     53   -0.941878  564.385602    0.000000
siesta:     54    2.743011   -1.655140    0.000000
siesta:     55   -2.617092   -0.108667    0.000000
siesta:     56    2.073537    3.585553    0.000000
siesta:     57    0.336494   -0.872109    0.000000
siesta:     58    1.552689   -0.246551    0.000000
siesta:     59   -1.711415   -2.312016    0.000000
siesta:     60    0.524889    0.828159    0.000000
siesta:     61    0.186214   -0.889138    0.000000
siesta:     62    0.062545    7.375621    0.000000
siesta:     63    0.309832   -7.263839    0.000000
siesta:     64   -1.834083    2.275466    0.000000
siesta:     65    1.172449    0.387982    0.000000
siesta:     66    1.036859    0.864382    0.000000
siesta:     67    1.479042   -3.335775    0.000000
siesta:     68   -1.788277    0.512669    0.000000
siesta:     69    2.137946    1.532821    0.000000
siesta:     70   -2.110185 -534.240407    0.000000
siesta:     71   -1.337760  127.868194    0.000000
siesta:     72    0.501028 -546.371134    0.000000
siesta: ----------------------------------------
siesta:    Tot    0.078533   -0.201545    0.000000

siesta: Stress tensor (static) (eV/Ang**3):
siesta:    -0.442794   -0.003997    0.000000
siesta:    -0.003997   -1.907464    0.000000
siesta:     0.000000    0.000000   -0.000053

siesta: Cell volume =       1893.226884 Ang**3

siesta: Pressure (static):
siesta:                Solid            Molecule  Units
siesta:           0.00853263          0.13553159  Ry/Bohr**3
siesta:           0.78343716         12.44404973  eV/Ang**3
siesta:        1255.21828278      19937.78122058  kBar
(Free)E+ p_basis*V_orbitals  =      -12559.915817
(Free)Eharris+ p_basis*V_orbitals  =      -12559.907415

siesta: Electric dipole (a.u.)  =    0.000000    0.000000    0.000000
siesta: Electric dipole (Debye) =    0.000000    0.000000    0.000000

* Maximum dynamic memory allocated : Node    0 =   143 MB
* Maximum dynamic memory allocated : Node    1 =    57 MB
* Maximum dynamic memory allocated : Node    2 =    58 MB
* Maximum dynamic memory allocated : Node    3 =   131 MB
* Maximum dynamic memory allocated : Node    4 =   148 MB
* Maximum dynamic memory allocated : Node    5 =    54 MB
* Maximum dynamic memory allocated : Node    6 =    55 MB
* Maximum dynamic memory allocated : Node    7 =   138 MB
* Maximum dynamic memory allocated : Node    8 =   123 MB
* Maximum dynamic memory allocated : Node    9 =    50 MB
* Maximum dynamic memory allocated : Node   10 =    53 MB
* Maximum dynamic memory allocated : Node   11 =   119 MB

* Maximum memory occured during matrixMtoO                    

timer: CPU execution times:
timer:  Routine       Calls   Time/call    Tot.time        %
timer:  siesta            1  108573.064  108573.064   100.00
timer:  Setup             1       3.290       3.290     0.00
timer:  bands             3     226.134     678.403     0.62
timer:  writewave         1       0.022       0.022     0.00
timer:  KSV_init          1       0.006       0.006     0.00
timer:  IterMD            1  107884.323  107884.323    99.37
timer:  hsparse           1       0.170       0.170     0.00
timer:  overlap           1       7.925       7.925     0.01
timer:  IterSCF          37    2912.427  107759.803    99.25
timer:  kinefsm           2       4.009       8.017     0.01
timer:  nlefsm            2      18.183      36.366     0.03
timer:  DHSCF            38      62.566    2377.501     2.19
timer:  DHSCF1            1       0.900       0.900     0.00
timer:  DHSCF2            1      24.902      24.902     0.02
timer:  REORD           306       0.002       0.716     0.00
timer:  POISON           39       0.450      17.543     0.02
timer:  DHSCF3           38      61.347    2331.187     2.15
timer:  rhoofd           38      11.820     449.170     0.41
timer:  cellXC           38       2.434      92.497     0.09
timer:  vmat             38      28.968    1100.767     1.01
timer:  MolMec            2       0.000       0.000     0.00
timer:  diagon           37    2848.668  105400.699    97.08
timer:  c-eigval       8668       5.581   48373.437    44.55
timer:  c-buildHS      8668       0.032     278.700     0.26
timer:  cdiag         17215       5.682   97815.167    90.09
timer:  cdiag1        17215       0.260    4471.708     4.12
timer:  cdiag2        17215       1.829   31486.755    29.00
timer:  cdiag3        17215       3.384   58264.123    53.66
timer:  cdiag4        17215       0.089    1537.749     1.42
timer:  c-eigvec       8547       5.845   49953.559    46.01
timer:  c-buildD       8547       0.901    7705.048     7.10
timer:  DHSCF4            1      20.240      20.240     0.02
timer:  dfscf             1      18.833      18.833     0.02
timer:  overfsm           1       0.277       0.277     0.00
timer:  optical           1       6.436       6.436     0.01
  

elaps: ELAPSED times:
elaps:  Routine       Calls   Time/call    Tot.time        %
elaps:  siesta            1    9069.050    9069.050   100.00
elaps:  Setup             1       0.275       0.275     0.00
elaps:  bands             3      18.904      56.712     0.63
elaps:  writewave         1       0.002       0.002     0.00
elaps:  KSV_init          1       0.000       0.000     0.00
elaps:  IterMD            1    9011.520    9011.520    99.37
elaps:  hsparse           1       0.016       0.016     0.00
elaps:  overlap           1       0.710       0.710     0.01
elaps:  IterSCF          37     243.273    9001.119    99.25
elaps:  kinefsm           2       0.363       0.726     0.01
elaps:  nlefsm            2       1.595       3.190     0.04
elaps:  DHSCF            38       5.267     200.164     2.21
elaps:  DHSCF1            1       0.077       0.077     0.00
elaps:  DHSCF2            1       2.079       2.079     0.02
elaps:  REORD           306       0.000       0.091     0.00
elaps:  POISON           39       0.038       1.481     0.02
elaps:  DHSCF3           38       5.125     194.751     2.15
elaps:  rhoofd           38       1.995      75.826     0.84
elaps:  cellXC           38       0.203       7.708     0.08
elaps:  vmat             38       2.420      91.976     1.01
elaps:  MolMec            2       0.000       0.000     0.00
elaps:  diagon           37     237.954    8804.297    97.08
elaps:  c-eigval       8668       0.466    4040.548    44.55
elaps:  c-buildHS      8668       0.003      30.046     0.33
elaps:  cdiag         17215       0.470    8086.603    89.17
elaps:  cdiag1        17215       0.021     368.050     4.06
elaps:  cdiag2        17215       0.153    2632.423    29.03
elaps:  cdiag3        17215       0.283    4873.900    53.74
elaps:  cdiag4        17215       0.007     123.446     1.36
elaps:  c-eigvec       8547       0.480    4101.508    45.23
elaps:  c-buildD       8547       0.084     714.422     7.88
elaps:  DHSCF4            1       3.212       3.212     0.04
elaps:  dfscf             1       3.028       3.028     0.03
elaps:  overfsm           1       0.030       0.030     0.00
elaps:  optical           1       0.000       0.000     0.00
  
>> End of run:   1-MAY-2016   7:44:48
