Siesta Version:                                        siesta-3.2-pl-3
Architecture  : x86_64-unknown-linux-gnu--unknown
Compiler flags: mpiifort -g -O2 -fPIC -xSSE4.1 -fp-model source -shared-intel 
PARALLEL version

* Running on   12 nodes in parallel
>> Start of run:   7-MAY-2016  16:29:44

                           ***********************       
                           *  WELCOME TO SIESTA  *       
                           ***********************       

reinit: Reading from standard input
************************** Dump of input data file ****************************
#(1) General system descriptors
SystemName            GRP_doping    # Descriptive name of the system
SystemLabel           GRP_doping    # Short name for naming files
%include STRUCT.fdf
%include KPT.fdf
%include BASIS.fdf
#%include TS.fdf # for transiesta calculation
#(4) DFT, Grid, SCF
XC.functional         GGA           # LDA or GGA (default = LDA)
XC.authors            PBE           # CA (Ceperley-Aldr) = PZ
                                    #    (Perdew-Zunger) - LDA - Default
                                    # PW92 (Perdew-Wang-92) - LDA
                                    # PBE (Perdew-Burke-Ernzerhof) - GGA
MeshCutoff            200.000000    Ry      # Default: 50.0 Ry ~ 0.444 Bohr
                                    #         100.0 Ry ~ 0.314 Bohr
MaxSCFIterations      500           # Default: 50
DM.MixingWeight       0.05          # Default: 0.25
DM.NumberPulay        10            # Default: 0
DM.PulayOnFile        F             # SystemLabel.P1, SystemLabel.P2
DM.Tolerance          1.d-4         # Default: 1.d-4
DM.UseSaveDM          .true.        # because of the bug
SCFMustConverge       .true.
NeglNonOverlapInt     F             # Default: F
#(5) Eigenvalue problem: order-N or diagonalization
SolutionMethod        Diagon        # or Transiesta
ElectronicTemperature 300.0 K       # Default: 300.0 K
#(6) Molecular dynamics and relaxations
#MD.TypeOfRun          CG            # Type of dynamics:
#MD.VariableCell       F
#MD.NumCGsteps         0           # 0 for single-point / 100 for gopt
#MD.MaxCGDispl         0.2 Bohr      # Default: 0.2 Bohr
#MD.MaxForceTol        0.02 eV/Ang   # Default: 0.04 eV/Ang
#MD.MaxStressTol       1.0 GPa       # Default: 1.0 GPa
# Geometry Constraints
#%block GeometryConstraints
#	position from 1 to 44
#%endblock GeometryConstraints
BandLinesScale   pi/a
%block BandLines
 1   0.00000000  0.00000000  0.00000000
50   0.00000000  0.07809418  0.00000000
50   0.04509075  0.07809242  0.00000000
20   0.00000000  0.00000000  0.00000000
%endblock BandLines
************************** End of input data file *****************************

reinit: -----------------------------------------------------------------------
reinit: System Name: GRP_doping
reinit: -----------------------------------------------------------------------
reinit: System Label: GRP_doping                                                  
reinit: -----------------------------------------------------------------------

initatom: Reading input for the pseudopotentials and atomic orbitals ----------
 Species number:            1  Label: N Atomic number:           7
 Species number:            2  Label: C Atomic number:           6
Ground state valence configuration:   2s02  2p03
Reading pseudopotential information in formatted form from N.psf

Valence configuration for pseudopotential generation:
2s( 2.00) rc: 1.48
2p( 3.00) rc: 1.48
3d( 0.00) rc: 1.48
4f( 0.00) rc: 1.48
Ground state valence configuration:   2s02  2p02
Reading pseudopotential information in formatted form from C.psf

Valence configuration for pseudopotential generation:
2s( 2.00) rc: 1.54
2p( 2.00) rc: 1.54
3d( 0.00) rc: 1.54
4f( 0.00) rc: 1.54
For N, standard SIESTA heuristics set lmxkb to 3
 (one more than the basis l, including polarization orbitals).
Use PS.lmax or PS.KBprojectors blocks to override.
For C, standard SIESTA heuristics set lmxkb to 3
 (one more than the basis l, including polarization orbitals).
Use PS.lmax or PS.KBprojectors blocks to override.

<basis_specs>
===============================================================================
N                    Z=   7    Mass=  14.010        Charge= 0.17977+309
Lmxo=1 Lmxkb= 3    BasisType=split      Semic=F
L=0  Nsemic=0  Cnfigmx=2
          n=1  nzeta=2  polorb=0
            splnorm:   0.15000    
               vcte:    0.0000    
               rinn:    0.0000    
                rcs:    0.0000      0.0000    
            lambdas:    1.0000      1.0000    
L=1  Nsemic=0  Cnfigmx=2
          n=1  nzeta=2  polorb=1
            splnorm:   0.15000    
               vcte:    0.0000    
               rinn:    0.0000    
                rcs:    0.0000      0.0000    
            lambdas:    1.0000      1.0000    
-------------------------------------------------------------------------------
L=0  Nkbl=1  erefs: 0.17977+309
L=1  Nkbl=1  erefs: 0.17977+309
L=2  Nkbl=1  erefs: 0.17977+309
L=3  Nkbl=1  erefs: 0.17977+309
===============================================================================
</basis_specs>

atom: Called for N                     (Z =   7)

read_vps: Pseudopotential generation method:
read_vps: ATM3      Troullier-Martins                       
Total valence charge:    5.00000

read_vps: Pseudopotential includes a core correction:
read_vps: Pseudo-core for xc-correction

xc_check: Exchange-correlation functional:
xc_check: GGA Perdew, Burke & Ernzerhof 1996
V l=0 = -2*Zval/r beyond r=  1.4606
V l=1 = -2*Zval/r beyond r=  1.4606
V l=2 = -2*Zval/r beyond r=  1.4606
V l=3 = -2*Zval/r beyond r=  1.4606
All V_l potentials equal beyond r=  1.4606
This should be close to max(r_c) in ps generation
All pots = -2*Zval/r beyond r=  1.4606

VLOCAL1: 99.0% of the norm of Vloc inside     20.347 Ry
VLOCAL1: 99.9% of the norm of Vloc inside     46.372 Ry
atom: Maximum radius for 4*pi*r*r*local-pseudopot. charge    1.76189
atom: Maximum radius for r*vlocal+2*Zval:    1.53550
GHOST: No ghost state for L =  0
GHOST: No ghost state for L =  1
GHOST: No ghost state for L =  2
GHOST: No ghost state for L =  3

KBgen: Kleinman-Bylander projectors: 
   l= 0   rc=  1.634559   el= -1.363963   Ekb=  5.296955   kbcos=  0.335621
   l= 1   rc=  1.614250   el= -0.521451   Ekb= -5.259161   kbcos= -0.433408
   l= 2   rc=  1.718383   el=  0.001991   Ekb= -1.271464   kbcos= -0.007566
   l= 3   rc=  1.761893   el=  0.003093   Ekb= -0.494769   kbcos= -0.001015

KBgen: Total number of  Kleinman-Bylander projectors:   16
atom: -------------------------------------------------------------------------

atom: SANKEY-TYPE ORBITALS:
atom: Selected multiple-zeta basis: split     

SPLIT: Orbitals with angular momentum L= 0

SPLIT: Basis orbitals for state 2s

SPLIT: PAO cut-off radius determined from an
SPLIT: energy shift=  0.007350 Ry

   izeta = 1
                 lambda =    1.000000
                     rc =    4.071465
                 energy =   -1.356470
                kinetic =    1.176977
    potential(screened) =   -2.533447
       potential(ionic) =   -8.057990

   izeta = 2
                 rmatch =    2.905100
              splitnorm =    0.150000
                 energy =   -1.158343
                kinetic =    1.813009
    potential(screened) =   -2.971352
       potential(ionic) =   -8.901931

SPLIT: Orbitals with angular momentum L= 1

SPLIT: Basis orbitals for state 2p

SPLIT: PAO cut-off radius determined from an
SPLIT: energy shift=  0.007350 Ry

   izeta = 1
                 lambda =    1.000000
                     rc =    4.972977
                 energy =   -0.513884
                kinetic =    3.441732
    potential(screened) =   -3.955616
       potential(ionic) =   -9.287901

   izeta = 2
                 rmatch =    3.054066
              splitnorm =    0.150000
                 energy =   -0.318226
                kinetic =    5.125348
    potential(screened) =   -5.443573
       potential(ionic) =  -11.380999

POLgen: Perturbative polarization orbital with L=  2

POLgen: Polarization orbital for state 2p

   izeta = 1
                     rc =    4.972977
                 energy =    1.607437
                kinetic =    3.268125
    potential(screened) =   -1.660688
       potential(ionic) =   -5.973652
atom: Total number of Sankey-type orbitals: 13

atm_pop: Valence configuration (for local Pseudopot. screening):
 2s( 2.00)                                                            
 2p( 3.00)                                                            
Vna: chval, zval:    5.00000   5.00000

Vna:  Cut-off radius for the neutral-atom potential:   4.972977
comcore: Pseudo-core radius Rcore=  1.554824

atom: _________________________________________________________________________

<basis_specs>
===============================================================================
C                    Z=   6    Mass=  12.010        Charge= 0.17977+309
Lmxo=1 Lmxkb= 3    BasisType=split      Semic=F
L=0  Nsemic=0  Cnfigmx=2
          n=1  nzeta=2  polorb=0
            splnorm:   0.15000    
               vcte:    0.0000    
               rinn:    0.0000    
                rcs:    0.0000      0.0000    
            lambdas:    1.0000      1.0000    
L=1  Nsemic=0  Cnfigmx=2
          n=1  nzeta=2  polorb=1
            splnorm:   0.15000    
               vcte:    0.0000    
               rinn:    0.0000    
                rcs:    0.0000      0.0000    
            lambdas:    1.0000      1.0000    
-------------------------------------------------------------------------------
L=0  Nkbl=1  erefs: 0.17977+309
L=1  Nkbl=1  erefs: 0.17977+309
L=2  Nkbl=1  erefs: 0.17977+309
L=3  Nkbl=1  erefs: 0.17977+309
===============================================================================
</basis_specs>

atom: Called for C                     (Z =   6)

read_vps: Pseudopotential generation method:
read_vps: ATM3      Troullier-Martins                       
Total valence charge:    4.00000

read_vps: Pseudopotential includes a core correction:
read_vps: Pseudo-core for xc-correction

xc_check: Exchange-correlation functional:
xc_check: GGA Perdew, Burke & Ernzerhof 1996
V l=0 = -2*Zval/r beyond r=  1.5227
V l=1 = -2*Zval/r beyond r=  1.5227
V l=2 = -2*Zval/r beyond r=  1.5227
V l=3 = -2*Zval/r beyond r=  1.5038
All V_l potentials equal beyond r=  1.5227
This should be close to max(r_c) in ps generation
All pots = -2*Zval/r beyond r=  1.5227

VLOCAL1: 99.0% of the norm of Vloc inside     18.722 Ry
VLOCAL1: 99.9% of the norm of Vloc inside     42.668 Ry
atom: Maximum radius for 4*pi*r*r*local-pseudopot. charge    1.83678
atom: Maximum radius for r*vlocal+2*Zval:    1.58088
GHOST: No ghost state for L =  0
GHOST: No ghost state for L =  1
GHOST: No ghost state for L =  2
GHOST: No ghost state for L =  3

KBgen: Kleinman-Bylander projectors: 
   l= 0   rc=  1.704034   el= -1.009801   Ekb=  5.335044   kbcos=  0.316824
   l= 1   rc=  1.704034   el= -0.388707   Ekb= -3.785862   kbcos= -0.366464
   l= 2   rc=  1.791422   el=  0.001971   Ekb= -0.970471   kbcos= -0.009212
   l= 3   rc=  1.859892   el=  0.003065   Ekb= -0.399525   kbcos= -0.001223

KBgen: Total number of  Kleinman-Bylander projectors:   16
atom: -------------------------------------------------------------------------

atom: SANKEY-TYPE ORBITALS:
atom: Selected multiple-zeta basis: split     

SPLIT: Orbitals with angular momentum L= 0

SPLIT: Basis orbitals for state 2s

SPLIT: PAO cut-off radius determined from an
SPLIT: energy shift=  0.007350 Ry

   izeta = 1
                 lambda =    1.000000
                     rc =    4.632753
                 energy =   -1.002270
                kinetic =    0.855760
    potential(screened) =   -1.858031
       potential(ionic) =   -5.417575

   izeta = 2
                 rmatch =    3.431921
              splitnorm =    0.150000
                 energy =   -0.867111
                kinetic =    1.300804
    potential(screened) =   -2.167915
       potential(ionic) =   -5.962684

SPLIT: Orbitals with angular momentum L= 1

SPLIT: Basis orbitals for state 2p

SPLIT: PAO cut-off radius determined from an
SPLIT: energy shift=  0.007350 Ry

   izeta = 1
                 lambda =    1.000000
                     rc =    5.658549
                 energy =   -0.381140
                kinetic =    2.399701
    potential(screened) =   -2.780841
       potential(ionic) =   -6.206085

   izeta = 2
                 rmatch =    3.653288
              splitnorm =    0.150000
                 energy =   -0.249149
                kinetic =    3.542762
    potential(screened) =   -3.791911
       potential(ionic) =   -7.581078

POLgen: Perturbative polarization orbital with L=  2

POLgen: Polarization orbital for state 2p

   izeta = 1
                     rc =    5.658549
                 energy =    1.109913
                kinetic =    2.304789
    potential(screened) =   -1.194876
       potential(ionic) =   -4.013592
atom: Total number of Sankey-type orbitals: 13

atm_pop: Valence configuration (for local Pseudopot. screening):
 2s( 2.00)                                                            
 2p( 2.00)                                                            
Vna: chval, zval:    4.00000   4.00000

Vna:  Cut-off radius for the neutral-atom potential:   5.658549
comcore: Pseudo-core radius Rcore=  1.791422

atom: _________________________________________________________________________

prinput: Basis input ----------------------------------------------------------

PAO.BasisType split     

%block ChemicalSpeciesLabel
    1    7 N                       # Species index, atomic number, species label
    2    6 C                       # Species index, atomic number, species label
%endblock ChemicalSpeciesLabel

%block PAO.Basis                 # Define Basis set
N                     2                    # Species label, number of l-shells
 n=2   0   2                         # n, l, Nzeta 
   4.071      2.905   
   1.000      1.000   
 n=2   1   2 P   1                   # n, l, Nzeta, Polarization, NzetaPol
   4.973      3.054   
   1.000      1.000   
C                     2                    # Species label, number of l-shells
 n=2   0   2                         # n, l, Nzeta 
   4.633      3.432   
   1.000      1.000   
 n=2   1   2 P   1                   # n, l, Nzeta, Polarization, NzetaPol
   5.659      3.653   
   1.000      1.000   
%endblock PAO.Basis

prinput: ----------------------------------------------------------------------

coor:   Atomic-coordinates input format  =     Fractional

siesta: Atomic coordinates (Bohr) and species
siesta:      2.30256   6.62836   0.00000  1        1
siesta:      2.30256   9.31683   0.00000  1        2
siesta:     -0.02582  10.66124   0.00000  1        3
siesta:     -0.02582  13.34970   0.00000  1        4
siesta:     -2.35420  14.69411   0.00000  1        5
siesta:     -2.35420  17.38257   0.00000  1        6
siesta:     -0.02582  18.72698   0.00000  1        7
siesta:     -0.02582  21.41544   0.00000  1        8
siesta:      2.30256  22.75985   0.00000  1        9
siesta:      2.30256  25.44831   0.00000  1       10
siesta:     -0.02582   2.59549   0.00000  2       11
siesta:     -0.02582   5.28395   0.00000  2       12
siesta:     -2.35420  38.89134   0.00000  2       13
siesta:     -2.35420  41.57980   0.00000  2       14
siesta:      2.30256  38.89134   0.00000  2       15
siesta:      2.30256  41.57980   0.00000  2       16
siesta:      4.63094  34.85847   0.00000  2       17
siesta:      4.63094  37.54693   0.00000  2       18
siesta:      6.95932  30.82560   0.00000  2       19
siesta:      6.95932  33.51406   0.00000  2       20
siesta:      9.28770  26.79272   0.00000  2       21
siesta:      9.28770  29.48119   0.00000  2       22
siesta:     -4.68258  34.85847   0.00000  2       23
siesta:     -4.68258  37.54693   0.00000  2       24
siesta:      4.63094  10.66124   0.00000  2       25
siesta:      4.63094  13.34970   0.00000  2       26
siesta:      6.95932  14.69411   0.00000  2       27
siesta:      6.95932  17.38257   0.00000  2       28
siesta:      9.28770  18.72698   0.00000  2       29
siesta:      9.28770  21.41544   0.00000  2       30
siesta:     11.61608  22.75985   0.00000  2       31
siesta:     11.61608  25.44831   0.00000  2       32
siesta:     -2.35420   6.62836   0.00000  2       33
siesta:     -2.35420   9.31683   0.00000  2       34
siesta:      2.30256  14.69411   0.00000  2       35
siesta:      2.30256  17.38257   0.00000  2       36
siesta:      4.63094  18.72698   0.00000  2       37
siesta:      4.63094  21.41544   0.00000  2       38
siesta:      6.95932  22.75985   0.00000  2       39
siesta:      6.95932  25.44831   0.00000  2       40
siesta:     -4.68258  10.66124   0.00000  2       41
siesta:     -4.68258  13.34970   0.00000  2       42
siesta:     -7.01096  14.69411   0.00000  2       43
siesta:     -7.01096  17.38257   0.00000  2       44
siesta:     -4.68258  18.72698   0.00000  2       45
siesta:     -4.68258  21.41544   0.00000  2       46
siesta:     -2.35420  22.75985   0.00000  2       47
siesta:     -2.35420  25.44831   0.00000  2       48
siesta:     -9.33934  18.72698   0.00000  2       49
siesta:     -9.33934  21.41544   0.00000  2       50
siesta:     -7.01096  22.75985   0.00000  2       51
siesta:     -7.01096  25.44831   0.00000  2       52
siesta:    -11.66772  22.75985   0.00000  2       53
siesta:    -11.66772  25.44831   0.00000  2       54
siesta:     -9.33934  26.79272   0.00000  2       55
siesta:     -9.33934  29.48119   0.00000  2       56
siesta:      4.63094  26.79272   0.00000  2       57
siesta:      4.63094  29.48119   0.00000  2       58
siesta:     -0.02582  26.79272   0.00000  2       59
siesta:     -0.02582  29.48119   0.00000  2       60
siesta:     -4.68258  26.79272   0.00000  2       61
siesta:     -4.68258  29.48119   0.00000  2       62
siesta:      2.30256  30.82560   0.00000  2       63
siesta:      2.30256  33.51406   0.00000  2       64
siesta:     -2.35420  30.82560   0.00000  2       65
siesta:     -2.35420  33.51406   0.00000  2       66
siesta:     -7.01096  30.82560   0.00000  2       67
siesta:     -7.01096  33.51406   0.00000  2       68
siesta:     -0.02582  34.85847   0.00000  2       69
siesta:     -0.02582  37.54693   0.00000  2       70
siesta:     -0.02582  42.92421   0.00000  2       71
siesta:     -0.02582  45.61267   0.00000  2       72

siesta: System type = slab      

initatomlists: Number of atoms, orbitals, and projectors:     72   936  1152

siesta: ******************** Simulation parameters ****************************
siesta:
siesta: The following are some of the parameters of the simulation.
siesta: A complete list of the parameters used, including default values,
siesta: can be found in file out.fdf
siesta:
redata: Non-Collinear-spin run           =     F
redata: SpinPolarized (Up/Down) run      =     F
redata: Number of spin components        =     1
redata: Long output                      =     F
redata: Number of Atomic Species         =        2
redata: Charge density info will appear in .RHO file
redata: Write Mulliken Pop.              =     NO
redata: Mesh Cutoff                      =   200.0000  Ry
redata: Net charge of the system         =     0.0000 |e|
redata: Max. number of SCF Iter          =      500
redata: SCF convergence failure will abort job
redata: Performing Pulay mixing using    =    10 iterations
redata: Mix DM in first SCF step ?       =     F
redata: Write Pulay info on disk?        =     F
redata: Discard 1st Pulay DM after  kick =     F
redata: New DM Mixing Weight             =     0.0500
redata: New DM Occupancy tolerance       = 0.000000000001
redata: No kicks to SCF
redata: DM Mixing Weight for Kicks       =     0.5000
redata: DM Tolerance for SCF             =     0.000100
redata: Require Energy convergence for SCF =     F
redata: DM Energy tolerance for SCF      =     0.000100 eV
redata: Require Harris convergence for SCF =     F
redata: DM Harris energy tolerance for SCF =     0.000100 eV
redata: Using Saved Data (generic)   =     F
redata: Use continuation files for DM    =     T
redata: Neglect nonoverlap interactions  =     F
redata: Method of Calculation            =     Diagonalization
redata: Divide and Conquer               =     T
redata: Electronic Temperature           =     0.0019  Ry
redata: Fix the spin of the system       =     F
redata: Dynamics option                  =     Verlet MD run
redata: Initial MD time step             =        1
redata:   Final MD time step             =        1
redata: Length of MD time step           =     1.0000  fs
redata: Initial Temperature of MD run    =     0.0000  K
redata: Perform a MD quench              =     F
redata: ***********************************************************************
Total number of electrons:   298.000000
Total ionic charge:   298.000000

* ProcessorY, Blocksize:    3  24

k-point displ. along   1 input, could be:     0.50    0.00
k-point displ. along   2 input, could be:     0.50    0.00
 Kpoints in:          231 . Kpoints trimmed:          231

siesta: k-grid: Number of k-points =   231
siesta: k-grid: Cutoff (effective) =     5.000 Ang
siesta: k-grid: Supercell and displacements
siesta: k-grid:   21   0   0      0.500
siesta: k-grid:    0  21   0      0.500
siesta: k-grid:    0   0   1      0.000
Naive supercell factors:     2    2    2

superc: Internal auxiliary supercell:     2 x     2 x     2  =       8
superc: Number of atoms, orbitals, and projectors:    576   7488   9216

* Maximum dynamic memory allocated =     4 MB

siesta:                 ==============================
                            Begin MD step =      1
                        ==============================

superc: Internal auxiliary supercell:     2 x     2 x     2  =       8
superc: Number of atoms, orbitals, and projectors:    576   7488   9216

outcell: Unit cell vectors (Ang):
       12.804619    7.392750    0.000000
        0.000000   14.785500    0.000000
        0.000000    0.000000   10.000000

outcell: Cell vector modules (Ang)   :   14.785500   14.785500   10.000000
outcell: Cell angles (23,13,12) (deg):     90.0000     90.0000     60.0000
outcell: Cell volume (Ang**3)        :   1893.2269
New_DM. Step:     1
Initializing Density Matrix...

InitMesh: MESH =   120 x   120 x    90 =     1296000
InitMesh: Mesh cutoff (required, used) =   200.000   223.865 Ry

* Maximum dynamic memory allocated =   137 MB

stepf: Fermi-Dirac step function

siesta: Program's energy decomposition (eV):
siesta: Ebs     =     -6123.540510
siesta: Eions   =     20010.479513
siesta: Ena     =      4833.602116
siesta: Ekin    =      7217.402668
siesta: Enl     =       325.092231
siesta: DEna    =        -0.000015
siesta: DUscf   =         0.000000
siesta: DUext   =         0.000000
siesta: Exc     =     -4425.468897
siesta: eta*DQ  =         0.000000
siesta: Emadel  =         0.000000
siesta: Emeta   =         0.000000
siesta: Emolmec =         0.000000
siesta: Ekinion =         0.000000
siesta: Eharris =    -11697.512114
siesta: Etot    =    -12059.851410
siesta: FreeEng =    -12059.851410

siesta: iscf   Eharris(eV)      E_KS(eV)   FreeEng(eV)   dDmax  Ef(eV)
siesta:    1   -11697.5121   -12059.8514   -12059.8514  6.1929 -7.4155
timer: Routine,Calls,Time,% = IterSCF        1    5391.251  99.74
elaps: Routine,Calls,Wall,% = IterSCF        1     469.911  99.75
siesta:    2   -14789.4903   -11185.8781   -11185.9086 10.8565 -1.9804
siesta:    3   -11626.6747   -11808.4767   -11808.4787  1.9171 -4.5234
siesta:    4   -11588.0625   -11707.0283   -11707.0436  1.0057 -4.3191
siesta:    5   -11556.3310   -11644.7366   -11644.7451  0.7498 -4.1880
siesta:    6   -11553.2840   -11633.7165   -11633.7703  0.7450 -4.1951
siesta:    7   -11550.9368   -11625.4028   -11625.4618  0.7002 -4.2699
siesta:    8   -11548.0978   -11593.6036   -11593.6415  0.5767 -4.3503
siesta:    9   -11546.5804   -11585.6770   -11585.7136  0.5730 -4.3017
siesta:   10   -11545.5786   -11565.3193   -11565.3542  0.4415 -4.2542
siesta:   11   -11545.4902   -11555.1336   -11555.1936  0.2966 -4.2360
siesta:   12   -11545.4048   -11543.1396   -11543.2115  0.2383 -4.2278
siesta:   13   -11545.1553   -11537.7624   -11537.8183  0.2172 -4.2553
siesta:   14   -11544.8558   -11538.6834   -11538.7359  0.1267 -4.3171
siesta:   15   -11544.6813   -11538.7158   -11538.7863  0.0845 -4.3271
siesta:   16   -11544.6285   -11539.6174   -11539.6806  0.0994 -4.3289
siesta:   17   -11544.5983   -11539.1065   -11539.1824  0.0703 -4.3266
siesta:   18   -11544.5265   -11541.5284   -11541.5999  0.0450 -4.3164
siesta:   19   -11544.5239   -11541.4258   -11541.5103  0.0331 -4.3156
siesta:   20   -11544.5228   -11541.0128   -11541.0949  0.0223 -4.3081
siesta:   21   -11544.5187   -11541.3404   -11541.4213  0.0157 -4.3114
siesta:   22   -11544.5160   -11542.8594   -11542.9399  0.0171 -4.3138
siesta:   23   -11544.5147   -11543.4758   -11543.5560  0.0085 -4.3168
siesta:   24   -11544.5124   -11544.1627   -11544.2419  0.0068 -4.3194
siesta:   25   -11544.5118   -11544.2173   -11544.2973  0.0055 -4.3198
siesta:   26   -11544.5114   -11544.3039   -11544.3841  0.0051 -4.3194
siesta:   27   -11544.5110   -11544.3761   -11544.4564  0.0032 -4.3187
siesta:   28   -11544.5113   -11544.4629   -11544.5435  0.0024 -4.3180
siesta:   29   -11544.5112   -11544.4768   -11544.5570  0.0013 -4.3178
siesta:   30   -11544.5113   -11544.4922   -11544.5725  0.0009 -4.3176
siesta:   31   -11544.5112   -11544.4988   -11544.5790  0.0006 -4.3176
siesta:   32   -11544.5112   -11544.5092   -11544.5895  0.0003 -4.3177
siesta:   33   -11544.5112   -11544.5158   -11544.5961  0.0003 -4.3178
siesta:   34   -11544.5112   -11544.5193   -11544.5996  0.0001 -4.3179
siesta:   35   -11544.5112   -11544.5197   -11544.6000  0.0001 -4.3179

siesta: E_KS(eV) =           -11544.5178

siesta: E_KS - E_eggbox =    -11544.5178

siesta: Atomic forces (eV/Ang):
----------------------------------------
   Tot   -0.135027    0.153301    0.000000
----------------------------------------
   Max  680.328203
   Res  176.322276    sqrt( Sum f_i^2 / 3N )
----------------------------------------
   Max  680.328203    constrained

Stress-tensor-Voigt (kbar):     -660.29    -3156.23       -0.16      -22.00        0.00        0.00
(Free)E + p*V (eV/cell)   -10041.2739
Target enthalpy (eV/cell)   -11544.5981

siesta: Stress tensor (static) (eV/Ang**3):
        -0.412118   -0.013732    0.000000
        -0.013732   -1.969944    0.000000
         0.000000    0.000000   -0.000100

siesta: Pressure (static):       1272.22837423  kBar

siesta: Stress tensor (total) (eV/Ang**3):
        -0.412118   -0.013732    0.000000
        -0.013732   -1.969944    0.000000
         0.000000    0.000000   -0.000100

siesta: Pressure (total):       1272.22837423  kBar

siesta: Temp_ion =       0.000 K

* Maximum dynamic memory allocated =   150 MB
Computing bands...

siesta: Program's energy decomposition (eV):
siesta: Ebs     =     -4834.377455
siesta: Eions   =     20010.479513
siesta: Ena     =      4833.602116
siesta: Ekin    =     10356.652421
siesta: Enl     =     -1407.476100
siesta: DEna    =      -820.468990
siesta: DUscf   =       109.493858
siesta: DUext   =         0.000000
siesta: Exc     =     -4605.841580
siesta: eta*DQ  =         0.000000
siesta: Emadel  =         0.000000
siesta: Emeta   =         0.000000
siesta: Emolmec =         0.000000
siesta: Ekinion =         0.000000
siesta: Eharris =    -11544.511176
siesta: Etot    =    -11544.517788
siesta: FreeEng =    -11544.598088

siesta: Final energy (eV):
siesta:  Band Struct. =   -4834.377455
siesta:       Kinetic =   10356.652421
siesta:       Hartree =   34181.031073
siesta:    Ext. field =       0.000000
siesta:   Exch.-corr. =   -4605.841580
siesta:  Ion-electron =  -78320.273020
siesta:       Ion-ion =   26843.913317
siesta:       Ekinion =       0.000000
siesta:         Total =  -11544.517788

siesta: Atomic forces (eV/Ang):
siesta:      1   12.865804  648.576266    0.000000
siesta:      2    1.333797 -104.400928    0.000000
siesta:      3   -6.721323  658.585497    0.000000
siesta:      4    3.158193 -108.246981    0.000000
siesta:      5   -7.972730  677.247956    0.000000
siesta:      6  -35.009535  -10.386508    0.000000
siesta:      7   20.816422  680.328203    0.000000
siesta:      8    0.348093   -2.136482    0.000000
siesta:      9    2.247522    0.307838    0.000000
siesta:     10   -0.383129    1.074208    0.000000
siesta:     11   -0.657002  548.020586    0.000000
siesta:     12   -3.215536 -130.474880    0.000000
siesta:     13    2.635017  120.199465    0.000000
siesta:     14  -13.248493 -657.540363    0.000000
siesta:     15    1.861815  119.566129    0.000000
siesta:     16   -3.293092 -546.553371    0.000000
siesta:     17   27.847675    5.091830    0.000000
siesta:     18   22.792664 -552.301936    0.000000
siesta:     19    2.121637   -0.075632    0.000000
siesta:     20   -2.946754    1.081633    0.000000
siesta:     21    2.241716    2.108491    0.000000
siesta:     22   -1.075724    0.344402    0.000000
siesta:     23  -26.552288    5.457706    0.000000
siesta:     24  -34.090202 -551.784532    0.000000
siesta:     25   30.681076  553.631282    0.000000
siesta:     26   27.666675   -4.749670    0.000000
siesta:     27   -3.012484   -1.594846    0.000000
siesta:     28    2.086177   -0.062981    0.000000
siesta:     29   -1.043622   -0.514562    0.000000
siesta:     30    2.181110   -1.947135    0.000000
siesta:     31   -0.277619    7.568645    0.000000
siesta:     32   -0.261985   -7.615663    0.000000
siesta:     33  -11.241961  547.966636    0.000000
siesta:     34   -1.324256 -127.203494    0.000000
siesta:     35   26.605981  561.787572    0.000000
siesta:     36   26.207434   -9.617011    0.000000
siesta:     37   -1.831919    3.757314    0.000000
siesta:     38   -0.665019   -0.400449    0.000000
siesta:     39   -0.412748    0.984884    0.000000
siesta:     40   -0.490454   -0.790784    0.000000
siesta:     41  -29.563806  548.723977    0.000000
siesta:     42  -27.130361   -9.813082    0.000000
siesta:     43    1.962665   -1.785539    0.000000
siesta:     44   -1.132222   -0.464533    0.000000
siesta:     45    0.280706    2.874847    0.000000
siesta:     46    1.134416   -1.030222    0.000000
siesta:     47   -0.929000    0.873172    0.000000
siesta:     48    1.339703   -1.020275    0.000000
siesta:     49    1.051765   -0.207438    0.000000
siesta:     50   -2.272071   -2.012575    0.000000
siesta:     51   -0.011909    0.962722    0.000000
siesta:     52    0.358442   -0.715381    0.000000
siesta:     53    0.249978    7.504315    0.000000
siesta:     54    0.228337   -7.553734    0.000000
siesta:     55   -2.469331    2.098750    0.000000
siesta:     56    1.296672    0.144738    0.000000
siesta:     57   -0.209257   -0.296381    0.000000
siesta:     58   -1.730995   -3.238336    0.000000
siesta:     59    0.588015   -1.617534    0.000000
siesta:     60    0.988685 -563.786897    0.000000
siesta:     61   -0.602840    0.548389    0.000000
siesta:     62    0.874803   -2.731230    0.000000
siesta:     63   22.466510    5.319879    0.000000
siesta:     64   18.816972 -677.280535    0.000000
siesta:     65  -22.066349    5.378386    0.000000
siesta:     66  -21.858562 -560.321518    0.000000
siesta:     67   -1.943222   -0.155276    0.000000
siesta:     68    2.766648    2.194117    0.000000
siesta:     69    2.157012  123.906770    0.000000
siesta:     70   11.045990 -669.464960    0.000000
siesta:     71    1.946571  117.624926    0.000000
siesta:     72  -17.739920 -639.794573    0.000000
siesta: ----------------------------------------
siesta:    Tot   -0.135027    0.153301    0.000000

siesta: Stress tensor (static) (eV/Ang**3):
siesta:    -0.412118   -0.013732    0.000000
siesta:    -0.013732   -1.969944    0.000000
siesta:     0.000000    0.000000   -0.000100

siesta: Cell volume =       1893.226884 Ang**3

siesta: Pressure (static):
siesta:                Solid            Molecule  Units
siesta:           0.00864826          0.13942741  Ry/Bohr**3
siesta:           0.79405391         12.80175025  eV/Ang**3
siesta:        1272.22837423      20510.88682518  kBar
(Free)E+ p_basis*V_orbitals  =      -11515.290105
(Free)Eharris+ p_basis*V_orbitals  =      -11515.281608

siesta: Electric dipole (a.u.)  =    0.000000    0.000000    0.000000
siesta: Electric dipole (Debye) =    0.000000    0.000000    0.000000

* Maximum dynamic memory allocated : Node    0 =   150 MB
* Maximum dynamic memory allocated : Node    1 =    60 MB
* Maximum dynamic memory allocated : Node    2 =    60 MB
* Maximum dynamic memory allocated : Node    3 =   136 MB
* Maximum dynamic memory allocated : Node    4 =   143 MB
* Maximum dynamic memory allocated : Node    5 =    53 MB
* Maximum dynamic memory allocated : Node    6 =    55 MB
* Maximum dynamic memory allocated : Node    7 =   139 MB
* Maximum dynamic memory allocated : Node    8 =   131 MB
* Maximum dynamic memory allocated : Node    9 =    53 MB
* Maximum dynamic memory allocated : Node   10 =    54 MB
* Maximum dynamic memory allocated : Node   11 =   124 MB

* Maximum memory occured during matrixMtoO                    

timer: CPU execution times:
timer:  Routine       Calls   Time/call    Tot.time        %
timer:  siesta            1  186494.744  186494.744   100.00
timer:  Setup             1       3.885       3.885     0.00
timer:  bands             3     420.955    1262.865     0.68
timer:  writewave         1       0.004       0.004     0.00
timer:  KSV_init          1       0.000       0.000     0.00
timer:  IterMD            1  185220.311  185220.311    99.32
timer:  hsparse           1       0.163       0.163     0.00
timer:  overlap           1       6.309       6.309     0.00
timer:  IterSCF          35    5288.269  185089.421    99.25
timer:  kinefsm           2       3.201       6.401     0.00
timer:  nlefsm            2      18.359      36.717     0.02
timer:  DHSCF            36      66.299    2386.774     1.28
timer:  DHSCF1            1       0.897       0.897     0.00
timer:  DHSCF2            1      26.882      26.882     0.01
timer:  REORD           290       0.002       0.639     0.00
timer:  POISON           37       0.624      23.101     0.01
timer:  DHSCF3           36      64.930    2337.477     1.25
timer:  rhoofd           36      12.752     459.064     0.25
timer:  cellXC           36       3.036     109.304     0.06
timer:  vmat             36      30.305    1090.990     0.58
timer:  MolMec            2       0.000       0.001     0.00
timer:  diagon           35    5219.759  182691.582    97.96
timer:  c-eigval       8206      10.396   85307.508    45.74
timer:  c-buildHS      8206       0.031     255.457     0.14
timer:  cdiag         16291      10.663  173718.444    93.15
timer:  cdiag1        16291       0.479    7802.099     4.18
timer:  cdiag2        16291       3.390   55231.231    29.62
timer:  cdiag3        16291       6.337  103241.043    55.36
timer:  cdiag4        16291       0.168    2736.890     1.47
timer:  c-eigvec       8085      10.994   88889.708    47.66
timer:  c-buildD       8085       1.201    9711.930     5.21
timer:  DHSCF4            1      21.330      21.330     0.01
timer:  dfscf             1      19.894      19.894     0.01
timer:  overfsm           1       0.285       0.285     0.00
timer:  optical           1       7.219       7.219     0.00
  

elaps: ELAPSED times:
elaps:  Routine       Calls   Time/call    Tot.time        %
elaps:  siesta            1   16254.802   16254.802   100.00
elaps:  Setup             1       0.332       0.332     0.00
elaps:  bands             3      36.718     110.153     0.68
elaps:  writewave         1       0.002       0.002     0.00
elaps:  KSV_init          1       0.000       0.000     0.00
elaps:  IterMD            1   16143.722   16143.722    99.32
elaps:  hsparse           1       0.016       0.016     0.00
elaps:  overlap           1       0.823       0.823     0.01
elaps:  IterSCF          35     460.923   16132.317    99.25
elaps:  kinefsm           2       0.415       0.830     0.01
elaps:  nlefsm            2       2.040       4.079     0.03
elaps:  DHSCF            36       5.836     210.100     1.29
elaps:  DHSCF1            1       0.077       0.077     0.00
elaps:  DHSCF2            1       2.349       2.349     0.01
elaps:  REORD           290       0.000       0.082     0.00
elaps:  POISON           37       0.056       2.056     0.01
elaps:  DHSCF3           36       5.659     203.729     1.25
elaps:  rhoofd           36       2.581      92.914     0.57
elaps:  cellXC           36       0.264       9.511     0.06
elaps:  vmat             36       2.642      95.109     0.59
elaps:  MolMec            2       0.000       0.000     0.00
elaps:  diagon           35     454.960   15923.589    97.96
elaps:  c-eigval       8206       0.906    7435.446    45.74
elaps:  c-buildHS      8206       0.003      27.847     0.17
elaps:  cdiag         16291       0.925   15070.278    92.71
elaps:  cdiag1        16291       0.041     672.100     4.13
elaps:  cdiag2        16291       0.296    4822.009    29.67
elaps:  cdiag3        16291       0.554    9018.246    55.48
elaps:  cdiag4        16291       0.014     224.826     1.38
elaps:  c-eigvec       8085       0.951    7692.722    47.33
elaps:  c-buildD       8085       0.111     899.524     5.53
elaps:  DHSCF4            1       3.909       3.909     0.02
elaps:  dfscf             1       3.717       3.717     0.02
elaps:  overfsm           1       0.031       0.031     0.00
elaps:  optical           1       0.000       0.000     0.00
  
>> End of run:   7-MAY-2016  21:00:39
