Siesta Version:                                        siesta-3.2-pl-3
Architecture  : x86_64-unknown-linux-gnu--unknown
Compiler flags: mpiifort -g -O2 -fPIC -xSSE4.1 -fp-model source -shared-intel 
PARALLEL version

* Running on   12 nodes in parallel
>> Start of run:   7-MAY-2016   3:46:48

                           ***********************       
                           *  WELCOME TO SIESTA  *       
                           ***********************       

reinit: Reading from standard input
************************** Dump of input data file ****************************
#(1) General system descriptors
SystemName            GRP_doping    # Descriptive name of the system
SystemLabel           GRP_doping    # Short name for naming files
%include STRUCT.fdf
%include KPT.fdf
%include BASIS.fdf
#%include TS.fdf # for transiesta calculation
#(4) DFT, Grid, SCF
XC.functional         GGA           # LDA or GGA (default = LDA)
XC.authors            PBE           # CA (Ceperley-Aldr) = PZ
                                    #    (Perdew-Zunger) - LDA - Default
                                    # PW92 (Perdew-Wang-92) - LDA
                                    # PBE (Perdew-Burke-Ernzerhof) - GGA
MeshCutoff            200.000000    Ry      # Default: 50.0 Ry ~ 0.444 Bohr
                                    #         100.0 Ry ~ 0.314 Bohr
MaxSCFIterations      500           # Default: 50
DM.MixingWeight       0.05          # Default: 0.25
DM.NumberPulay        10            # Default: 0
DM.PulayOnFile        F             # SystemLabel.P1, SystemLabel.P2
DM.Tolerance          1.d-4         # Default: 1.d-4
DM.UseSaveDM          .true.        # because of the bug
SCFMustConverge       .true.
NeglNonOverlapInt     F             # Default: F
#(5) Eigenvalue problem: order-N or diagonalization
SolutionMethod        Diagon        # or Transiesta
ElectronicTemperature 300.0 K       # Default: 300.0 K
#(6) Molecular dynamics and relaxations
#MD.TypeOfRun          CG            # Type of dynamics:
#MD.VariableCell       F
#MD.NumCGsteps         0           # 0 for single-point / 100 for gopt
#MD.MaxCGDispl         0.2 Bohr      # Default: 0.2 Bohr
#MD.MaxForceTol        0.02 eV/Ang   # Default: 0.04 eV/Ang
#MD.MaxStressTol       1.0 GPa       # Default: 1.0 GPa
# Geometry Constraints
#%block GeometryConstraints
#	position from 1 to 44
#%endblock GeometryConstraints
BandLinesScale   pi/a
%block BandLines
 1   0.00000000  0.00000000  0.00000000
50   0.00000000  0.07809418  0.00000000
50   0.04509075  0.07809242  0.00000000
20   0.00000000  0.00000000  0.00000000
%endblock BandLines
************************** End of input data file *****************************

reinit: -----------------------------------------------------------------------
reinit: System Name: GRP_doping
reinit: -----------------------------------------------------------------------
reinit: System Label: GRP_doping                                                  
reinit: -----------------------------------------------------------------------

initatom: Reading input for the pseudopotentials and atomic orbitals ----------
 Species number:            1  Label: N Atomic number:           7
 Species number:            2  Label: C Atomic number:           6
Ground state valence configuration:   2s02  2p03
Reading pseudopotential information in formatted form from N.psf

Valence configuration for pseudopotential generation:
2s( 2.00) rc: 1.48
2p( 3.00) rc: 1.48
3d( 0.00) rc: 1.48
4f( 0.00) rc: 1.48
Ground state valence configuration:   2s02  2p02
Reading pseudopotential information in formatted form from C.psf

Valence configuration for pseudopotential generation:
2s( 2.00) rc: 1.54
2p( 2.00) rc: 1.54
3d( 0.00) rc: 1.54
4f( 0.00) rc: 1.54
For N, standard SIESTA heuristics set lmxkb to 3
 (one more than the basis l, including polarization orbitals).
Use PS.lmax or PS.KBprojectors blocks to override.
For C, standard SIESTA heuristics set lmxkb to 3
 (one more than the basis l, including polarization orbitals).
Use PS.lmax or PS.KBprojectors blocks to override.

<basis_specs>
===============================================================================
N                    Z=   7    Mass=  14.010        Charge= 0.17977+309
Lmxo=1 Lmxkb= 3    BasisType=split      Semic=F
L=0  Nsemic=0  Cnfigmx=2
          n=1  nzeta=2  polorb=0
            splnorm:   0.15000    
               vcte:    0.0000    
               rinn:    0.0000    
                rcs:    0.0000      0.0000    
            lambdas:    1.0000      1.0000    
L=1  Nsemic=0  Cnfigmx=2
          n=1  nzeta=2  polorb=1
            splnorm:   0.15000    
               vcte:    0.0000    
               rinn:    0.0000    
                rcs:    0.0000      0.0000    
            lambdas:    1.0000      1.0000    
-------------------------------------------------------------------------------
L=0  Nkbl=1  erefs: 0.17977+309
L=1  Nkbl=1  erefs: 0.17977+309
L=2  Nkbl=1  erefs: 0.17977+309
L=3  Nkbl=1  erefs: 0.17977+309
===============================================================================
</basis_specs>

atom: Called for N                     (Z =   7)

read_vps: Pseudopotential generation method:
read_vps: ATM3      Troullier-Martins                       
Total valence charge:    5.00000

read_vps: Pseudopotential includes a core correction:
read_vps: Pseudo-core for xc-correction

xc_check: Exchange-correlation functional:
xc_check: GGA Perdew, Burke & Ernzerhof 1996
V l=0 = -2*Zval/r beyond r=  1.4606
V l=1 = -2*Zval/r beyond r=  1.4606
V l=2 = -2*Zval/r beyond r=  1.4606
V l=3 = -2*Zval/r beyond r=  1.4606
All V_l potentials equal beyond r=  1.4606
This should be close to max(r_c) in ps generation
All pots = -2*Zval/r beyond r=  1.4606

VLOCAL1: 99.0% of the norm of Vloc inside     20.347 Ry
VLOCAL1: 99.9% of the norm of Vloc inside     46.372 Ry
atom: Maximum radius for 4*pi*r*r*local-pseudopot. charge    1.76189
atom: Maximum radius for r*vlocal+2*Zval:    1.53550
GHOST: No ghost state for L =  0
GHOST: No ghost state for L =  1
GHOST: No ghost state for L =  2
GHOST: No ghost state for L =  3

KBgen: Kleinman-Bylander projectors: 
   l= 0   rc=  1.634559   el= -1.363963   Ekb=  5.296955   kbcos=  0.335621
   l= 1   rc=  1.614250   el= -0.521451   Ekb= -5.259161   kbcos= -0.433408
   l= 2   rc=  1.718383   el=  0.001991   Ekb= -1.271464   kbcos= -0.007566
   l= 3   rc=  1.761893   el=  0.003093   Ekb= -0.494769   kbcos= -0.001015

KBgen: Total number of  Kleinman-Bylander projectors:   16
atom: -------------------------------------------------------------------------

atom: SANKEY-TYPE ORBITALS:
atom: Selected multiple-zeta basis: split     

SPLIT: Orbitals with angular momentum L= 0

SPLIT: Basis orbitals for state 2s

SPLIT: PAO cut-off radius determined from an
SPLIT: energy shift=  0.007350 Ry

   izeta = 1
                 lambda =    1.000000
                     rc =    4.071465
                 energy =   -1.356470
                kinetic =    1.176977
    potential(screened) =   -2.533447
       potential(ionic) =   -8.057990

   izeta = 2
                 rmatch =    2.905100
              splitnorm =    0.150000
                 energy =   -1.158343
                kinetic =    1.813009
    potential(screened) =   -2.971352
       potential(ionic) =   -8.901931

SPLIT: Orbitals with angular momentum L= 1

SPLIT: Basis orbitals for state 2p

SPLIT: PAO cut-off radius determined from an
SPLIT: energy shift=  0.007350 Ry

   izeta = 1
                 lambda =    1.000000
                     rc =    4.972977
                 energy =   -0.513884
                kinetic =    3.441732
    potential(screened) =   -3.955616
       potential(ionic) =   -9.287901

   izeta = 2
                 rmatch =    3.054066
              splitnorm =    0.150000
                 energy =   -0.318226
                kinetic =    5.125348
    potential(screened) =   -5.443573
       potential(ionic) =  -11.380999

POLgen: Perturbative polarization orbital with L=  2

POLgen: Polarization orbital for state 2p

   izeta = 1
                     rc =    4.972977
                 energy =    1.607437
                kinetic =    3.268125
    potential(screened) =   -1.660688
       potential(ionic) =   -5.973652
atom: Total number of Sankey-type orbitals: 13

atm_pop: Valence configuration (for local Pseudopot. screening):
 2s( 2.00)                                                            
 2p( 3.00)                                                            
Vna: chval, zval:    5.00000   5.00000

Vna:  Cut-off radius for the neutral-atom potential:   4.972977
comcore: Pseudo-core radius Rcore=  1.554824

atom: _________________________________________________________________________

<basis_specs>
===============================================================================
C                    Z=   6    Mass=  12.010        Charge= 0.17977+309
Lmxo=1 Lmxkb= 3    BasisType=split      Semic=F
L=0  Nsemic=0  Cnfigmx=2
          n=1  nzeta=2  polorb=0
            splnorm:   0.15000    
               vcte:    0.0000    
               rinn:    0.0000    
                rcs:    0.0000      0.0000    
            lambdas:    1.0000      1.0000    
L=1  Nsemic=0  Cnfigmx=2
          n=1  nzeta=2  polorb=1
            splnorm:   0.15000    
               vcte:    0.0000    
               rinn:    0.0000    
                rcs:    0.0000      0.0000    
            lambdas:    1.0000      1.0000    
-------------------------------------------------------------------------------
L=0  Nkbl=1  erefs: 0.17977+309
L=1  Nkbl=1  erefs: 0.17977+309
L=2  Nkbl=1  erefs: 0.17977+309
L=3  Nkbl=1  erefs: 0.17977+309
===============================================================================
</basis_specs>

atom: Called for C                     (Z =   6)

read_vps: Pseudopotential generation method:
read_vps: ATM3      Troullier-Martins                       
Total valence charge:    4.00000

read_vps: Pseudopotential includes a core correction:
read_vps: Pseudo-core for xc-correction

xc_check: Exchange-correlation functional:
xc_check: GGA Perdew, Burke & Ernzerhof 1996
V l=0 = -2*Zval/r beyond r=  1.5227
V l=1 = -2*Zval/r beyond r=  1.5227
V l=2 = -2*Zval/r beyond r=  1.5227
V l=3 = -2*Zval/r beyond r=  1.5038
All V_l potentials equal beyond r=  1.5227
This should be close to max(r_c) in ps generation
All pots = -2*Zval/r beyond r=  1.5227

VLOCAL1: 99.0% of the norm of Vloc inside     18.722 Ry
VLOCAL1: 99.9% of the norm of Vloc inside     42.668 Ry
atom: Maximum radius for 4*pi*r*r*local-pseudopot. charge    1.83678
atom: Maximum radius for r*vlocal+2*Zval:    1.58088
GHOST: No ghost state for L =  0
GHOST: No ghost state for L =  1
GHOST: No ghost state for L =  2
GHOST: No ghost state for L =  3

KBgen: Kleinman-Bylander projectors: 
   l= 0   rc=  1.704034   el= -1.009801   Ekb=  5.335044   kbcos=  0.316824
   l= 1   rc=  1.704034   el= -0.388707   Ekb= -3.785862   kbcos= -0.366464
   l= 2   rc=  1.791422   el=  0.001971   Ekb= -0.970471   kbcos= -0.009212
   l= 3   rc=  1.859892   el=  0.003065   Ekb= -0.399525   kbcos= -0.001223

KBgen: Total number of  Kleinman-Bylander projectors:   16
atom: -------------------------------------------------------------------------

atom: SANKEY-TYPE ORBITALS:
atom: Selected multiple-zeta basis: split     

SPLIT: Orbitals with angular momentum L= 0

SPLIT: Basis orbitals for state 2s

SPLIT: PAO cut-off radius determined from an
SPLIT: energy shift=  0.007350 Ry

   izeta = 1
                 lambda =    1.000000
                     rc =    4.632753
                 energy =   -1.002270
                kinetic =    0.855760
    potential(screened) =   -1.858031
       potential(ionic) =   -5.417575

   izeta = 2
                 rmatch =    3.431921
              splitnorm =    0.150000
                 energy =   -0.867111
                kinetic =    1.300804
    potential(screened) =   -2.167915
       potential(ionic) =   -5.962684

SPLIT: Orbitals with angular momentum L= 1

SPLIT: Basis orbitals for state 2p

SPLIT: PAO cut-off radius determined from an
SPLIT: energy shift=  0.007350 Ry

   izeta = 1
                 lambda =    1.000000
                     rc =    5.658549
                 energy =   -0.381140
                kinetic =    2.399701
    potential(screened) =   -2.780841
       potential(ionic) =   -6.206085

   izeta = 2
                 rmatch =    3.653288
              splitnorm =    0.150000
                 energy =   -0.249149
                kinetic =    3.542762
    potential(screened) =   -3.791911
       potential(ionic) =   -7.581078

POLgen: Perturbative polarization orbital with L=  2

POLgen: Polarization orbital for state 2p

   izeta = 1
                     rc =    5.658549
                 energy =    1.109913
                kinetic =    2.304789
    potential(screened) =   -1.194876
       potential(ionic) =   -4.013592
atom: Total number of Sankey-type orbitals: 13

atm_pop: Valence configuration (for local Pseudopot. screening):
 2s( 2.00)                                                            
 2p( 2.00)                                                            
Vna: chval, zval:    4.00000   4.00000

Vna:  Cut-off radius for the neutral-atom potential:   5.658549
comcore: Pseudo-core radius Rcore=  1.791422

atom: _________________________________________________________________________

prinput: Basis input ----------------------------------------------------------

PAO.BasisType split     

%block ChemicalSpeciesLabel
    1    7 N                       # Species index, atomic number, species label
    2    6 C                       # Species index, atomic number, species label
%endblock ChemicalSpeciesLabel

%block PAO.Basis                 # Define Basis set
N                     2                    # Species label, number of l-shells
 n=2   0   2                         # n, l, Nzeta 
   4.071      2.905   
   1.000      1.000   
 n=2   1   2 P   1                   # n, l, Nzeta, Polarization, NzetaPol
   4.973      3.054   
   1.000      1.000   
C                     2                    # Species label, number of l-shells
 n=2   0   2                         # n, l, Nzeta 
   4.633      3.432   
   1.000      1.000   
 n=2   1   2 P   1                   # n, l, Nzeta, Polarization, NzetaPol
   5.659      3.653   
   1.000      1.000   
%endblock PAO.Basis

prinput: ----------------------------------------------------------------------

coor:   Atomic-coordinates input format  =     Fractional

siesta: Atomic coordinates (Bohr) and species
siesta:      2.30256   6.62836   0.00000  1        1
siesta:     -0.02582  13.34970   0.00000  1        2
siesta:      4.63094  21.41544   0.00000  1        3
siesta:     -4.68258  21.41544   0.00000  1        4
siesta:    -11.66772  25.44831   0.00000  1        5
siesta:      2.30256  30.82560   0.00000  1        6
siesta:     -2.35420  30.82560   0.00000  1        7
siesta:     -0.02582  42.92421   0.00000  1        8
siesta:     -0.02582   2.59549   0.00000  2        9
siesta:     -0.02582   5.28395   0.00000  2       10
siesta:     -2.35420  38.89134   0.00000  2       11
siesta:     -2.35420  41.57980   0.00000  2       12
siesta:      2.30256  38.89134   0.00000  2       13
siesta:      2.30256  41.57980   0.00000  2       14
siesta:      4.63094  34.85847   0.00000  2       15
siesta:      4.63094  37.54693   0.00000  2       16
siesta:      6.95932  30.82560   0.00000  2       17
siesta:      6.95932  33.51406   0.00000  2       18
siesta:      9.28770  26.79272   0.00000  2       19
siesta:      9.28770  29.48119   0.00000  2       20
siesta:     -4.68258  34.85847   0.00000  2       21
siesta:     -4.68258  37.54693   0.00000  2       22
siesta:      2.30256   9.31683   0.00000  2       23
siesta:      4.63094  10.66124   0.00000  2       24
siesta:      4.63094  13.34970   0.00000  2       25
siesta:      6.95932  14.69411   0.00000  2       26
siesta:      6.95932  17.38257   0.00000  2       27
siesta:      9.28770  18.72698   0.00000  2       28
siesta:      9.28770  21.41544   0.00000  2       29
siesta:     11.61608  22.75985   0.00000  2       30
siesta:     11.61608  25.44831   0.00000  2       31
siesta:     -2.35420   6.62836   0.00000  2       32
siesta:     -2.35420   9.31683   0.00000  2       33
siesta:     -0.02582  10.66124   0.00000  2       34
siesta:      2.30256  14.69411   0.00000  2       35
siesta:      2.30256  17.38257   0.00000  2       36
siesta:      4.63094  18.72698   0.00000  2       37
siesta:      6.95932  22.75985   0.00000  2       38
siesta:      6.95932  25.44831   0.00000  2       39
siesta:     -4.68258  10.66124   0.00000  2       40
siesta:     -4.68258  13.34970   0.00000  2       41
siesta:     -2.35420  14.69411   0.00000  2       42
siesta:     -2.35420  17.38257   0.00000  2       43
siesta:     -0.02582  18.72698   0.00000  2       44
siesta:     -0.02582  21.41544   0.00000  2       45
siesta:      2.30256  22.75985   0.00000  2       46
siesta:      2.30256  25.44831   0.00000  2       47
siesta:     -7.01096  14.69411   0.00000  2       48
siesta:     -7.01096  17.38257   0.00000  2       49
siesta:     -4.68258  18.72698   0.00000  2       50
siesta:     -2.35420  22.75985   0.00000  2       51
siesta:     -2.35420  25.44831   0.00000  2       52
siesta:     -9.33934  18.72698   0.00000  2       53
siesta:     -9.33934  21.41544   0.00000  2       54
siesta:     -7.01096  22.75985   0.00000  2       55
siesta:     -7.01096  25.44831   0.00000  2       56
siesta:    -11.66772  22.75985   0.00000  2       57
siesta:     -9.33934  26.79272   0.00000  2       58
siesta:     -9.33934  29.48119   0.00000  2       59
siesta:      4.63094  26.79272   0.00000  2       60
siesta:      4.63094  29.48119   0.00000  2       61
siesta:     -0.02582  26.79272   0.00000  2       62
siesta:     -0.02582  29.48119   0.00000  2       63
siesta:     -4.68258  26.79272   0.00000  2       64
siesta:     -4.68258  29.48119   0.00000  2       65
siesta:      2.30256  33.51406   0.00000  2       66
siesta:     -2.35420  33.51406   0.00000  2       67
siesta:     -7.01096  30.82560   0.00000  2       68
siesta:     -7.01096  33.51406   0.00000  2       69
siesta:     -0.02582  34.85847   0.00000  2       70
siesta:     -0.02582  37.54693   0.00000  2       71
siesta:     -0.02582  45.61267   0.00000  2       72

siesta: System type = slab      

initatomlists: Number of atoms, orbitals, and projectors:     72   936  1152

siesta: ******************** Simulation parameters ****************************
siesta:
siesta: The following are some of the parameters of the simulation.
siesta: A complete list of the parameters used, including default values,
siesta: can be found in file out.fdf
siesta:
redata: Non-Collinear-spin run           =     F
redata: SpinPolarized (Up/Down) run      =     F
redata: Number of spin components        =     1
redata: Long output                      =     F
redata: Number of Atomic Species         =        2
redata: Charge density info will appear in .RHO file
redata: Write Mulliken Pop.              =     NO
redata: Mesh Cutoff                      =   200.0000  Ry
redata: Net charge of the system         =     0.0000 |e|
redata: Max. number of SCF Iter          =      500
redata: SCF convergence failure will abort job
redata: Performing Pulay mixing using    =    10 iterations
redata: Mix DM in first SCF step ?       =     F
redata: Write Pulay info on disk?        =     F
redata: Discard 1st Pulay DM after  kick =     F
redata: New DM Mixing Weight             =     0.0500
redata: New DM Occupancy tolerance       = 0.000000000001
redata: No kicks to SCF
redata: DM Mixing Weight for Kicks       =     0.5000
redata: DM Tolerance for SCF             =     0.000100
redata: Require Energy convergence for SCF =     F
redata: DM Energy tolerance for SCF      =     0.000100 eV
redata: Require Harris convergence for SCF =     F
redata: DM Harris energy tolerance for SCF =     0.000100 eV
redata: Using Saved Data (generic)   =     F
redata: Use continuation files for DM    =     T
redata: Neglect nonoverlap interactions  =     F
redata: Method of Calculation            =     Diagonalization
redata: Divide and Conquer               =     T
redata: Electronic Temperature           =     0.0019  Ry
redata: Fix the spin of the system       =     F
redata: Dynamics option                  =     Verlet MD run
redata: Initial MD time step             =        1
redata:   Final MD time step             =        1
redata: Length of MD time step           =     1.0000  fs
redata: Initial Temperature of MD run    =     0.0000  K
redata: Perform a MD quench              =     F
redata: ***********************************************************************
Total number of electrons:   296.000000
Total ionic charge:   296.000000

* ProcessorY, Blocksize:    3  24

k-point displ. along   1 input, could be:     0.50    0.00
k-point displ. along   2 input, could be:     0.50    0.00
 Kpoints in:          231 . Kpoints trimmed:          231

siesta: k-grid: Number of k-points =   231
siesta: k-grid: Cutoff (effective) =     5.000 Ang
siesta: k-grid: Supercell and displacements
siesta: k-grid:   21   0   0      0.500
siesta: k-grid:    0  21   0      0.500
siesta: k-grid:    0   0   1      0.000
Naive supercell factors:     2    2    2

superc: Internal auxiliary supercell:     2 x     2 x     2  =       8
superc: Number of atoms, orbitals, and projectors:    576   7488   9216

* Maximum dynamic memory allocated =     4 MB

siesta:                 ==============================
                            Begin MD step =      1
                        ==============================

superc: Internal auxiliary supercell:     2 x     2 x     2  =       8
superc: Number of atoms, orbitals, and projectors:    576   7488   9216

outcell: Unit cell vectors (Ang):
       12.804619    7.392750    0.000000
        0.000000   14.785500    0.000000
        0.000000    0.000000   10.000000

outcell: Cell vector modules (Ang)   :   14.785500   14.785500   10.000000
outcell: Cell angles (23,13,12) (deg):     90.0000     90.0000     60.0000
outcell: Cell volume (Ang**3)        :   1893.2269
New_DM. Step:     1
Initializing Density Matrix...

InitMesh: MESH =   120 x   120 x    90 =     1296000
InitMesh: Mesh cutoff (required, used) =   200.000   223.865 Ry

* Maximum dynamic memory allocated =   136 MB

stepf: Fermi-Dirac step function

siesta: Program's energy decomposition (eV):
siesta: Ebs     =     -6022.924734
siesta: Eions   =     19688.985824
siesta: Ena     =      4793.532857
siesta: Ekin    =      7049.557044
siesta: Enl     =       383.831314
siesta: DEna    =        -0.000015
siesta: DUscf   =         0.000000
siesta: DUext   =         0.000000
siesta: Exc     =     -4369.334896
siesta: eta*DQ  =         0.000000
siesta: Emadel  =         0.000000
siesta: Emeta   =         0.000000
siesta: Emolmec =         0.000000
siesta: Ekinion =         0.000000
siesta: Eharris =    -11473.835232
siesta: Etot    =    -11831.399520
siesta: FreeEng =    -11831.399520

siesta: iscf   Eharris(eV)      E_KS(eV)   FreeEng(eV)   dDmax  Ef(eV)
siesta:    1   -11473.8352   -11831.3995   -11831.3995  6.3753 -7.4528
timer: Routine,Calls,Time,% = IterSCF        1    3015.774  99.59
elaps: Routine,Calls,Wall,% = IterSCF        1     251.914  99.59
siesta:    2   -14786.2259   -10931.4210   -10931.4731  6.6917 -2.3633
siesta:    3   -11480.0988   -11534.8455   -11534.9222  1.5266 -3.6334
siesta:    4   -11389.2532   -11497.1096   -11497.1218  1.3503 -4.1885
siesta:    5   -11361.3495   -11464.6329   -11464.6802  1.2769 -4.2555
siesta:    6   -11350.0571   -11442.1105   -11442.1689  1.0007 -4.4047
siesta:    7   -11344.9250   -11429.1429   -11429.2018  1.0971 -4.2481
siesta:    8   -11332.7240   -11405.0275   -11405.0882  0.8156 -4.2076
siesta:    9   -11330.8669   -11390.5947   -11390.5990  0.8365 -4.1452
siesta:   10   -11329.3749   -11376.6753   -11376.7081  0.6794 -4.1020
siesta:   11   -11329.6256   -11350.8478   -11350.8747  0.2758 -4.1011
siesta:   12   -11328.9095   -11340.7836   -11340.8389  0.2884 -4.0408
siesta:   13   -11328.3087   -11334.8106   -11334.8624  0.3277 -4.0756
siesta:   14   -11328.0476   -11333.7512   -11333.8009  0.2339 -4.0453
siesta:   15   -11327.7359   -11329.2168   -11329.2635  0.1901 -4.1424
siesta:   16   -11327.6711   -11327.5623   -11327.6189  0.1033 -4.2205
siesta:   17   -11327.4641   -11326.9811   -11327.0333  0.0754 -4.2033
siesta:   18   -11327.3734   -11325.1836   -11325.2384  0.0604 -4.1908
siesta:   19   -11327.3417   -11325.5524   -11325.6037  0.0460 -4.1715
siesta:   20   -11327.3232   -11325.6196   -11325.6765  0.0338 -4.1702
siesta:   21   -11327.3169   -11326.0876   -11326.1449  0.0287 -4.1767
siesta:   22   -11327.3110   -11326.2390   -11326.2952  0.0224 -4.1839
siesta:   23   -11327.3073   -11326.0763   -11326.1322  0.0164 -4.1895
siesta:   24   -11327.3060   -11326.2045   -11326.2599  0.0136 -4.1891
siesta:   25   -11327.3053   -11326.7455   -11326.8010  0.0103 -4.1855
siesta:   26   -11327.3048   -11327.0348   -11327.0901  0.0062 -4.1836
siesta:   27   -11327.3045   -11327.1691   -11327.2247  0.0040 -4.1841
siesta:   28   -11327.3045   -11327.2432   -11327.2988  0.0027 -4.1851
siesta:   29   -11327.3044   -11327.2797   -11327.3353  0.0017 -4.1850
siesta:   30   -11327.3043   -11327.2876   -11327.3432  0.0011 -4.1848
siesta:   31   -11327.3044   -11327.2991   -11327.3548  0.0006 -4.1848
siesta:   32   -11327.3044   -11327.3100   -11327.3656  0.0004 -4.1848
siesta:   33   -11327.3044   -11327.3282   -11327.3838  0.0002 -4.1848
siesta:   34   -11327.3044   -11327.3235   -11327.3791  0.0003 -4.1847
siesta:   35   -11327.3044   -11327.3298   -11327.3855  0.0003 -4.1847
siesta:   36   -11327.3044   -11327.3353   -11327.3909  0.0002 -4.1847
siesta:   37   -11327.3044   -11327.3244   -11327.3800  0.0002 -4.1847
siesta:   38   -11327.3044   -11327.3162   -11327.3718  0.0001 -4.1847
siesta:   39   -11327.3044   -11327.3109   -11327.3665  0.0001 -4.1846

siesta: E_KS(eV) =           -11327.3083

siesta: E_KS - E_eggbox =    -11327.3083

siesta: Atomic forces (eV/Ang):
----------------------------------------
   Tot   -0.025411    0.016888    0.000000
----------------------------------------
   Max  671.890914
   Res  166.127081    sqrt( Sum f_i^2 / 3N )
----------------------------------------
   Max  671.890914    constrained

Stress-tensor-Voigt (kbar):     -661.89    -2970.15       -0.13        2.43        0.00        0.00
(Free)E + p*V (eV/cell)    -9896.7183
Target enthalpy (eV/cell)   -11327.3639

siesta: Stress tensor (static) (eV/Ang**3):
        -0.413115    0.001520    0.000000
         0.001520   -1.853800    0.000000
         0.000000    0.000000   -0.000081

siesta: Pressure (static):       1210.72216368  kBar

siesta: Stress tensor (total) (eV/Ang**3):
        -0.413115    0.001520    0.000000
         0.001520   -1.853800    0.000000
         0.000000    0.000000   -0.000081

siesta: Pressure (total):       1210.72216368  kBar

siesta: Temp_ion =       0.000 K

* Maximum dynamic memory allocated =   149 MB
Computing bands...

siesta: Program's energy decomposition (eV):
siesta: Ebs     =     -4757.564289
siesta: Eions   =     19688.985824
siesta: Ena     =      4793.532857
siesta: Ekin    =     10066.012220
siesta: Enl     =     -1276.297801
siesta: DEna    =      -783.484610
siesta: DUscf   =       102.642749
siesta: DUext   =         0.000000
siesta: Exc     =     -4540.727905
siesta: eta*DQ  =         0.000000
siesta: Emadel  =         0.000000
siesta: Emeta   =         0.000000
siesta: Emolmec =         0.000000
siesta: Ekinion =         0.000000
siesta: Eharris =    -11327.304377
siesta: Etot    =    -11327.308315
siesta: FreeEng =    -11327.363937

siesta: Final energy (eV):
siesta:  Band Struct. =   -4757.564289
siesta:       Kinetic =   10066.012220
siesta:       Hartree =   33075.945770
siesta:    Ext. field =       0.000000
siesta:   Exch.-corr. =   -4540.727905
siesta:  Ion-electron =  -75820.399724
siesta:       Ion-ion =   25891.861324
siesta:       Ekinion =       0.000000
siesta:         Total =  -11327.308315

siesta: Atomic forces (eV/Ang):
siesta:      1   29.147198  655.569195    0.000000
siesta:      2   -0.163495 -124.461050    0.000000
siesta:      3   -0.036418   -0.017168    0.000000
siesta:      4   -0.120072    0.248851    0.000000
siesta:      5    0.705089   -5.282484    0.000000
siesta:      6   28.399129    1.423660    0.000000
siesta:      7  -26.878771    3.955881    0.000000
siesta:      8   -0.617653  126.555365    0.000000
siesta:      9    1.398225  560.703770    0.000000
siesta:     10   -0.367874 -121.418814    0.000000
siesta:     11    1.595696  123.208943    0.000000
siesta:     12   -6.645460 -549.860945    0.000000
siesta:     13   -3.119935  123.695695    0.000000
siesta:     14    7.347211 -550.410737    0.000000
siesta:     15   24.331399    6.832881    0.000000
siesta:     16   30.319659 -549.669201    0.000000
siesta:     17    1.203975    0.525147    0.000000
siesta:     18   -2.393967    1.554136    0.000000
siesta:     19    2.215526    2.098804    0.000000
siesta:     20   -0.760958    0.152064    0.000000
siesta:     21  -26.235608    6.792203    0.000000
siesta:     22  -34.915507 -549.030941    0.000000
siesta:     23   -0.385523 -117.869412    0.000000
siesta:     24   35.759471  549.247718    0.000000
siesta:     25   26.087196   -5.729403    0.000000
siesta:     26   -3.390714   -2.263186    0.000000
siesta:     27    1.951718    0.339416    0.000000
siesta:     28   -1.016194   -0.671569    0.000000
siesta:     29    1.585974   -1.696838    0.000000
siesta:     30   -0.257907    7.408444    0.000000
siesta:     31   -0.207289   -7.361497    0.000000
siesta:     32  -15.962434  551.141616    0.000000
siesta:     33    1.117734 -125.888469    0.000000
siesta:     34   -4.798802  544.660822    0.000000
siesta:     35   13.717194  562.340857    0.000000
siesta:     36   24.704219   -2.399602    0.000000
siesta:     37   -2.279855    2.914025    0.000000
siesta:     38   -0.448146    0.635379    0.000000
siesta:     39   -0.602019   -1.101035    0.000000
siesta:     40  -34.406876  548.485430    0.000000
siesta:     41  -26.689779   -6.485070    0.000000
siesta:     42  -12.974437  560.669938    0.000000
siesta:     43  -24.757426   -1.926491    0.000000
siesta:     44    0.088523  569.429535    0.000000
siesta:     45    0.014000    0.223947    0.000000
siesta:     46    0.811908   -0.122132    0.000000
siesta:     47   -0.275192   -0.376708    0.000000
siesta:     48    2.817326   -2.008511    0.000000
siesta:     49   -1.800113    0.452062    0.000000
siesta:     50    2.338293    2.755186    0.000000
siesta:     51   -0.778158   -0.039805    0.000000
siesta:     52    0.317246   -0.446202    0.000000
siesta:     53    1.206980   -0.433758    0.000000
siesta:     54   -0.547104   -1.925065    0.000000
siesta:     55    0.225344    0.172095    0.000000
siesta:     56    0.368395   -0.656106    0.000000
siesta:     57   -0.214682    7.242518    0.000000
siesta:     58   -2.285581    0.823544    0.000000
siesta:     59    0.574038   -0.822988    0.000000
siesta:     60    0.270733    1.008226    0.000000
siesta:     61   -1.257033   -3.422165    0.000000
siesta:     62   -0.112844   -1.823266    0.000000
siesta:     63   -1.138311 -585.920390    0.000000
siesta:     64   -0.121930    0.995947    0.000000
siesta:     65    0.718098   -3.325930    0.000000
siesta:     66    2.687888 -671.890914    0.000000
siesta:     67  -12.616672 -559.616201    0.000000
siesta:     68   -1.234034    0.256750    0.000000
siesta:     69    2.473238    1.799812    0.000000
siesta:     70   -2.820069  131.311829    0.000000
siesta:     71    9.462446 -553.777118    0.000000
siesta:     72   -0.351636 -547.463635    0.000000
siesta: ----------------------------------------
siesta:    Tot   -0.025411    0.016888    0.000000

siesta: Stress tensor (static) (eV/Ang**3):
siesta:    -0.413115    0.001520    0.000000
siesta:     0.001520   -1.853800    0.000000
siesta:     0.000000    0.000000   -0.000081

siesta: Cell volume =       1893.226884 Ang**3

siesta: Pressure (static):
siesta:                Solid            Molecule  Units
siesta:           0.00823016          0.13029401  Ry/Bohr**3
siesta:           0.75566517         11.96315263  eV/Ang**3
siesta:        1210.72216368      19167.29078339  kBar
(Free)E+ p_basis*V_orbitals  =      -11297.770027
(Free)Eharris+ p_basis*V_orbitals  =      -11297.763495

siesta: Electric dipole (a.u.)  =    0.000000    0.000000    0.000000
siesta: Electric dipole (Debye) =    0.000000    0.000000    0.000000

* Maximum dynamic memory allocated : Node    0 =   149 MB
* Maximum dynamic memory allocated : Node    1 =    59 MB
* Maximum dynamic memory allocated : Node    2 =    59 MB
* Maximum dynamic memory allocated : Node    3 =   136 MB
* Maximum dynamic memory allocated : Node    4 =   146 MB
* Maximum dynamic memory allocated : Node    5 =    54 MB
* Maximum dynamic memory allocated : Node    6 =    55 MB
* Maximum dynamic memory allocated : Node    7 =   140 MB
* Maximum dynamic memory allocated : Node    8 =   132 MB
* Maximum dynamic memory allocated : Node    9 =    54 MB
* Maximum dynamic memory allocated : Node   10 =    54 MB
* Maximum dynamic memory allocated : Node   11 =   127 MB

* Maximum memory occured during matrixMtoO                    

timer: CPU execution times:
timer:  Routine       Calls   Time/call    Tot.time        %
timer:  siesta            1  115278.080  115278.080   100.00
timer:  Setup             1       3.373       3.373     0.00
timer:  bands             3     226.241     678.722     0.59
timer:  writewave         1       0.024       0.024     0.00
timer:  KSV_init          1       0.003       0.003     0.00
timer:  IterMD            1  114588.968  114588.968    99.40
timer:  hsparse           1       0.170       0.170     0.00
timer:  overlap           1       5.990       5.990     0.01
timer:  IterSCF          39    2934.941  114462.691    99.29
timer:  kinefsm           2       3.043       6.086     0.01
timer:  nlefsm            2      18.681      37.363     0.03
timer:  DHSCF            40      62.969    2518.746     2.18
timer:  DHSCF1            1       0.903       0.903     0.00
timer:  DHSCF2            1      24.894      24.894     0.02
timer:  REORD           322       0.002       0.704     0.00
timer:  POISON           41       0.454      18.596     0.02
timer:  DHSCF3           40      61.773    2470.938     2.14
timer:  rhoofd           40      12.962     518.500     0.45
timer:  cellXC           40       2.399      95.975     0.08
timer:  vmat             40      29.097    1163.877     1.01
timer:  MolMec            2       0.000       0.000     0.00
timer:  diagon           39    2870.783  111960.545    97.12
timer:  c-eigval       9130       5.604   51168.860    44.39
timer:  c-buildHS      9130       0.033     305.227     0.26
timer:  cdiag         18139       5.705  103482.065    89.77
timer:  cdiag1        18139       0.263    4775.071     4.14
timer:  cdiag2        18139       1.837   33328.764    28.91
timer:  cdiag3        18139       3.393   61546.157    53.39
timer:  cdiag4        18139       0.089    1608.609     1.40
timer:  c-eigvec       9009       5.869   52869.465    45.86
timer:  c-buildD       9009       0.949    8551.435     7.42
timer:  DHSCF4            1      21.770      21.770     0.02
timer:  dfscf             1      20.331      20.331     0.02
timer:  overfsm           1       0.286       0.286     0.00
timer:  optical           1       6.404       6.404     0.01
  

elaps: ELAPSED times:
elaps:  Routine       Calls   Time/call    Tot.time        %
elaps:  siesta            1    9629.043    9629.043   100.00
elaps:  Setup             1       0.281       0.281     0.00
elaps:  bands             3      18.913      56.739     0.59
elaps:  writewave         1       0.002       0.002     0.00
elaps:  KSV_init          1       0.000       0.000     0.00
elaps:  IterMD            1    9571.483    9571.483    99.40
elaps:  hsparse           1       0.016       0.016     0.00
elaps:  overlap           1       0.712       0.712     0.01
elaps:  IterSCF          39     245.152    9560.935    99.29
elaps:  kinefsm           2       0.364       0.729     0.01
elaps:  nlefsm            2       1.627       3.254     0.03
elaps:  DHSCF            40       5.305     212.199     2.20
elaps:  DHSCF1            1       0.077       0.077     0.00
elaps:  DHSCF2            1       2.078       2.078     0.02
elaps:  REORD           322       0.000       0.097     0.00
elaps:  POISON           41       0.038       1.560     0.02
elaps:  DHSCF3           40       5.161     206.442     2.14
elaps:  rhoofd           40       2.286      91.423     0.95
elaps:  cellXC           40       0.200       7.997     0.08
elaps:  vmat             40       2.432      97.265     1.01
elaps:  MolMec            2       0.000       0.000     0.00
elaps:  diagon           39     239.800    9352.184    97.12
elaps:  c-eigval       9130       0.468    4274.003    44.39
elaps:  c-buildHS      9130       0.004      33.277     0.35
elaps:  cdiag         18139       0.472    8552.619    88.82
elaps:  cdiag1        18139       0.022     390.130     4.05
elaps:  cdiag2        18139       0.154    2786.455    28.94
elaps:  cdiag3        18139       0.284    5148.103    53.46
elaps:  cdiag4        18139       0.007     129.153     1.34
elaps:  c-eigvec       9009       0.482    4340.090    45.07
elaps:  c-buildD       9009       0.088     789.887     8.20
elaps:  DHSCF4            1       3.559       3.559     0.04
elaps:  dfscf             1       3.368       3.368     0.03
elaps:  overfsm           1       0.032       0.032     0.00
elaps:  optical           1       0.000       0.000     0.00
  
>> End of run:   7-MAY-2016   6:27:17
