Siesta Version:                                        siesta-3.2-pl-3
Architecture  : x86_64-unknown-linux-gnu--unknown
Compiler flags: mpiifort -g -O2 -fPIC -xSSE4.1 -fp-model source -shared-intel 
PARALLEL version

* Running on    8 nodes in parallel
>> Start of run:  24-APR-2016   5:45:08

                           ***********************       
                           *  WELCOME TO SIESTA  *       
                           ***********************       

reinit: Reading from standard input
************************** Dump of input data file ****************************
#(1) General system descriptors
SystemName            GRP_doping    # Descriptive name of the system
SystemLabel           GRP_doping    # Short name for naming files
%include STRUCT.fdf
%include KPT.fdf
%include BASIS.fdf
#%include TS.fdf # for transiesta calculation
#(4) DFT, Grid, SCF
XC.functional         GGA           # LDA or GGA (default = LDA)
XC.authors            PBE           # CA (Ceperley-Aldr) = PZ
                                    #    (Perdew-Zunger) - LDA - Default
                                    # PW92 (Perdew-Wang-92) - LDA
                                    # PBE (Perdew-Burke-Ernzerhof) - GGA
MeshCutoff            200.000000    Ry      # Default: 50.0 Ry ~ 0.444 Bohr
                                    #         100.0 Ry ~ 0.314 Bohr
MaxSCFIterations      500           # Default: 50
DM.MixingWeight       0.05          # Default: 0.25
DM.NumberPulay        10            # Default: 0
DM.PulayOnFile        F             # SystemLabel.P1, SystemLabel.P2
DM.Tolerance          1.d-4         # Default: 1.d-4
DM.UseSaveDM          .true.        # because of the bug
SCFMustConverge       .true.
NeglNonOverlapInt     F             # Default: F
#(5) Eigenvalue problem: order-N or diagonalization
SolutionMethod        Diagon        # or Transiesta
ElectronicTemperature 300.0 K       # Default: 300.0 K
#(6) Molecular dynamics and relaxations
#MD.TypeOfRun          CG            # Type of dynamics:
#MD.VariableCell       F
#MD.NumCGsteps         0           # 0 for single-point / 100 for gopt
#MD.MaxCGDispl         0.2 Bohr      # Default: 0.2 Bohr
#MD.MaxForceTol        0.02 eV/Ang   # Default: 0.04 eV/Ang
#MD.MaxStressTol       1.0 GPa       # Default: 1.0 GPa
# Geometry Constraints
#%block GeometryConstraints
#	position from 1 to 44
#%endblock GeometryConstraints
BandLinesScale   pi/a
%block BandLines
 1   0.00000000  0.00000000  0.00000000
50   0.00000000  0.07809418  0.00000000
50   0.04509075  0.07809242  0.00000000
20   0.00000000  0.00000000  0.00000000
%endblock BandLines
************************** End of input data file *****************************

reinit: -----------------------------------------------------------------------
reinit: System Name: GRP_doping
reinit: -----------------------------------------------------------------------
reinit: System Label: GRP_doping                                                  
reinit: -----------------------------------------------------------------------

initatom: Reading input for the pseudopotentials and atomic orbitals ----------
 Species number:            1  Label: B Atomic number:           5
 Species number:            2  Label: C Atomic number:           6
Ground state valence configuration:   2s02  2p01
Reading pseudopotential information in formatted form from B.psf

Valence configuration for pseudopotential generation:
2s( 2.00) rc: 1.74
2p( 1.00) rc: 1.74
3d( 0.00) rc: 1.74
4f( 0.00) rc: 1.74
Ground state valence configuration:   2s02  2p02
Reading pseudopotential information in formatted form from C.psf

Valence configuration for pseudopotential generation:
2s( 2.00) rc: 1.54
2p( 2.00) rc: 1.54
3d( 0.00) rc: 1.54
4f( 0.00) rc: 1.54
For B, standard SIESTA heuristics set lmxkb to 3
 (one more than the basis l, including polarization orbitals).
Use PS.lmax or PS.KBprojectors blocks to override.
For C, standard SIESTA heuristics set lmxkb to 3
 (one more than the basis l, including polarization orbitals).
Use PS.lmax or PS.KBprojectors blocks to override.

<basis_specs>
===============================================================================
B                    Z=   5    Mass=  10.810        Charge= 0.17977+309
Lmxo=1 Lmxkb= 3    BasisType=split      Semic=F
L=0  Nsemic=0  Cnfigmx=2
          n=1  nzeta=2  polorb=0
            splnorm:   0.15000    
               vcte:    0.0000    
               rinn:    0.0000    
                rcs:    0.0000      0.0000    
            lambdas:    1.0000      1.0000    
L=1  Nsemic=0  Cnfigmx=2
          n=1  nzeta=2  polorb=1
            splnorm:   0.15000    
               vcte:    0.0000    
               rinn:    0.0000    
                rcs:    0.0000      0.0000    
            lambdas:    1.0000      1.0000    
-------------------------------------------------------------------------------
L=0  Nkbl=1  erefs: 0.17977+309
L=1  Nkbl=1  erefs: 0.17977+309
L=2  Nkbl=1  erefs: 0.17977+309
L=3  Nkbl=1  erefs: 0.17977+309
===============================================================================
</basis_specs>

atom: Called for B                     (Z =   5)

read_vps: Pseudopotential generation method:
read_vps: ATM3      Troullier-Martins                       
Total valence charge:    3.00000

read_vps: Pseudopotential includes a core correction:
read_vps: Pseudo-core for xc-correction

xc_check: Exchange-correlation functional:
xc_check: GGA Perdew, Burke & Ernzerhof 1996
V l=0 = -2*Zval/r beyond r=  1.7165
V l=1 = -2*Zval/r beyond r=  1.7165
V l=2 = -2*Zval/r beyond r=  1.7165
V l=3 = -2*Zval/r beyond r=  1.6951
All V_l potentials equal beyond r=  1.7165
This should be close to max(r_c) in ps generation
All pots = -2*Zval/r beyond r=  1.7165

VLOCAL1: 99.0% of the norm of Vloc inside     14.733 Ry
VLOCAL1: 99.9% of the norm of Vloc inside     33.577 Ry
atom: Maximum radius for 4*pi*r*r*local-pseudopot. charge    2.04484
atom: Maximum radius for r*vlocal+2*Zval:    1.75994
GHOST: No ghost state for L =  0
GHOST: No ghost state for L =  1
GHOST: No ghost state for L =  2
GHOST: No ghost state for L =  3

KBgen: Kleinman-Bylander projectors: 
   l= 0   rc=  1.897051   el= -0.693730   Ekb=  4.595746   kbcos=  0.286105
   l= 1   rc=  1.920920   el= -0.265236   Ekb= -2.350715   kbcos= -0.315747
   l= 2   rc=  2.044840   el=  0.002055   Ekb= -0.690767   kbcos= -0.013822
   l= 3   rc=  2.149707   el=  0.003188   Ekb= -0.315358   kbcos= -0.002055

KBgen: Total number of  Kleinman-Bylander projectors:   16
atom: -------------------------------------------------------------------------

atom: SANKEY-TYPE ORBITALS:
atom: Selected multiple-zeta basis: split     

SPLIT: Orbitals with angular momentum L= 0

SPLIT: Basis orbitals for state 2s

SPLIT: PAO cut-off radius determined from an
SPLIT: energy shift=  0.007350 Ry

   izeta = 1
                 lambda =    1.000000
                     rc =    5.422032
                 energy =   -0.686029
                kinetic =    0.576707
    potential(screened) =   -1.262736
       potential(ionic) =   -3.271094

   izeta = 2
                 rmatch =    4.222573
              splitnorm =    0.150000
                 energy =   -0.602132
                kinetic =    0.858975
    potential(screened) =   -1.461107
       potential(ionic) =   -3.582536

SPLIT: Orbitals with angular momentum L= 1

SPLIT: Basis orbitals for state 2p

SPLIT: PAO cut-off radius determined from an
SPLIT: energy shift=  0.007350 Ry

   izeta = 1
                 lambda =    1.000000
                     rc =    6.790259
                 energy =   -0.258578
                kinetic =    1.481412
    potential(screened) =   -1.739989
       potential(ionic) =   -3.657461

   izeta = 2
                 rmatch =    4.608740
              splitnorm =    0.150000
                 energy =   -0.173757
                kinetic =    2.186690
    potential(screened) =   -2.360447
       potential(ionic) =   -4.464260

POLgen: Perturbative polarization orbital with L=  2

POLgen: Polarization orbital for state 2p

   izeta = 1
                     rc =    6.790259
                 energy =    0.684082
                kinetic =    1.471481
    potential(screened) =   -0.787399
       potential(ionic) =   -2.406985
atom: Total number of Sankey-type orbitals: 13

atm_pop: Valence configuration (for local Pseudopot. screening):
 2s( 2.00)                                                            
 2p( 1.00)                                                            
Vna: chval, zval:    3.00000   3.00000

Vna:  Cut-off radius for the neutral-atom potential:   6.790259
comcore: Pseudo-core radius Rcore=  2.122997

atom: _________________________________________________________________________

<basis_specs>
===============================================================================
C                    Z=   6    Mass=  12.010        Charge= 0.17977+309
Lmxo=1 Lmxkb= 3    BasisType=split      Semic=F
L=0  Nsemic=0  Cnfigmx=2
          n=1  nzeta=2  polorb=0
            splnorm:   0.15000    
               vcte:    0.0000    
               rinn:    0.0000    
                rcs:    0.0000      0.0000    
            lambdas:    1.0000      1.0000    
L=1  Nsemic=0  Cnfigmx=2
          n=1  nzeta=2  polorb=1
            splnorm:   0.15000    
               vcte:    0.0000    
               rinn:    0.0000    
                rcs:    0.0000      0.0000    
            lambdas:    1.0000      1.0000    
-------------------------------------------------------------------------------
L=0  Nkbl=1  erefs: 0.17977+309
L=1  Nkbl=1  erefs: 0.17977+309
L=2  Nkbl=1  erefs: 0.17977+309
L=3  Nkbl=1  erefs: 0.17977+309
===============================================================================
</basis_specs>

atom: Called for C                     (Z =   6)

read_vps: Pseudopotential generation method:
read_vps: ATM3      Troullier-Martins                       
Total valence charge:    4.00000

read_vps: Pseudopotential includes a core correction:
read_vps: Pseudo-core for xc-correction

xc_check: Exchange-correlation functional:
xc_check: GGA Perdew, Burke & Ernzerhof 1996
V l=0 = -2*Zval/r beyond r=  1.5227
V l=1 = -2*Zval/r beyond r=  1.5227
V l=2 = -2*Zval/r beyond r=  1.5227
V l=3 = -2*Zval/r beyond r=  1.5038
All V_l potentials equal beyond r=  1.5227
This should be close to max(r_c) in ps generation
All pots = -2*Zval/r beyond r=  1.5227

VLOCAL1: 99.0% of the norm of Vloc inside     18.722 Ry
VLOCAL1: 99.9% of the norm of Vloc inside     42.668 Ry
atom: Maximum radius for 4*pi*r*r*local-pseudopot. charge    1.83678
atom: Maximum radius for r*vlocal+2*Zval:    1.58088
GHOST: No ghost state for L =  0
GHOST: No ghost state for L =  1
GHOST: No ghost state for L =  2
GHOST: No ghost state for L =  3

KBgen: Kleinman-Bylander projectors: 
   l= 0   rc=  1.704034   el= -1.009801   Ekb=  5.335044   kbcos=  0.316824
   l= 1   rc=  1.704034   el= -0.388707   Ekb= -3.785862   kbcos= -0.366464
   l= 2   rc=  1.791422   el=  0.001971   Ekb= -0.970471   kbcos= -0.009212
   l= 3   rc=  1.859892   el=  0.003065   Ekb= -0.399525   kbcos= -0.001223

KBgen: Total number of  Kleinman-Bylander projectors:   16
atom: -------------------------------------------------------------------------

atom: SANKEY-TYPE ORBITALS:
atom: Selected multiple-zeta basis: split     

SPLIT: Orbitals with angular momentum L= 0

SPLIT: Basis orbitals for state 2s

SPLIT: PAO cut-off radius determined from an
SPLIT: energy shift=  0.007350 Ry

   izeta = 1
                 lambda =    1.000000
                     rc =    4.632753
                 energy =   -1.002270
                kinetic =    0.855760
    potential(screened) =   -1.858031
       potential(ionic) =   -5.417575

   izeta = 2
                 rmatch =    3.431921
              splitnorm =    0.150000
                 energy =   -0.867111
                kinetic =    1.300804
    potential(screened) =   -2.167915
       potential(ionic) =   -5.962684

SPLIT: Orbitals with angular momentum L= 1

SPLIT: Basis orbitals for state 2p

SPLIT: PAO cut-off radius determined from an
SPLIT: energy shift=  0.007350 Ry

   izeta = 1
                 lambda =    1.000000
                     rc =    5.658549
                 energy =   -0.381140
                kinetic =    2.399701
    potential(screened) =   -2.780841
       potential(ionic) =   -6.206085

   izeta = 2
                 rmatch =    3.653288
              splitnorm =    0.150000
                 energy =   -0.249149
                kinetic =    3.542762
    potential(screened) =   -3.791911
       potential(ionic) =   -7.581078

POLgen: Perturbative polarization orbital with L=  2

POLgen: Polarization orbital for state 2p

   izeta = 1
                     rc =    5.658549
                 energy =    1.109913
                kinetic =    2.304789
    potential(screened) =   -1.194876
       potential(ionic) =   -4.013592
atom: Total number of Sankey-type orbitals: 13

atm_pop: Valence configuration (for local Pseudopot. screening):
 2s( 2.00)                                                            
 2p( 2.00)                                                            
Vna: chval, zval:    4.00000   4.00000

Vna:  Cut-off radius for the neutral-atom potential:   5.658549
comcore: Pseudo-core radius Rcore=  1.791422

atom: _________________________________________________________________________

prinput: Basis input ----------------------------------------------------------

PAO.BasisType split     

%block ChemicalSpeciesLabel
    1    5 B                       # Species index, atomic number, species label
    2    6 C                       # Species index, atomic number, species label
%endblock ChemicalSpeciesLabel

%block PAO.Basis                 # Define Basis set
B                     2                    # Species label, number of l-shells
 n=2   0   2                         # n, l, Nzeta 
   5.422      4.223   
   1.000      1.000   
 n=2   1   2 P   1                   # n, l, Nzeta, Polarization, NzetaPol
   6.790      4.609   
   1.000      1.000   
C                     2                    # Species label, number of l-shells
 n=2   0   2                         # n, l, Nzeta 
   4.633      3.432   
   1.000      1.000   
 n=2   1   2 P   1                   # n, l, Nzeta, Polarization, NzetaPol
   5.659      3.653   
   1.000      1.000   
%endblock PAO.Basis

prinput: ----------------------------------------------------------------------

coor:   Atomic-coordinates input format  =     Fractional

siesta: Atomic coordinates (Bohr) and species
siesta:     -2.35420  41.57980   0.00000  1        1
siesta:      2.30256  38.89134   0.00000  1        2
siesta:      4.63094  34.85847   0.00000  1        3
siesta:      4.63094  37.54693   0.00000  1        4
siesta:     -0.02582  13.34970   0.00000  1        5
siesta:      2.30256  14.69411   0.00000  1        6
siesta:      2.30256  17.38257   0.00000  1        7
siesta:      6.95932  25.44831   0.00000  1        8
siesta:     -2.35420  14.69411   0.00000  1        9
siesta:     -2.35420  17.38257   0.00000  1       10
siesta:     -0.02582  18.72698   0.00000  1       11
siesta:     -0.02582  21.41544   0.00000  1       12
siesta:      2.30256  22.75985   0.00000  1       13
siesta:      2.30256  25.44831   0.00000  1       14
siesta:     -4.68258  21.41544   0.00000  1       15
siesta:     -2.35420  22.75985   0.00000  1       16
siesta:     -2.35420  25.44831   0.00000  1       17
siesta:      4.63094  26.79272   0.00000  1       18
siesta:      4.63094  29.48119   0.00000  1       19
siesta:     -0.02582  26.79272   0.00000  1       20
siesta:     -0.02582  29.48119   0.00000  1       21
siesta:      2.30256  30.82560   0.00000  1       22
siesta:      2.30256  33.51406   0.00000  1       23
siesta:     -0.02582   2.59549   0.00000  2       24
siesta:     -0.02582   5.28395   0.00000  2       25
siesta:     -2.35420  38.89134   0.00000  2       26
siesta:      2.30256  41.57980   0.00000  2       27
siesta:      6.95932  30.82560   0.00000  2       28
siesta:      6.95932  33.51406   0.00000  2       29
siesta:      9.28770  26.79272   0.00000  2       30
siesta:      9.28770  29.48119   0.00000  2       31
siesta:     -4.68258  34.85847   0.00000  2       32
siesta:     -4.68258  37.54693   0.00000  2       33
siesta:      2.30256   6.62836   0.00000  2       34
siesta:      2.30256   9.31683   0.00000  2       35
siesta:      4.63094  10.66124   0.00000  2       36
siesta:      4.63094  13.34970   0.00000  2       37
siesta:      6.95932  14.69411   0.00000  2       38
siesta:      6.95932  17.38257   0.00000  2       39
siesta:      9.28770  18.72698   0.00000  2       40
siesta:      9.28770  21.41544   0.00000  2       41
siesta:     11.61608  22.75985   0.00000  2       42
siesta:     11.61608  25.44831   0.00000  2       43
siesta:     -2.35420   6.62836   0.00000  2       44
siesta:     -2.35420   9.31683   0.00000  2       45
siesta:     -0.02582  10.66124   0.00000  2       46
siesta:      4.63094  18.72698   0.00000  2       47
siesta:      4.63094  21.41544   0.00000  2       48
siesta:      6.95932  22.75985   0.00000  2       49
siesta:     -4.68258  10.66124   0.00000  2       50
siesta:     -4.68258  13.34970   0.00000  2       51
siesta:     -7.01096  14.69411   0.00000  2       52
siesta:     -7.01096  17.38257   0.00000  2       53
siesta:     -4.68258  18.72698   0.00000  2       54
siesta:     -9.33934  18.72698   0.00000  2       55
siesta:     -9.33934  21.41544   0.00000  2       56
siesta:     -7.01096  22.75985   0.00000  2       57
siesta:     -7.01096  25.44831   0.00000  2       58
siesta:    -11.66772  22.75985   0.00000  2       59
siesta:    -11.66772  25.44831   0.00000  2       60
siesta:     -9.33934  26.79272   0.00000  2       61
siesta:     -9.33934  29.48119   0.00000  2       62
siesta:     -4.68258  26.79272   0.00000  2       63
siesta:     -4.68258  29.48119   0.00000  2       64
siesta:     -2.35420  30.82560   0.00000  2       65
siesta:     -2.35420  33.51406   0.00000  2       66
siesta:     -7.01096  30.82560   0.00000  2       67
siesta:     -7.01096  33.51406   0.00000  2       68
siesta:     -0.02582  34.85847   0.00000  2       69
siesta:     -0.02582  37.54693   0.00000  2       70
siesta:     -0.02582  42.92421   0.00000  2       71
siesta:     -0.02582  45.61267   0.00000  2       72

siesta: System type = slab      

initatomlists: Number of atoms, orbitals, and projectors:     72   936  1152

siesta: ******************** Simulation parameters ****************************
siesta:
siesta: The following are some of the parameters of the simulation.
siesta: A complete list of the parameters used, including default values,
siesta: can be found in file out.fdf
siesta:
redata: Non-Collinear-spin run           =     F
redata: SpinPolarized (Up/Down) run      =     F
redata: Number of spin components        =     1
redata: Long output                      =     F
redata: Number of Atomic Species         =        2
redata: Charge density info will appear in .RHO file
redata: Write Mulliken Pop.              =     NO
redata: Mesh Cutoff                      =   200.0000  Ry
redata: Net charge of the system         =     0.0000 |e|
redata: Max. number of SCF Iter          =      500
redata: SCF convergence failure will abort job
redata: Performing Pulay mixing using    =    10 iterations
redata: Mix DM in first SCF step ?       =     F
redata: Write Pulay info on disk?        =     F
redata: Discard 1st Pulay DM after  kick =     F
redata: New DM Mixing Weight             =     0.0500
redata: New DM Occupancy tolerance       = 0.000000000001
redata: No kicks to SCF
redata: DM Mixing Weight for Kicks       =     0.5000
redata: DM Tolerance for SCF             =     0.000100
redata: Require Energy convergence for SCF =     F
redata: DM Energy tolerance for SCF      =     0.000100 eV
redata: Require Harris convergence for SCF =     F
redata: DM Harris energy tolerance for SCF =     0.000100 eV
redata: Using Saved Data (generic)   =     F
redata: Use continuation files for DM    =     T
redata: Neglect nonoverlap interactions  =     F
redata: Method of Calculation            =     Diagonalization
redata: Divide and Conquer               =     T
redata: Electronic Temperature           =     0.0019  Ry
redata: Fix the spin of the system       =     F
redata: Dynamics option                  =     Verlet MD run
redata: Initial MD time step             =        1
redata:   Final MD time step             =        1
redata: Length of MD time step           =     1.0000  fs
redata: Initial Temperature of MD run    =     0.0000  K
redata: Perform a MD quench              =     F
redata: ***********************************************************************
Total number of electrons:   265.000000
Total ionic charge:   265.000000

* ProcessorY, Blocksize:    2  24

k-point displ. along   1 input, could be:     0.50    0.00
k-point displ. along   2 input, could be:     0.50    0.00
 Kpoints in:          231 . Kpoints trimmed:          231

siesta: k-grid: Number of k-points =   231
siesta: k-grid: Cutoff (effective) =     5.000 Ang
siesta: k-grid: Supercell and displacements
siesta: k-grid:   21   0   0      0.500
siesta: k-grid:    0  21   0      0.500
siesta: k-grid:    0   0   1      0.000
Naive supercell factors:     2    2    2

superc: Internal auxiliary supercell:     2 x     2 x     2  =       8
superc: Number of atoms, orbitals, and projectors:    576   7488   9216

* Maximum dynamic memory allocated =     4 MB

siesta:                 ==============================
                            Begin MD step =      1
                        ==============================

superc: Internal auxiliary supercell:     2 x     2 x     2  =       8
superc: Number of atoms, orbitals, and projectors:    576   7488   9216

outcell: Unit cell vectors (Ang):
       12.804619    7.392750    0.000000
        0.000000   14.785500    0.000000
        0.000000    0.000000   10.000000

outcell: Cell vector modules (Ang)   :   14.785500   14.785500   10.000000
outcell: Cell angles (23,13,12) (deg):     90.0000     90.0000     60.0000
outcell: Cell volume (Ang**3)        :   1893.2269
New_DM. Step:     1
Initializing Density Matrix...

InitMesh: MESH =   120 x   120 x    90 =     1296000
InitMesh: Mesh cutoff (required, used) =   200.000   223.865 Ry

* Maximum dynamic memory allocated =   224 MB

stepf: Fermi-Dirac step function

siesta: Program's energy decomposition (eV):
siesta: Ebs     =     -5443.801379
siesta: Eions   =     15457.706713
siesta: Ena     =      4149.890675
siesta: Ekin    =      5165.204314
siesta: Enl     =       833.644467
siesta: DEna    =        -0.000007
siesta: DUscf   =         0.000000
siesta: DUext   =         0.000000
siesta: Exc     =     -4197.035187
siesta: eta*DQ  =         0.000000
siesta: Emadel  =         0.000000
siesta: Emeta   =         0.000000
siesta: Emolmec =         0.000000
siesta: Ekinion =         0.000000
siesta: Eharris =     -9309.849487
siesta: Etot    =     -9506.002451
siesta: FreeEng =     -9506.002451

siesta: iscf   Eharris(eV)      E_KS(eV)   FreeEng(eV)   dDmax  Ef(eV)
siesta:    1    -9309.8495    -9506.0025    -9506.0025  7.3035 -8.4196
timer: Routine,Calls,Time,% = IterSCF        1    4650.373  99.75
elaps: Routine,Calls,Wall,% = IterSCF        1     582.056  99.75
siesta:    2   -15799.6921    -8366.7877    -8366.8447 18.7591 -6.3047
siesta:    3    -9295.4323    -9359.0619    -9359.0976  2.6825 -6.1727
siesta:    4    -9266.9722    -9262.9732    -9263.0186  1.4431 -5.4671
siesta:    5    -9181.1639    -9168.5340    -9168.5708  1.1366 -5.7401
siesta:    6    -9162.2614    -9131.7742    -9131.8306  1.0790 -5.5077
siesta:    7    -9155.5809    -9120.4624    -9120.5169  0.9796 -5.4234
siesta:    8    -9151.8140    -9117.4535    -9117.5138  0.7924 -5.4026
siesta:    9    -9150.5729    -9115.6273    -9115.6635  0.7415 -5.4074
siesta:   10    -9150.2032    -9114.8312    -9114.8720  0.7709 -5.3212
siesta:   11    -9150.1836    -9111.8367    -9111.8794  0.3311 -5.2164
siesta:   12    -9149.8360    -9112.9903    -9113.0675  0.3008 -5.2655
siesta:   13    -9149.4650    -9113.5530    -9113.5998  0.6692 -5.2428
siesta:   14    -9148.4941    -9115.4566    -9115.5032  0.3327 -5.2362
siesta:   15    -9148.2036    -9121.0482    -9121.0922  0.2884 -5.2758
siesta:   16    -9147.8594    -9125.8832    -9125.9236  0.1170 -5.2794
siesta:   17    -9147.5934    -9129.8585    -9129.9111  0.2227 -5.2815
siesta:   18    -9147.4460    -9138.0031    -9138.0561  0.0905 -5.2963
siesta:   19    -9147.4067    -9139.1642    -9139.2409  0.0634 -5.3000
siesta:   20    -9147.3878    -9142.4274    -9142.4917  0.0563 -5.3137
siesta:   21    -9147.3707    -9145.5212    -9145.5832  0.0462 -5.3275
siesta:   22    -9147.3608    -9147.6488    -9147.7065  0.0704 -5.3303
siesta:   23    -9147.3429    -9148.5892    -9148.6441  0.0880 -5.3216
siesta:   24    -9147.3374    -9149.2579    -9149.3182  0.0428 -5.3062
siesta:   25    -9147.3377    -9149.8199    -9149.8836  0.0199 -5.2951
siesta:   26    -9147.3322    -9149.4550    -9149.5167  0.0099 -5.2916
siesta:   27    -9147.3310    -9148.8992    -9148.9634  0.0076 -5.2896
siesta:   28    -9147.3318    -9148.3949    -9148.4578  0.0057 -5.2905
siesta:   29    -9147.3301    -9148.1317    -9148.1935  0.0090 -5.2888
siesta:   30    -9147.3309    -9147.9785    -9148.0419  0.0054 -5.2905
siesta:   31    -9147.3305    -9147.7378    -9147.8004  0.0026 -5.2902
siesta:   32    -9147.3305    -9147.4961    -9147.5589  0.0017 -5.2904
siesta:   33    -9147.3305    -9147.4387    -9147.5015  0.0015 -5.2903
siesta:   34    -9147.3305    -9147.3646    -9147.4274  0.0005 -5.2912
siesta:   35    -9147.3305    -9147.3509    -9147.4138  0.0006 -5.2915
siesta:   36    -9147.3305    -9147.3500    -9147.4128  0.0002 -5.2915
siesta:   37    -9147.3305    -9147.3425    -9147.4053  0.0002 -5.2915
siesta:   38    -9147.3305    -9147.3461    -9147.4089  0.0002 -5.2915
siesta:   39    -9147.3305    -9147.3351    -9147.3980  0.0001 -5.2915
siesta:   40    -9147.3305    -9147.3302    -9147.3930  0.0001 -5.2915

siesta: E_KS(eV) =            -9147.3273

siesta: E_KS - E_eggbox =     -9147.3273

siesta: Atomic forces (eV/Ang):
----------------------------------------
   Tot   -0.141990    0.080365    0.000000
----------------------------------------
   Max  557.459686
   Res  131.830357    sqrt( Sum f_i^2 / 3N )
----------------------------------------
   Max  557.459686    constrained

Stress-tensor-Voigt (kbar):     -738.57    -2452.09       -0.72        3.87        0.00        0.00
(Free)E + p*V (eV/cell)    -7890.3623
Target enthalpy (eV/cell)    -9147.3901

siesta: Stress tensor (static) (eV/Ang**3):
        -0.460975    0.002417    0.000000
         0.002417   -1.530457    0.000000
         0.000000    0.000000   -0.000449

siesta: Pressure (static):       1063.79347674  kBar

siesta: Stress tensor (total) (eV/Ang**3):
        -0.460975    0.002417    0.000000
         0.002417   -1.530457    0.000000
         0.000000    0.000000   -0.000449

siesta: Pressure (total):       1063.79347674  kBar

siesta: Temp_ion =       0.000 K

* Maximum dynamic memory allocated =   241 MB
Computing bands...

siesta: Program's energy decomposition (eV):
siesta: Ebs     =     -4065.351326
siesta: Eions   =     15457.706713
siesta: Ena     =      4149.890675
siesta: Ekin    =      7924.401626
siesta: Enl     =      -762.431422
siesta: DEna    =      -742.497451
siesta: DUscf   =        99.572134
siesta: DUext   =         0.000000
siesta: Exc     =     -4358.556117
siesta: eta*DQ  =         0.000000
siesta: Emadel  =         0.000000
siesta: Emeta   =         0.000000
siesta: Emolmec =         0.000000
siesta: Ekinion =         0.000000
siesta: Eharris =     -9147.330468
siesta: Etot    =     -9147.327269
siesta: FreeEng =     -9147.390094

siesta: Final energy (eV):
siesta:  Band Struct. =   -4065.351326
siesta:       Kinetic =    7924.401626
siesta:       Hartree =   25288.908365
siesta:    Ext. field =       0.000000
siesta:   Exch.-corr. =   -4358.556117
siesta:  Ion-electron =  -58208.844156
siesta:       Ion-ion =   20206.763013
siesta:       Ekinion =       0.000000
siesta:         Total =   -9147.327269

siesta: Atomic forces (eV/Ang):
siesta:      1   -8.778563 -293.403565    0.000000
siesta:      2   -0.159555  106.995787    0.000000
siesta:      3   19.305722   -2.750301    0.000000
siesta:      4   18.906175 -396.654950    0.000000
siesta:      5    7.818437 -113.952956    0.000000
siesta:      6   16.572755  400.481424    0.000000
siesta:      7   20.251834    0.420118    0.000000
siesta:      8    3.023249   -2.507640    0.000000
siesta:      9  -19.877631  295.233038    0.000000
siesta:     10  -21.189691    1.458271    0.000000
siesta:     11    0.559227  411.076121    0.000000
siesta:     12   -1.426263    0.388366    0.000000
siesta:     13    3.800531   -2.849270    0.000000
siesta:     14   -0.544602    1.990313    0.000000
siesta:     15   -4.612266   -1.696026    0.000000
siesta:     16    2.488180   -1.217177    0.000000
siesta:     17   -4.791927    2.437868    0.000000
siesta:     18   -1.310368   -0.778275    0.000000
siesta:     19    1.730929    2.829998    0.000000
siesta:     20    0.914930    0.276755    0.000000
siesta:     21    0.166111 -407.853018    0.000000
siesta:     22   14.764973    0.739778    0.000000
siesta:     23   21.899523 -404.318744    0.000000
siesta:     24   -3.083987  404.388873    0.000000
siesta:     25    6.615763 -125.864050    0.000000
siesta:     26    1.820719  126.242830    0.000000
siesta:     27   11.457889 -399.498025    0.000000
siesta:     28    7.134645    3.447820    0.000000
siesta:     29   -0.034840   -0.502039    0.000000
siesta:     30    6.052847    4.833914    0.000000
siesta:     31   -1.097867   -0.593339    0.000000
siesta:     32  -26.034688    3.831386    0.000000
siesta:     33  -35.036491 -552.003089    0.000000
siesta:     34   16.183453  408.991933    0.000000
siesta:     35    5.645113 -121.457746    0.000000
siesta:     36   31.642676  405.471130    0.000000
siesta:     37   21.572647    4.235834    0.000000
siesta:     38   -2.500145   -2.634268    0.000000
siesta:     39    2.744659   -0.274219    0.000000
siesta:     40   -1.186026   -0.302812    0.000000
siesta:     41    2.999839   -2.352667    0.000000
siesta:     42    0.097613    6.613311    0.000000
siesta:     43   -0.347129   -7.005899    0.000000
siesta:     44  -20.433378  550.951317    0.000000
siesta:     45   -1.487355 -124.144209    0.000000
siesta:     46   -3.896719  546.318287    0.000000
siesta:     47    0.670977    2.167981    0.000000
siesta:     48    4.499908   -1.760685    0.000000
siesta:     49   -1.190747   -3.394848    0.000000
siesta:     50  -29.007139  550.549791    0.000000
siesta:     51  -24.684690    0.663363    0.000000
siesta:     52    1.887053   -2.425647    0.000000
siesta:     53   -3.293478   -0.648908    0.000000
siesta:     54    0.120485   -1.442372    0.000000
siesta:     55    1.019522   -0.546000    0.000000
siesta:     56   -2.178049   -1.739433    0.000000
siesta:     57   -2.413409    2.491085    0.000000
siesta:     58   -0.605599   -0.613538    0.000000
siesta:     59   -0.144509    6.722917    0.000000
siesta:     60   -0.081829   -6.910449    0.000000
siesta:     61   -2.295244    1.824338    0.000000
siesta:     62    1.279410    0.303898    0.000000
siesta:     63   -2.477385    2.098430    0.000000
siesta:     64    0.914306   -1.995359    0.000000
siesta:     65  -22.752679    3.478745    0.000000
siesta:     66  -24.512885 -557.459686    0.000000
siesta:     67   -2.524760    0.600110    0.000000
siesta:     68    2.793119    2.127249    0.000000
siesta:     69    6.321327  117.936721    0.000000
siesta:     70   14.272881 -546.190900    0.000000
siesta:     71   -4.085394  116.320661    0.000000
siesta:     72   -0.014131 -407.117288    0.000000
siesta: ----------------------------------------
siesta:    Tot   -0.141990    0.080365    0.000000

siesta: Stress tensor (static) (eV/Ang**3):
siesta:    -0.460975    0.002417    0.000000
siesta:     0.002417   -1.530457    0.000000
siesta:     0.000000    0.000000   -0.000449

siesta: Cell volume =       1893.226884 Ang**3

siesta: Pressure (static):
siesta:                Solid            Molecule  Units
siesta:           0.00723138          0.09925346  Ry/Bohr**3
siesta:           0.66396049          9.11311551  eV/Ang**3
siesta:        1063.79347674      14600.97855361  kBar
(Free)E+ p_basis*V_orbitals  =       -9109.385549
(Free)Eharris+ p_basis*V_orbitals  =       -9109.385848

siesta: Electric dipole (a.u.)  =    0.000000    0.000000    0.000000
siesta: Electric dipole (Debye) =    0.000000    0.000000    0.000000

* Maximum dynamic memory allocated : Node    0 =   241 MB
* Maximum dynamic memory allocated : Node    1 =    84 MB
* Maximum dynamic memory allocated : Node    2 =    87 MB
* Maximum dynamic memory allocated : Node    3 =   229 MB
* Maximum dynamic memory allocated : Node    4 =   234 MB
* Maximum dynamic memory allocated : Node    5 =    84 MB
* Maximum dynamic memory allocated : Node    6 =    87 MB
* Maximum dynamic memory allocated : Node    7 =   215 MB

* Maximum memory occured during matrixMtoO                    

timer: CPU execution times:
timer:  Routine       Calls   Time/call    Tot.time        %
timer:  siesta            1  181556.586  181556.586   100.00
timer:  Setup             1       3.049       3.049     0.00
timer:  bands             3     272.414     817.241     0.45
timer:  writewave         1       0.020       0.020     0.00
timer:  KSV_init          1       0.000       0.000     0.00
timer:  IterMD            1  180730.420  180730.420    99.54
timer:  hsparse           1       0.392       0.392     0.00
timer:  overlap           1       7.806       7.806     0.00
timer:  IterSCF          40    4512.214  180488.548    99.41
timer:  kinefsm           2       4.049       8.097     0.00
timer:  nlefsm            2      21.408      42.815     0.02
timer:  DHSCF            41     125.856    5160.079     2.84
timer:  DHSCF1            1       1.013       1.013     0.00
timer:  DHSCF2            1      45.204      45.204     0.02
timer:  REORD           330       0.011       3.582     0.00
timer:  POISON           42       2.478     104.056     0.06
timer:  DHSCF3           41     123.576    5066.636     2.79
timer:  rhoofd           41      27.258    1117.561     0.62
timer:  cellXC           41       3.508     143.833     0.08
timer:  vmat             41      59.756    2449.982     1.35
timer:  MolMec            2       0.000       0.000     0.00
timer:  diagon           40    4385.320  175412.798    96.62
timer:  c-eigval       9361       6.775   63419.520    34.93
timer:  c-buildHS      9361       0.148    1383.387     0.76
timer:  cdiag         18601       7.002  130241.436    71.74
timer:  cdiag1        18601       0.433    8052.312     4.44
timer:  cdiag2        18601       1.918   35672.089    19.65
timer:  cdiag3        18601       3.981   74042.274    40.78
timer:  cdiag4        18601       0.236    4381.065     2.41
timer:  c-eigvec       9240       7.444   68781.671    37.88
timer:  c-buildD       9240       4.760   43977.874    24.22
timer:  DHSCF4            1      44.922      44.922     0.02
timer:  dfscf             1      42.158      42.158     0.02
timer:  overfsm           1       0.490       0.490     0.00
timer:  optical           1       5.125       5.125     0.00
  

elaps: ELAPSED times:
elaps:  Routine       Calls   Time/call    Tot.time        %
elaps:  siesta            1   22721.866   22721.866   100.00
elaps:  Setup             1       0.381       0.381     0.00
elaps:  bands             3      34.104     102.311     0.45
elaps:  writewave         1       0.002       0.002     0.00
elaps:  KSV_init          1       0.000       0.000     0.00
elaps:  IterMD            1   22618.498   22618.498    99.55
elaps:  hsparse           1       0.051       0.051     0.00
elaps:  overlap           1       0.979       0.979     0.00
elaps:  IterSCF          40     564.706   22588.239    99.41
elaps:  kinefsm           2       0.509       1.018     0.00
elaps:  nlefsm            2       2.793       5.586     0.02
elaps:  DHSCF            41      15.876     650.902     2.86
elaps:  DHSCF1            1       0.130       0.130     0.00
elaps:  DHSCF2            1       5.654       5.654     0.02
elaps:  REORD           330       0.001       0.486     0.00
elaps:  POISON           42       0.310      13.022     0.06
elaps:  DHSCF3           41      15.460     633.865     2.79
elaps:  rhoofd           41       7.153     293.281     1.29
elaps:  cellXC           41       0.438      17.957     0.08
elaps:  vmat             41       7.475     306.489     1.35
elaps:  MolMec            2       0.000       0.000     0.00
elaps:  diagon           40     548.855   21954.190    96.62
elaps:  c-eigval       9361       0.848    7935.056    34.92
elaps:  c-buildHS      9361       0.020     184.636     0.81
elaps:  cdiag         18601       0.862   16042.924    70.61
elaps:  cdiag1        18601       0.054     998.995     4.40
elaps:  cdiag2        18601       0.240    4463.493    19.64
elaps:  cdiag3        18601       0.499    9277.297    40.83
elaps:  cdiag4        18601       0.030     555.661     2.45
elaps:  c-eigvec       9240       0.909    8399.243    36.97
elaps:  c-buildD       9240       0.618    5714.641    25.15
elaps:  DHSCF4            1      10.931      10.931     0.05
elaps:  dfscf             1      10.404      10.404     0.05
elaps:  overfsm           1       0.062       0.062     0.00
elaps:  optical           1       0.000       0.000     0.00
  
>> End of run:  24-APR-2016  12:03:50
