Siesta Version:                                        siesta-3.2-pl-3
Architecture  : x86_64-unknown-linux-gnu--unknown
Compiler flags: mpiifort -g -O2 -fPIC -xSSE4.1 -fp-model source -shared-intel 
PARALLEL version

* Running on   12 nodes in parallel
>> Start of run:   7-MAY-2016  19:32:52

                           ***********************       
                           *  WELCOME TO SIESTA  *       
                           ***********************       

reinit: Reading from standard input
************************** Dump of input data file ****************************
#(1) General system descriptors
SystemName            GRP_doping    # Descriptive name of the system
SystemLabel           GRP_doping    # Short name for naming files
%include STRUCT.fdf
%include KPT.fdf
%include BASIS.fdf
#%include TS.fdf # for transiesta calculation
#(4) DFT, Grid, SCF
XC.functional         GGA           # LDA or GGA (default = LDA)
XC.authors            PBE           # CA (Ceperley-Aldr) = PZ
                                    #    (Perdew-Zunger) - LDA - Default
                                    # PW92 (Perdew-Wang-92) - LDA
                                    # PBE (Perdew-Burke-Ernzerhof) - GGA
MeshCutoff            200.000000    Ry      # Default: 50.0 Ry ~ 0.444 Bohr
                                    #         100.0 Ry ~ 0.314 Bohr
MaxSCFIterations      500           # Default: 50
DM.MixingWeight       0.05          # Default: 0.25
DM.NumberPulay        10            # Default: 0
DM.PulayOnFile        F             # SystemLabel.P1, SystemLabel.P2
DM.Tolerance          1.d-4         # Default: 1.d-4
DM.UseSaveDM          .true.        # because of the bug
SCFMustConverge       .true.
NeglNonOverlapInt     F             # Default: F
#(5) Eigenvalue problem: order-N or diagonalization
SolutionMethod        Diagon        # or Transiesta
ElectronicTemperature 300.0 K       # Default: 300.0 K
#(6) Molecular dynamics and relaxations
#MD.TypeOfRun          CG            # Type of dynamics:
#MD.VariableCell       F
#MD.NumCGsteps         0           # 0 for single-point / 100 for gopt
#MD.MaxCGDispl         0.2 Bohr      # Default: 0.2 Bohr
#MD.MaxForceTol        0.02 eV/Ang   # Default: 0.04 eV/Ang
#MD.MaxStressTol       1.0 GPa       # Default: 1.0 GPa
# Geometry Constraints
#%block GeometryConstraints
#	position from 1 to 44
#%endblock GeometryConstraints
BandLinesScale   pi/a
%block BandLines
 1   0.00000000  0.00000000  0.00000000
50   0.00000000  0.07809418  0.00000000
50   0.04509075  0.07809242  0.00000000
20   0.00000000  0.00000000  0.00000000
%endblock BandLines
************************** End of input data file *****************************

reinit: -----------------------------------------------------------------------
reinit: System Name: GRP_doping
reinit: -----------------------------------------------------------------------
reinit: System Label: GRP_doping                                                  
reinit: -----------------------------------------------------------------------

initatom: Reading input for the pseudopotentials and atomic orbitals ----------
 Species number:            1  Label: N Atomic number:           7
 Species number:            2  Label: C Atomic number:           6
Ground state valence configuration:   2s02  2p03
Reading pseudopotential information in formatted form from N.psf

Valence configuration for pseudopotential generation:
2s( 2.00) rc: 1.48
2p( 3.00) rc: 1.48
3d( 0.00) rc: 1.48
4f( 0.00) rc: 1.48
Ground state valence configuration:   2s02  2p02
Reading pseudopotential information in formatted form from C.psf

Valence configuration for pseudopotential generation:
2s( 2.00) rc: 1.54
2p( 2.00) rc: 1.54
3d( 0.00) rc: 1.54
4f( 0.00) rc: 1.54
For N, standard SIESTA heuristics set lmxkb to 3
 (one more than the basis l, including polarization orbitals).
Use PS.lmax or PS.KBprojectors blocks to override.
For C, standard SIESTA heuristics set lmxkb to 3
 (one more than the basis l, including polarization orbitals).
Use PS.lmax or PS.KBprojectors blocks to override.

<basis_specs>
===============================================================================
N                    Z=   7    Mass=  14.010        Charge= 0.17977+309
Lmxo=1 Lmxkb= 3    BasisType=split      Semic=F
L=0  Nsemic=0  Cnfigmx=2
          n=1  nzeta=2  polorb=0
            splnorm:   0.15000    
               vcte:    0.0000    
               rinn:    0.0000    
                rcs:    0.0000      0.0000    
            lambdas:    1.0000      1.0000    
L=1  Nsemic=0  Cnfigmx=2
          n=1  nzeta=2  polorb=1
            splnorm:   0.15000    
               vcte:    0.0000    
               rinn:    0.0000    
                rcs:    0.0000      0.0000    
            lambdas:    1.0000      1.0000    
-------------------------------------------------------------------------------
L=0  Nkbl=1  erefs: 0.17977+309
L=1  Nkbl=1  erefs: 0.17977+309
L=2  Nkbl=1  erefs: 0.17977+309
L=3  Nkbl=1  erefs: 0.17977+309
===============================================================================
</basis_specs>

atom: Called for N                     (Z =   7)

read_vps: Pseudopotential generation method:
read_vps: ATM3      Troullier-Martins                       
Total valence charge:    5.00000

read_vps: Pseudopotential includes a core correction:
read_vps: Pseudo-core for xc-correction

xc_check: Exchange-correlation functional:
xc_check: GGA Perdew, Burke & Ernzerhof 1996
V l=0 = -2*Zval/r beyond r=  1.4606
V l=1 = -2*Zval/r beyond r=  1.4606
V l=2 = -2*Zval/r beyond r=  1.4606
V l=3 = -2*Zval/r beyond r=  1.4606
All V_l potentials equal beyond r=  1.4606
This should be close to max(r_c) in ps generation
All pots = -2*Zval/r beyond r=  1.4606

VLOCAL1: 99.0% of the norm of Vloc inside     20.347 Ry
VLOCAL1: 99.9% of the norm of Vloc inside     46.372 Ry
atom: Maximum radius for 4*pi*r*r*local-pseudopot. charge    1.76189
atom: Maximum radius for r*vlocal+2*Zval:    1.53550
GHOST: No ghost state for L =  0
GHOST: No ghost state for L =  1
GHOST: No ghost state for L =  2
GHOST: No ghost state for L =  3

KBgen: Kleinman-Bylander projectors: 
   l= 0   rc=  1.634559   el= -1.363963   Ekb=  5.296955   kbcos=  0.335621
   l= 1   rc=  1.614250   el= -0.521451   Ekb= -5.259161   kbcos= -0.433408
   l= 2   rc=  1.718383   el=  0.001991   Ekb= -1.271464   kbcos= -0.007566
   l= 3   rc=  1.761893   el=  0.003093   Ekb= -0.494769   kbcos= -0.001015

KBgen: Total number of  Kleinman-Bylander projectors:   16
atom: -------------------------------------------------------------------------

atom: SANKEY-TYPE ORBITALS:
atom: Selected multiple-zeta basis: split     

SPLIT: Orbitals with angular momentum L= 0

SPLIT: Basis orbitals for state 2s

SPLIT: PAO cut-off radius determined from an
SPLIT: energy shift=  0.007350 Ry

   izeta = 1
                 lambda =    1.000000
                     rc =    4.071465
                 energy =   -1.356470
                kinetic =    1.176977
    potential(screened) =   -2.533447
       potential(ionic) =   -8.057990

   izeta = 2
                 rmatch =    2.905100
              splitnorm =    0.150000
                 energy =   -1.158343
                kinetic =    1.813009
    potential(screened) =   -2.971352
       potential(ionic) =   -8.901931

SPLIT: Orbitals with angular momentum L= 1

SPLIT: Basis orbitals for state 2p

SPLIT: PAO cut-off radius determined from an
SPLIT: energy shift=  0.007350 Ry

   izeta = 1
                 lambda =    1.000000
                     rc =    4.972977
                 energy =   -0.513884
                kinetic =    3.441732
    potential(screened) =   -3.955616
       potential(ionic) =   -9.287901

   izeta = 2
                 rmatch =    3.054066
              splitnorm =    0.150000
                 energy =   -0.318226
                kinetic =    5.125348
    potential(screened) =   -5.443573
       potential(ionic) =  -11.380999

POLgen: Perturbative polarization orbital with L=  2

POLgen: Polarization orbital for state 2p

   izeta = 1
                     rc =    4.972977
                 energy =    1.607437
                kinetic =    3.268125
    potential(screened) =   -1.660688
       potential(ionic) =   -5.973652
atom: Total number of Sankey-type orbitals: 13

atm_pop: Valence configuration (for local Pseudopot. screening):
 2s( 2.00)                                                            
 2p( 3.00)                                                            
Vna: chval, zval:    5.00000   5.00000

Vna:  Cut-off radius for the neutral-atom potential:   4.972977
comcore: Pseudo-core radius Rcore=  1.554824

atom: _________________________________________________________________________

<basis_specs>
===============================================================================
C                    Z=   6    Mass=  12.010        Charge= 0.17977+309
Lmxo=1 Lmxkb= 3    BasisType=split      Semic=F
L=0  Nsemic=0  Cnfigmx=2
          n=1  nzeta=2  polorb=0
            splnorm:   0.15000    
               vcte:    0.0000    
               rinn:    0.0000    
                rcs:    0.0000      0.0000    
            lambdas:    1.0000      1.0000    
L=1  Nsemic=0  Cnfigmx=2
          n=1  nzeta=2  polorb=1
            splnorm:   0.15000    
               vcte:    0.0000    
               rinn:    0.0000    
                rcs:    0.0000      0.0000    
            lambdas:    1.0000      1.0000    
-------------------------------------------------------------------------------
L=0  Nkbl=1  erefs: 0.17977+309
L=1  Nkbl=1  erefs: 0.17977+309
L=2  Nkbl=1  erefs: 0.17977+309
L=3  Nkbl=1  erefs: 0.17977+309
===============================================================================
</basis_specs>

atom: Called for C                     (Z =   6)

read_vps: Pseudopotential generation method:
read_vps: ATM3      Troullier-Martins                       
Total valence charge:    4.00000

read_vps: Pseudopotential includes a core correction:
read_vps: Pseudo-core for xc-correction

xc_check: Exchange-correlation functional:
xc_check: GGA Perdew, Burke & Ernzerhof 1996
V l=0 = -2*Zval/r beyond r=  1.5227
V l=1 = -2*Zval/r beyond r=  1.5227
V l=2 = -2*Zval/r beyond r=  1.5227
V l=3 = -2*Zval/r beyond r=  1.5038
All V_l potentials equal beyond r=  1.5227
This should be close to max(r_c) in ps generation
All pots = -2*Zval/r beyond r=  1.5227

VLOCAL1: 99.0% of the norm of Vloc inside     18.722 Ry
VLOCAL1: 99.9% of the norm of Vloc inside     42.668 Ry
atom: Maximum radius for 4*pi*r*r*local-pseudopot. charge    1.83678
atom: Maximum radius for r*vlocal+2*Zval:    1.58088
GHOST: No ghost state for L =  0
GHOST: No ghost state for L =  1
GHOST: No ghost state for L =  2
GHOST: No ghost state for L =  3

KBgen: Kleinman-Bylander projectors: 
   l= 0   rc=  1.704034   el= -1.009801   Ekb=  5.335044   kbcos=  0.316824
   l= 1   rc=  1.704034   el= -0.388707   Ekb= -3.785862   kbcos= -0.366464
   l= 2   rc=  1.791422   el=  0.001971   Ekb= -0.970471   kbcos= -0.009212
   l= 3   rc=  1.859892   el=  0.003065   Ekb= -0.399525   kbcos= -0.001223

KBgen: Total number of  Kleinman-Bylander projectors:   16
atom: -------------------------------------------------------------------------

atom: SANKEY-TYPE ORBITALS:
atom: Selected multiple-zeta basis: split     

SPLIT: Orbitals with angular momentum L= 0

SPLIT: Basis orbitals for state 2s

SPLIT: PAO cut-off radius determined from an
SPLIT: energy shift=  0.007350 Ry

   izeta = 1
                 lambda =    1.000000
                     rc =    4.632753
                 energy =   -1.002270
                kinetic =    0.855760
    potential(screened) =   -1.858031
       potential(ionic) =   -5.417575

   izeta = 2
                 rmatch =    3.431921
              splitnorm =    0.150000
                 energy =   -0.867111
                kinetic =    1.300804
    potential(screened) =   -2.167915
       potential(ionic) =   -5.962684

SPLIT: Orbitals with angular momentum L= 1

SPLIT: Basis orbitals for state 2p

SPLIT: PAO cut-off radius determined from an
SPLIT: energy shift=  0.007350 Ry

   izeta = 1
                 lambda =    1.000000
                     rc =    5.658549
                 energy =   -0.381140
                kinetic =    2.399701
    potential(screened) =   -2.780841
       potential(ionic) =   -6.206085

   izeta = 2
                 rmatch =    3.653288
              splitnorm =    0.150000
                 energy =   -0.249149
                kinetic =    3.542762
    potential(screened) =   -3.791911
       potential(ionic) =   -7.581078

POLgen: Perturbative polarization orbital with L=  2

POLgen: Polarization orbital for state 2p

   izeta = 1
                     rc =    5.658549
                 energy =    1.109913
                kinetic =    2.304789
    potential(screened) =   -1.194876
       potential(ionic) =   -4.013592
atom: Total number of Sankey-type orbitals: 13

atm_pop: Valence configuration (for local Pseudopot. screening):
 2s( 2.00)                                                            
 2p( 2.00)                                                            
Vna: chval, zval:    4.00000   4.00000

Vna:  Cut-off radius for the neutral-atom potential:   5.658549
comcore: Pseudo-core radius Rcore=  1.791422

atom: _________________________________________________________________________

prinput: Basis input ----------------------------------------------------------

PAO.BasisType split     

%block ChemicalSpeciesLabel
    1    7 N                       # Species index, atomic number, species label
    2    6 C                       # Species index, atomic number, species label
%endblock ChemicalSpeciesLabel

%block PAO.Basis                 # Define Basis set
N                     2                    # Species label, number of l-shells
 n=2   0   2                         # n, l, Nzeta 
   4.071      2.905   
   1.000      1.000   
 n=2   1   2 P   1                   # n, l, Nzeta, Polarization, NzetaPol
   4.973      3.054   
   1.000      1.000   
C                     2                    # Species label, number of l-shells
 n=2   0   2                         # n, l, Nzeta 
   4.633      3.432   
   1.000      1.000   
 n=2   1   2 P   1                   # n, l, Nzeta, Polarization, NzetaPol
   5.659      3.653   
   1.000      1.000   
%endblock PAO.Basis

prinput: ----------------------------------------------------------------------

coor:   Atomic-coordinates input format  =     Fractional

siesta: Atomic coordinates (Bohr) and species
siesta:      2.30256  17.38257   0.00000  1        1
siesta:      4.63094  18.72698   0.00000  1        2
siesta:     -2.35420  17.38257   0.00000  1        3
siesta:     -0.02582  18.72698   0.00000  1        4
siesta:      2.30256  22.75985   0.00000  1        5
siesta:      2.30256  25.44831   0.00000  1        6
siesta:     -4.68258  18.72698   0.00000  1        7
siesta:     -4.68258  21.41544   0.00000  1        8
siesta:     -2.35420  22.75985   0.00000  1        9
siesta:     -2.35420  25.44831   0.00000  1       10
siesta:     -0.02582  26.79272   0.00000  1       11
siesta:     -0.02582   2.59549   0.00000  2       12
siesta:     -0.02582   5.28395   0.00000  2       13
siesta:     -2.35420  38.89134   0.00000  2       14
siesta:     -2.35420  41.57980   0.00000  2       15
siesta:      2.30256  38.89134   0.00000  2       16
siesta:      2.30256  41.57980   0.00000  2       17
siesta:      4.63094  34.85847   0.00000  2       18
siesta:      4.63094  37.54693   0.00000  2       19
siesta:      6.95932  30.82560   0.00000  2       20
siesta:      6.95932  33.51406   0.00000  2       21
siesta:      9.28770  26.79272   0.00000  2       22
siesta:      9.28770  29.48119   0.00000  2       23
siesta:     -4.68258  34.85847   0.00000  2       24
siesta:     -4.68258  37.54693   0.00000  2       25
siesta:      2.30256   6.62836   0.00000  2       26
siesta:      2.30256   9.31683   0.00000  2       27
siesta:      4.63094  10.66124   0.00000  2       28
siesta:      4.63094  13.34970   0.00000  2       29
siesta:      6.95932  14.69411   0.00000  2       30
siesta:      6.95932  17.38257   0.00000  2       31
siesta:      9.28770  18.72698   0.00000  2       32
siesta:      9.28770  21.41544   0.00000  2       33
siesta:     11.61608  22.75985   0.00000  2       34
siesta:     11.61608  25.44831   0.00000  2       35
siesta:     -2.35420   6.62836   0.00000  2       36
siesta:     -2.35420   9.31683   0.00000  2       37
siesta:     -0.02582  10.66124   0.00000  2       38
siesta:     -0.02582  13.34970   0.00000  2       39
siesta:      2.30256  14.69411   0.00000  2       40
siesta:      4.63094  21.41544   0.00000  2       41
siesta:      6.95932  22.75985   0.00000  2       42
siesta:      6.95932  25.44831   0.00000  2       43
siesta:     -4.68258  10.66124   0.00000  2       44
siesta:     -4.68258  13.34970   0.00000  2       45
siesta:     -2.35420  14.69411   0.00000  2       46
siesta:     -0.02582  21.41544   0.00000  2       47
siesta:     -7.01096  14.69411   0.00000  2       48
siesta:     -7.01096  17.38257   0.00000  2       49
siesta:     -9.33934  18.72698   0.00000  2       50
siesta:     -9.33934  21.41544   0.00000  2       51
siesta:     -7.01096  22.75985   0.00000  2       52
siesta:     -7.01096  25.44831   0.00000  2       53
siesta:    -11.66772  22.75985   0.00000  2       54
siesta:    -11.66772  25.44831   0.00000  2       55
siesta:     -9.33934  26.79272   0.00000  2       56
siesta:     -9.33934  29.48119   0.00000  2       57
siesta:      4.63094  26.79272   0.00000  2       58
siesta:      4.63094  29.48119   0.00000  2       59
siesta:     -0.02582  29.48119   0.00000  2       60
siesta:     -4.68258  26.79272   0.00000  2       61
siesta:     -4.68258  29.48119   0.00000  2       62
siesta:      2.30256  30.82560   0.00000  2       63
siesta:      2.30256  33.51406   0.00000  2       64
siesta:     -2.35420  30.82560   0.00000  2       65
siesta:     -2.35420  33.51406   0.00000  2       66
siesta:     -7.01096  30.82560   0.00000  2       67
siesta:     -7.01096  33.51406   0.00000  2       68
siesta:     -0.02582  34.85847   0.00000  2       69
siesta:     -0.02582  37.54693   0.00000  2       70
siesta:     -0.02582  42.92421   0.00000  2       71
siesta:     -0.02582  45.61267   0.00000  2       72

siesta: System type = slab      

initatomlists: Number of atoms, orbitals, and projectors:     72   936  1152

siesta: ******************** Simulation parameters ****************************
siesta:
siesta: The following are some of the parameters of the simulation.
siesta: A complete list of the parameters used, including default values,
siesta: can be found in file out.fdf
siesta:
redata: Non-Collinear-spin run           =     F
redata: SpinPolarized (Up/Down) run      =     F
redata: Number of spin components        =     1
redata: Long output                      =     F
redata: Number of Atomic Species         =        2
redata: Charge density info will appear in .RHO file
redata: Write Mulliken Pop.              =     NO
redata: Mesh Cutoff                      =   200.0000  Ry
redata: Net charge of the system         =     0.0000 |e|
redata: Max. number of SCF Iter          =      500
redata: SCF convergence failure will abort job
redata: Performing Pulay mixing using    =    10 iterations
redata: Mix DM in first SCF step ?       =     F
redata: Write Pulay info on disk?        =     F
redata: Discard 1st Pulay DM after  kick =     F
redata: New DM Mixing Weight             =     0.0500
redata: New DM Occupancy tolerance       = 0.000000000001
redata: No kicks to SCF
redata: DM Mixing Weight for Kicks       =     0.5000
redata: DM Tolerance for SCF             =     0.000100
redata: Require Energy convergence for SCF =     F
redata: DM Energy tolerance for SCF      =     0.000100 eV
redata: Require Harris convergence for SCF =     F
redata: DM Harris energy tolerance for SCF =     0.000100 eV
redata: Using Saved Data (generic)   =     F
redata: Use continuation files for DM    =     T
redata: Neglect nonoverlap interactions  =     F
redata: Method of Calculation            =     Diagonalization
redata: Divide and Conquer               =     T
redata: Electronic Temperature           =     0.0019  Ry
redata: Fix the spin of the system       =     F
redata: Dynamics option                  =     Verlet MD run
redata: Initial MD time step             =        1
redata:   Final MD time step             =        1
redata: Length of MD time step           =     1.0000  fs
redata: Initial Temperature of MD run    =     0.0000  K
redata: Perform a MD quench              =     F
redata: ***********************************************************************
Total number of electrons:   299.000000
Total ionic charge:   299.000000

* ProcessorY, Blocksize:    3  24

k-point displ. along   1 input, could be:     0.50    0.00
k-point displ. along   2 input, could be:     0.50    0.00
 Kpoints in:          231 . Kpoints trimmed:          231

siesta: k-grid: Number of k-points =   231
siesta: k-grid: Cutoff (effective) =     5.000 Ang
siesta: k-grid: Supercell and displacements
siesta: k-grid:   21   0   0      0.500
siesta: k-grid:    0  21   0      0.500
siesta: k-grid:    0   0   1      0.000
Naive supercell factors:     2    2    2

superc: Internal auxiliary supercell:     2 x     2 x     2  =       8
superc: Number of atoms, orbitals, and projectors:    576   7488   9216

* Maximum dynamic memory allocated =     4 MB

siesta:                 ==============================
                            Begin MD step =      1
                        ==============================

superc: Internal auxiliary supercell:     2 x     2 x     2  =       8
superc: Number of atoms, orbitals, and projectors:    576   7488   9216

outcell: Unit cell vectors (Ang):
       12.804619    7.392750    0.000000
        0.000000   14.785500    0.000000
        0.000000    0.000000   10.000000

outcell: Cell vector modules (Ang)   :   14.785500   14.785500   10.000000
outcell: Cell angles (23,13,12) (deg):     90.0000     90.0000     60.0000
outcell: Cell volume (Ang**3)        :   1893.2269
New_DM. Step:     1
Initializing Density Matrix...

InitMesh: MESH =   120 x   120 x    90 =     1296000
InitMesh: Mesh cutoff (required, used) =   200.000   223.865 Ry

* Maximum dynamic memory allocated =   138 MB

stepf: Fermi-Dirac step function

siesta: Program's energy decomposition (eV):
siesta: Ebs     =     -6055.719780
siesta: Eions   =     20171.226357
siesta: Ena     =      4829.069861
siesta: Ekin    =      7301.325480
siesta: Enl     =       316.864195
siesta: DEna    =        -0.000015
siesta: DUscf   =         0.000000
siesta: DUext   =         0.000000
siesta: Exc     =     -4438.998098
siesta: eta*DQ  =         0.000000
siesta: Emadel  =         0.000000
siesta: Emeta   =         0.000000
siesta: Emolmec =         0.000000
siesta: Ekinion =         0.000000
siesta: Eharris =    -11830.080911
siesta: Etot    =    -12162.964934
siesta: FreeEng =    -12162.964934

siesta: iscf   Eharris(eV)      E_KS(eV)   FreeEng(eV)   dDmax  Ef(eV)
siesta:    1   -11830.0809   -12162.9649   -12162.9649  6.2348 -7.2537
timer: Routine,Calls,Time,% = IterSCF        1    3006.812  99.60
elaps: Routine,Calls,Wall,% = IterSCF        1     251.164  99.60
siesta:    2   -17650.7722   -11025.5419   -11025.5726 18.8435 -6.1756
siesta:    3   -11786.5906   -11972.8389   -11972.8756  2.5689 -5.0177
siesta:    4   -11727.7588   -11856.3910   -11856.4587  1.3720 -4.7285
siesta:    5   -11702.1221   -11775.8404   -11775.8954  1.0066 -4.2286
siesta:    6   -11683.0356   -11734.7944   -11734.8415  0.8933 -3.9142
siesta:    7   -11668.2454   -11719.7552   -11719.8039  0.7932 -3.9102
siesta:    8   -11665.2240   -11702.7562   -11702.8002  0.6970 -3.9096
siesta:    9   -11664.5763   -11693.7557   -11693.8126  0.6408 -3.8891
siesta:   10   -11666.0366   -11662.9748   -11663.0337  0.3467 -4.0166
siesta:   11   -11664.6377   -11661.1661   -11661.2553  0.3153 -4.0275
siesta:   12   -11664.1783   -11654.6471   -11654.7396  0.2473 -3.9235
siesta:   13   -11663.8046   -11649.2693   -11649.3343  0.1900 -3.9533
siesta:   14   -11663.1869   -11653.9180   -11653.9757  0.1775 -3.9715
siesta:   15   -11662.6524   -11655.7041   -11655.7806  0.1205 -3.9829
siesta:   16   -11662.3680   -11656.6075   -11656.6773  0.0822 -3.9941
siesta:   17   -11662.2865   -11656.4414   -11656.5119  0.0660 -4.0000
siesta:   18   -11662.2489   -11658.0528   -11658.1287  0.0861 -4.0058
siesta:   19   -11662.2339   -11659.3136   -11659.3931  0.0654 -4.0055
siesta:   20   -11662.2094   -11660.9702   -11661.0480  0.0360 -4.0018
siesta:   21   -11662.1907   -11661.7490   -11661.8276  0.0427 -4.0059
siesta:   22   -11662.1881   -11662.2047   -11662.2850  0.0379 -4.0078
siesta:   23   -11662.1843   -11662.6934   -11662.7743  0.0399 -4.0076
siesta:   24   -11662.1807   -11663.2646   -11663.3459  0.0353 -4.0072
siesta:   25   -11662.1793   -11663.4099   -11663.4918  0.0300 -4.0051
siesta:   26   -11662.1755   -11663.4596   -11663.5415  0.0135 -3.9966
siesta:   27   -11662.1738   -11663.2115   -11663.2948  0.0084 -3.9909
siesta:   28   -11662.1736   -11662.9418   -11663.0258  0.0038 -3.9929
siesta:   29   -11662.1732   -11662.9547   -11663.0382  0.0039 -3.9917
siesta:   30   -11662.1733   -11662.7795   -11662.8632  0.0034 -3.9925
siesta:   31   -11662.1733   -11662.6799   -11662.7635  0.0021 -3.9928
siesta:   32   -11662.1735   -11662.4173   -11662.5008  0.0014 -3.9933
siesta:   33   -11662.1735   -11662.3193   -11662.4027  0.0013 -3.9934
siesta:   34   -11662.1735   -11662.2140   -11662.2973  0.0006 -3.9933
siesta:   35   -11662.1735   -11662.1943   -11662.2776  0.0005 -3.9934
siesta:   36   -11662.1734   -11662.1841   -11662.2674  0.0004 -3.9934
siesta:   37   -11662.1735   -11662.1766   -11662.2600  0.0004 -3.9935
siesta:   38   -11662.1735   -11662.1635   -11662.2468  0.0002 -3.9935
siesta:   39   -11662.1735   -11662.1655   -11662.2488  0.0002 -3.9935
siesta:   40   -11662.1735   -11662.1739   -11662.2573  0.0001 -3.9935

siesta: E_KS(eV) =           -11662.1751

siesta: E_KS - E_eggbox =    -11662.1751

siesta: Atomic forces (eV/Ang):
----------------------------------------
   Tot   -0.007112    0.031744    0.000000
----------------------------------------
   Max  694.522657
   Res  165.551109    sqrt( Sum f_i^2 / 3N )
----------------------------------------
   Max  694.522657    constrained

Stress-tensor-Voigt (kbar):     -726.09    -2890.78       -0.13       -1.49        0.00        0.00
(Free)E + p*V (eV/cell)   -10237.5879
Target enthalpy (eV/cell)   -11662.2584

siesta: Stress tensor (static) (eV/Ang**3):
        -0.453184   -0.000929    0.000000
        -0.000929   -1.804265    0.000000
         0.000000    0.000000   -0.000078

siesta: Pressure (static):       1205.66558896  kBar

siesta: Stress tensor (total) (eV/Ang**3):
        -0.453184   -0.000929    0.000000
        -0.000929   -1.804265    0.000000
         0.000000    0.000000   -0.000078

siesta: Pressure (total):       1205.66558896  kBar

siesta: Temp_ion =       0.000 K

* Maximum dynamic memory allocated =   151 MB
Computing bands...

siesta: Program's energy decomposition (eV):
siesta: Ebs     =     -4830.991280
siesta: Eions   =     20171.226357
siesta: Ena     =      4829.069861
siesta: Ekin    =     10285.841835
siesta: Enl     =     -1336.496020
siesta: DEna    =      -767.357118
siesta: DUscf   =       104.726242
siesta: DUext   =         0.000000
siesta: Exc     =     -4606.733508
siesta: eta*DQ  =         0.000000
siesta: Emadel  =         0.000000
siesta: Emeta   =         0.000000
siesta: Emolmec =         0.000000
siesta: Ekinion =         0.000000
siesta: Eharris =    -11662.173463
siesta: Etot    =    -11662.175066
siesta: FreeEng =    -11662.258419

siesta: Final energy (eV):
siesta:  Band Struct. =   -4830.991280
siesta:       Kinetic =   10285.841835
siesta:       Hartree =   33493.446598
siesta:    Ext. field =       0.000000
siesta:   Exch.-corr. =   -4606.733508
siesta:  Ion-electron =  -76873.279332
siesta:       Ion-ion =   26038.549342
siesta:       Ekinion =       0.000000
siesta:         Total =  -11662.175066

siesta: Atomic forces (eV/Ang):
siesta:      1   34.153700  -16.501841    0.000000
siesta:      2    0.298499    5.369288    0.000000
siesta:      3  -34.015506  -16.299429    0.000000
siesta:      4    0.019525  694.522657    0.000000
siesta:      5   -1.067384   -1.794652    0.000000
siesta:      6    0.829834    0.676049    0.000000
siesta:      7   -0.082126    2.630177    0.000000
siesta:      8   -0.486060    1.299295    0.000000
siesta:      9    0.736020   -1.566011    0.000000
siesta:     10   -0.918934    0.590509    0.000000
siesta:     11    0.118350    0.901174    0.000000
siesta:     12    0.116012  544.400315    0.000000
siesta:     13    0.037871 -125.489304    0.000000
siesta:     14    0.464851  127.107997    0.000000
siesta:     15  -19.466538 -551.257708    0.000000
siesta:     16   -0.463017  127.760924    0.000000
siesta:     17   18.802072 -551.502593    0.000000
siesta:     18   26.583425    6.434506    0.000000
siesta:     19   34.328532 -550.243806    0.000000
siesta:     20    2.475782    0.033700    0.000000
siesta:     21   -2.618990    1.745843    0.000000
siesta:     22    1.825211    2.305752    0.000000
siesta:     23   -1.359955    0.227766    0.000000
siesta:     24  -26.531138    6.579979    0.000000
siesta:     25  -34.433481 -550.352061    0.000000
siesta:     26   16.550310  548.593814    0.000000
siesta:     27   -1.646804 -128.070439    0.000000
siesta:     28   33.020993  549.680233    0.000000
siesta:     29   26.451942   -6.530556    0.000000
siesta:     30   -2.718545   -0.925080    0.000000
siesta:     31    2.108250   -0.323111    0.000000
siesta:     32   -1.438808   -0.719581    0.000000
siesta:     33    2.180143   -2.014544    0.000000
siesta:     34   -0.385667    6.814196    0.000000
siesta:     35   -0.130253   -7.123927    0.000000
siesta:     36  -16.374959  548.465191    0.000000
siesta:     37    1.533389 -127.264661    0.000000
siesta:     38   -0.056510  546.768873    0.000000
siesta:     39   -0.248981 -127.693872    0.000000
siesta:     40   15.941610  559.166311    0.000000
siesta:     41    0.162274   -0.855733    0.000000
siesta:     42   -0.854603    0.253597    0.000000
siesta:     43   -0.994559   -0.394665    0.000000
siesta:     44  -33.109288  549.907351    0.000000
siesta:     45  -26.429821   -6.941094    0.000000
siesta:     46  -14.562981  559.190245    0.000000
siesta:     47    0.031908   -2.298519    0.000000
siesta:     48    2.606102   -0.510878    0.000000
siesta:     49   -2.405107   -0.326382    0.000000
siesta:     50    1.381472   -1.164230    0.000000
siesta:     51   -1.519175   -1.514023    0.000000
siesta:     52    0.480397    0.642385    0.000000
siesta:     53    1.082853   -1.331650    0.000000
siesta:     54    0.403496    6.744012    0.000000
siesta:     55    0.261136   -6.886515    0.000000
siesta:     56   -2.061878    1.953659    0.000000
siesta:     57    1.310446    0.441454    0.000000
siesta:     58    0.032920    0.725211    0.000000
siesta:     59   -2.078564   -3.225808    0.000000
siesta:     60    0.032052 -565.264849    0.000000
siesta:     61    0.322141    1.298855    0.000000
siesta:     62    2.106729   -3.739425    0.000000
siesta:     63   22.278402    5.546298    0.000000
siesta:     64   20.758676 -557.231622    0.000000
siesta:     65  -22.376490    5.758726    0.000000
siesta:     66  -20.807621 -557.625067    0.000000
siesta:     67   -2.533341    0.090992    0.000000
siesta:     68    2.504600    1.621333    0.000000
siesta:     69    0.110047  127.059787    0.000000
siesta:     70    0.128569 -544.532286    0.000000
siesta:     71   -0.434894  121.855067    0.000000
siesta:     72    0.034326 -645.615857    0.000000
siesta: ----------------------------------------
siesta:    Tot   -0.007112    0.031744    0.000000

siesta: Stress tensor (static) (eV/Ang**3):
siesta:    -0.453184   -0.000929    0.000000
siesta:    -0.000929   -1.804265    0.000000
siesta:     0.000000    0.000000   -0.000078

siesta: Cell volume =       1893.226884 Ang**3

siesta: Pressure (static):
siesta:                Solid            Molecule  Units
siesta:           0.00819579          0.12885167  Ry/Bohr**3
siesta:           0.75250914         11.83072252  eV/Ang**3
siesta:        1205.66558896      18955.11207337  kBar
(Free)E+ p_basis*V_orbitals  =      -11633.093400
(Free)Eharris+ p_basis*V_orbitals  =      -11633.092932

siesta: Electric dipole (a.u.)  =    0.000000    0.000000    0.000000
siesta: Electric dipole (Debye) =    0.000000    0.000000    0.000000

* Maximum dynamic memory allocated : Node    0 =   151 MB
* Maximum dynamic memory allocated : Node    1 =    60 MB
* Maximum dynamic memory allocated : Node    2 =    61 MB
* Maximum dynamic memory allocated : Node    3 =   137 MB
* Maximum dynamic memory allocated : Node    4 =   146 MB
* Maximum dynamic memory allocated : Node    5 =    52 MB
* Maximum dynamic memory allocated : Node    6 =    54 MB
* Maximum dynamic memory allocated : Node    7 =   140 MB
* Maximum dynamic memory allocated : Node    8 =   129 MB
* Maximum dynamic memory allocated : Node    9 =    53 MB
* Maximum dynamic memory allocated : Node   10 =    54 MB
* Maximum dynamic memory allocated : Node   11 =   121 MB

* Maximum memory occured during matrixMtoO                    

timer: CPU execution times:
timer:  Routine       Calls   Time/call    Tot.time        %
timer:  siesta            1  117627.733  117627.733   100.00
timer:  Setup             1       3.312       3.312     0.00
timer:  bands             3     225.710     677.131     0.58
timer:  writewave         1       0.023       0.023     0.00
timer:  KSV_init          1       0.005       0.005     0.00
timer:  IterMD            1  116940.358  116940.358    99.42
timer:  hsparse           1       0.168       0.168     0.00
timer:  overlap           1       6.373       6.373     0.01
timer:  IterSCF          40    2920.387  116815.489    99.31
timer:  kinefsm           2       3.234       6.468     0.01
timer:  nlefsm            2      18.457      36.914     0.03
timer:  DHSCF            41      63.714    2612.272     2.22
timer:  DHSCF1            1       0.898       0.898     0.00
timer:  DHSCF2            1      24.959      24.959     0.02
timer:  REORD           330       0.002       0.780     0.00
timer:  POISON           42       0.449      18.857     0.02
timer:  DHSCF3           41      62.555    2564.764     2.18
timer:  rhoofd           41      12.883     528.210     0.45
timer:  cellXC           41       2.409      98.757     0.08
timer:  vmat             41      28.639    1174.193     1.00
timer:  MolMec            2       0.000       0.000     0.00
timer:  diagon           40    2855.487  114219.466    97.10
timer:  c-eigval       9361       5.589   52315.242    44.48
timer:  c-buildHS      9361       0.033     309.822     0.26
timer:  cdiag         18601       5.682  105689.163    89.85
timer:  cdiag1        18601       0.261    4853.337     4.13
timer:  cdiag2        18601       1.840   34229.576    29.10
timer:  cdiag3        18601       3.378   62824.912    53.41
timer:  cdiag4        18601       0.088    1629.211     1.39
timer:  c-eigvec       9240       5.838   53938.620    45.86
timer:  c-buildD       9240       0.930    8591.655     7.30
timer:  DHSCF4            1      21.385      21.385     0.02
timer:  dfscf             1      19.953      19.953     0.02
timer:  overfsm           1       0.283       0.283     0.00
timer:  optical           1       6.333       6.333     0.01
  

elaps: ELAPSED times:
elaps:  Routine       Calls   Time/call    Tot.time        %
elaps:  siesta            1    9825.338    9825.338   100.00
elaps:  Setup             1       0.277       0.277     0.00
elaps:  bands             3      18.868      56.605     0.58
elaps:  writewave         1       0.002       0.002     0.00
elaps:  KSV_init          1       0.000       0.000     0.00
elaps:  IterMD            1    9767.922    9767.922    99.42
elaps:  hsparse           1       0.016       0.016     0.00
elaps:  overlap           1       0.710       0.710     0.01
elaps:  IterSCF          40     243.937    9757.494    99.31
elaps:  kinefsm           2       0.362       0.724     0.01
elaps:  nlefsm            2       1.592       3.185     0.03
elaps:  DHSCF            41       5.368     220.076     2.24
elaps:  DHSCF1            1       0.077       0.077     0.00
elaps:  DHSCF2            1       2.084       2.084     0.02
elaps:  REORD           330       0.000       0.100     0.00
elaps:  POISON           42       0.038       1.581     0.02
elaps:  DHSCF3           41       5.225     214.243     2.18
elaps:  rhoofd           41       2.582     105.859     1.08
elaps:  cellXC           41       0.201       8.228     0.08
elaps:  vmat             41       2.393      98.103     1.00
elaps:  MolMec            2       0.000       0.000     0.00
elaps:  diagon           40     238.520    9540.810    97.10
elaps:  c-eigval       9361       0.467    4369.782    44.47
elaps:  c-buildHS      9361       0.004      32.925     0.34
elaps:  cdiag         18601       0.471    8760.907    89.17
elaps:  cdiag1        18601       0.021     396.098     4.03
elaps:  cdiag2        18601       0.154    2861.779    29.13
elaps:  cdiag3        18601       0.283    5255.427    53.49
elaps:  cdiag4        18601       0.007     130.945     1.33
elaps:  c-eigvec       9240       0.482    4451.812    45.31
elaps:  c-buildD       9240       0.083     771.051     7.85
elaps:  DHSCF4            1       3.617       3.617     0.04
elaps:  dfscf             1       3.424       3.424     0.03
elaps:  overfsm           1       0.029       0.029     0.00
elaps:  optical           1       0.000       0.000     0.00
  
>> End of run:   7-MAY-2016  22:16:37
