Siesta Version:                                        siesta-3.2-pl-3
Architecture  : x86_64-unknown-linux-gnu--unknown
Compiler flags: mpiifort -g -O2 -fPIC -xSSE4.1 -fp-model source -shared-intel 
PARALLEL version

* Running on   12 nodes in parallel
>> Start of run:   4-MAY-2016  16:06:25

                           ***********************       
                           *  WELCOME TO SIESTA  *       
                           ***********************       

reinit: Reading from standard input
************************** Dump of input data file ****************************
#(1) General system descriptors
SystemName            GRP_doping    # Descriptive name of the system
SystemLabel           GRP_doping    # Short name for naming files
%include STRUCT.fdf
%include KPT.fdf
%include BASIS.fdf
#%include TS.fdf # for transiesta calculation
#(4) DFT, Grid, SCF
XC.functional         GGA           # LDA or GGA (default = LDA)
XC.authors            PBE           # CA (Ceperley-Aldr) = PZ
                                    #    (Perdew-Zunger) - LDA - Default
                                    # PW92 (Perdew-Wang-92) - LDA
                                    # PBE (Perdew-Burke-Ernzerhof) - GGA
MeshCutoff            200.000000    Ry      # Default: 50.0 Ry ~ 0.444 Bohr
                                    #         100.0 Ry ~ 0.314 Bohr
MaxSCFIterations      500           # Default: 50
DM.MixingWeight       0.05          # Default: 0.25
DM.NumberPulay        10            # Default: 0
DM.PulayOnFile        F             # SystemLabel.P1, SystemLabel.P2
DM.Tolerance          1.d-4         # Default: 1.d-4
DM.UseSaveDM          .true.        # because of the bug
SCFMustConverge       .true.
NeglNonOverlapInt     F             # Default: F
#(5) Eigenvalue problem: order-N or diagonalization
SolutionMethod        Diagon        # or Transiesta
ElectronicTemperature 300.0 K       # Default: 300.0 K
#(6) Molecular dynamics and relaxations
#MD.TypeOfRun          CG            # Type of dynamics:
#MD.VariableCell       F
#MD.NumCGsteps         0           # 0 for single-point / 100 for gopt
#MD.MaxCGDispl         0.2 Bohr      # Default: 0.2 Bohr
#MD.MaxForceTol        0.02 eV/Ang   # Default: 0.04 eV/Ang
#MD.MaxStressTol       1.0 GPa       # Default: 1.0 GPa
# Geometry Constraints
#%block GeometryConstraints
#	position from 1 to 44
#%endblock GeometryConstraints
BandLinesScale   pi/a
%block BandLines
 1   0.00000000  0.00000000  0.00000000
50   0.00000000  0.07809418  0.00000000
50   0.04509075  0.07809242  0.00000000
20   0.00000000  0.00000000  0.00000000
%endblock BandLines
************************** End of input data file *****************************

reinit: -----------------------------------------------------------------------
reinit: System Name: GRP_doping
reinit: -----------------------------------------------------------------------
reinit: System Label: GRP_doping                                                  
reinit: -----------------------------------------------------------------------

initatom: Reading input for the pseudopotentials and atomic orbitals ----------
 Species number:            1  Label: B Atomic number:           5
 Species number:            2  Label: C Atomic number:           6
Ground state valence configuration:   2s02  2p01
Reading pseudopotential information in formatted form from B.psf

Valence configuration for pseudopotential generation:
2s( 2.00) rc: 1.74
2p( 1.00) rc: 1.74
3d( 0.00) rc: 1.74
4f( 0.00) rc: 1.74
Ground state valence configuration:   2s02  2p02
Reading pseudopotential information in formatted form from C.psf

Valence configuration for pseudopotential generation:
2s( 2.00) rc: 1.54
2p( 2.00) rc: 1.54
3d( 0.00) rc: 1.54
4f( 0.00) rc: 1.54
For B, standard SIESTA heuristics set lmxkb to 3
 (one more than the basis l, including polarization orbitals).
Use PS.lmax or PS.KBprojectors blocks to override.
For C, standard SIESTA heuristics set lmxkb to 3
 (one more than the basis l, including polarization orbitals).
Use PS.lmax or PS.KBprojectors blocks to override.

<basis_specs>
===============================================================================
B                    Z=   5    Mass=  10.810        Charge= 0.17977+309
Lmxo=1 Lmxkb= 3    BasisType=split      Semic=F
L=0  Nsemic=0  Cnfigmx=2
          n=1  nzeta=2  polorb=0
            splnorm:   0.15000    
               vcte:    0.0000    
               rinn:    0.0000    
                rcs:    0.0000      0.0000    
            lambdas:    1.0000      1.0000    
L=1  Nsemic=0  Cnfigmx=2
          n=1  nzeta=2  polorb=1
            splnorm:   0.15000    
               vcte:    0.0000    
               rinn:    0.0000    
                rcs:    0.0000      0.0000    
            lambdas:    1.0000      1.0000    
-------------------------------------------------------------------------------
L=0  Nkbl=1  erefs: 0.17977+309
L=1  Nkbl=1  erefs: 0.17977+309
L=2  Nkbl=1  erefs: 0.17977+309
L=3  Nkbl=1  erefs: 0.17977+309
===============================================================================
</basis_specs>

atom: Called for B                     (Z =   5)

read_vps: Pseudopotential generation method:
read_vps: ATM3      Troullier-Martins                       
Total valence charge:    3.00000

read_vps: Pseudopotential includes a core correction:
read_vps: Pseudo-core for xc-correction

xc_check: Exchange-correlation functional:
xc_check: GGA Perdew, Burke & Ernzerhof 1996
V l=0 = -2*Zval/r beyond r=  1.7165
V l=1 = -2*Zval/r beyond r=  1.7165
V l=2 = -2*Zval/r beyond r=  1.7165
V l=3 = -2*Zval/r beyond r=  1.6951
All V_l potentials equal beyond r=  1.7165
This should be close to max(r_c) in ps generation
All pots = -2*Zval/r beyond r=  1.7165

VLOCAL1: 99.0% of the norm of Vloc inside     14.733 Ry
VLOCAL1: 99.9% of the norm of Vloc inside     33.577 Ry
atom: Maximum radius for 4*pi*r*r*local-pseudopot. charge    2.04484
atom: Maximum radius for r*vlocal+2*Zval:    1.75994
GHOST: No ghost state for L =  0
GHOST: No ghost state for L =  1
GHOST: No ghost state for L =  2
GHOST: No ghost state for L =  3

KBgen: Kleinman-Bylander projectors: 
   l= 0   rc=  1.897051   el= -0.693730   Ekb=  4.595746   kbcos=  0.286105
   l= 1   rc=  1.920920   el= -0.265236   Ekb= -2.350715   kbcos= -0.315747
   l= 2   rc=  2.044840   el=  0.002055   Ekb= -0.690767   kbcos= -0.013822
   l= 3   rc=  2.149707   el=  0.003188   Ekb= -0.315358   kbcos= -0.002055

KBgen: Total number of  Kleinman-Bylander projectors:   16
atom: -------------------------------------------------------------------------

atom: SANKEY-TYPE ORBITALS:
atom: Selected multiple-zeta basis: split     

SPLIT: Orbitals with angular momentum L= 0

SPLIT: Basis orbitals for state 2s

SPLIT: PAO cut-off radius determined from an
SPLIT: energy shift=  0.007350 Ry

   izeta = 1
                 lambda =    1.000000
                     rc =    5.422032
                 energy =   -0.686029
                kinetic =    0.576707
    potential(screened) =   -1.262736
       potential(ionic) =   -3.271094

   izeta = 2
                 rmatch =    4.222573
              splitnorm =    0.150000
                 energy =   -0.602132
                kinetic =    0.858975
    potential(screened) =   -1.461107
       potential(ionic) =   -3.582536

SPLIT: Orbitals with angular momentum L= 1

SPLIT: Basis orbitals for state 2p

SPLIT: PAO cut-off radius determined from an
SPLIT: energy shift=  0.007350 Ry

   izeta = 1
                 lambda =    1.000000
                     rc =    6.790259
                 energy =   -0.258578
                kinetic =    1.481412
    potential(screened) =   -1.739989
       potential(ionic) =   -3.657461

   izeta = 2
                 rmatch =    4.608740
              splitnorm =    0.150000
                 energy =   -0.173757
                kinetic =    2.186690
    potential(screened) =   -2.360447
       potential(ionic) =   -4.464260

POLgen: Perturbative polarization orbital with L=  2

POLgen: Polarization orbital for state 2p

   izeta = 1
                     rc =    6.790259
                 energy =    0.684082
                kinetic =    1.471481
    potential(screened) =   -0.787399
       potential(ionic) =   -2.406985
atom: Total number of Sankey-type orbitals: 13

atm_pop: Valence configuration (for local Pseudopot. screening):
 2s( 2.00)                                                            
 2p( 1.00)                                                            
Vna: chval, zval:    3.00000   3.00000

Vna:  Cut-off radius for the neutral-atom potential:   6.790259
comcore: Pseudo-core radius Rcore=  2.122997

atom: _________________________________________________________________________

<basis_specs>
===============================================================================
C                    Z=   6    Mass=  12.010        Charge= 0.17977+309
Lmxo=1 Lmxkb= 3    BasisType=split      Semic=F
L=0  Nsemic=0  Cnfigmx=2
          n=1  nzeta=2  polorb=0
            splnorm:   0.15000    
               vcte:    0.0000    
               rinn:    0.0000    
                rcs:    0.0000      0.0000    
            lambdas:    1.0000      1.0000    
L=1  Nsemic=0  Cnfigmx=2
          n=1  nzeta=2  polorb=1
            splnorm:   0.15000    
               vcte:    0.0000    
               rinn:    0.0000    
                rcs:    0.0000      0.0000    
            lambdas:    1.0000      1.0000    
-------------------------------------------------------------------------------
L=0  Nkbl=1  erefs: 0.17977+309
L=1  Nkbl=1  erefs: 0.17977+309
L=2  Nkbl=1  erefs: 0.17977+309
L=3  Nkbl=1  erefs: 0.17977+309
===============================================================================
</basis_specs>

atom: Called for C                     (Z =   6)

read_vps: Pseudopotential generation method:
read_vps: ATM3      Troullier-Martins                       
Total valence charge:    4.00000

read_vps: Pseudopotential includes a core correction:
read_vps: Pseudo-core for xc-correction

xc_check: Exchange-correlation functional:
xc_check: GGA Perdew, Burke & Ernzerhof 1996
V l=0 = -2*Zval/r beyond r=  1.5227
V l=1 = -2*Zval/r beyond r=  1.5227
V l=2 = -2*Zval/r beyond r=  1.5227
V l=3 = -2*Zval/r beyond r=  1.5038
All V_l potentials equal beyond r=  1.5227
This should be close to max(r_c) in ps generation
All pots = -2*Zval/r beyond r=  1.5227

VLOCAL1: 99.0% of the norm of Vloc inside     18.722 Ry
VLOCAL1: 99.9% of the norm of Vloc inside     42.668 Ry
atom: Maximum radius for 4*pi*r*r*local-pseudopot. charge    1.83678
atom: Maximum radius for r*vlocal+2*Zval:    1.58088
GHOST: No ghost state for L =  0
GHOST: No ghost state for L =  1
GHOST: No ghost state for L =  2
GHOST: No ghost state for L =  3

KBgen: Kleinman-Bylander projectors: 
   l= 0   rc=  1.704034   el= -1.009801   Ekb=  5.335044   kbcos=  0.316824
   l= 1   rc=  1.704034   el= -0.388707   Ekb= -3.785862   kbcos= -0.366464
   l= 2   rc=  1.791422   el=  0.001971   Ekb= -0.970471   kbcos= -0.009212
   l= 3   rc=  1.859892   el=  0.003065   Ekb= -0.399525   kbcos= -0.001223

KBgen: Total number of  Kleinman-Bylander projectors:   16
atom: -------------------------------------------------------------------------

atom: SANKEY-TYPE ORBITALS:
atom: Selected multiple-zeta basis: split     

SPLIT: Orbitals with angular momentum L= 0

SPLIT: Basis orbitals for state 2s

SPLIT: PAO cut-off radius determined from an
SPLIT: energy shift=  0.007350 Ry

   izeta = 1
                 lambda =    1.000000
                     rc =    4.632753
                 energy =   -1.002270
                kinetic =    0.855760
    potential(screened) =   -1.858031
       potential(ionic) =   -5.417575

   izeta = 2
                 rmatch =    3.431921
              splitnorm =    0.150000
                 energy =   -0.867111
                kinetic =    1.300804
    potential(screened) =   -2.167915
       potential(ionic) =   -5.962684

SPLIT: Orbitals with angular momentum L= 1

SPLIT: Basis orbitals for state 2p

SPLIT: PAO cut-off radius determined from an
SPLIT: energy shift=  0.007350 Ry

   izeta = 1
                 lambda =    1.000000
                     rc =    5.658549
                 energy =   -0.381140
                kinetic =    2.399701
    potential(screened) =   -2.780841
       potential(ionic) =   -6.206085

   izeta = 2
                 rmatch =    3.653288
              splitnorm =    0.150000
                 energy =   -0.249149
                kinetic =    3.542762
    potential(screened) =   -3.791911
       potential(ionic) =   -7.581078

POLgen: Perturbative polarization orbital with L=  2

POLgen: Polarization orbital for state 2p

   izeta = 1
                     rc =    5.658549
                 energy =    1.109913
                kinetic =    2.304789
    potential(screened) =   -1.194876
       potential(ionic) =   -4.013592
atom: Total number of Sankey-type orbitals: 13

atm_pop: Valence configuration (for local Pseudopot. screening):
 2s( 2.00)                                                            
 2p( 2.00)                                                            
Vna: chval, zval:    4.00000   4.00000

Vna:  Cut-off radius for the neutral-atom potential:   5.658549
comcore: Pseudo-core radius Rcore=  1.791422

atom: _________________________________________________________________________

prinput: Basis input ----------------------------------------------------------

PAO.BasisType split     

%block ChemicalSpeciesLabel
    1    5 B                       # Species index, atomic number, species label
    2    6 C                       # Species index, atomic number, species label
%endblock ChemicalSpeciesLabel

%block PAO.Basis                 # Define Basis set
B                     2                    # Species label, number of l-shells
 n=2   0   2                         # n, l, Nzeta 
   5.422      4.223   
   1.000      1.000   
 n=2   1   2 P   1                   # n, l, Nzeta, Polarization, NzetaPol
   6.790      4.609   
   1.000      1.000   
C                     2                    # Species label, number of l-shells
 n=2   0   2                         # n, l, Nzeta 
   4.633      3.432   
   1.000      1.000   
 n=2   1   2 P   1                   # n, l, Nzeta, Polarization, NzetaPol
   5.659      3.653   
   1.000      1.000   
%endblock PAO.Basis

prinput: ----------------------------------------------------------------------

coor:   Atomic-coordinates input format  =     Fractional

siesta: Atomic coordinates (Bohr) and species
siesta:      9.28770  26.79272   0.00000  1        1
siesta:      6.95932  14.69411   0.00000  1        2
siesta:     -0.02582  13.34970   0.00000  1        3
siesta:      2.30256  22.75985   0.00000  1        4
siesta:     -7.01096  14.69411   0.00000  1        5
siesta:     -2.35420  22.75985   0.00000  1        6
siesta:     -7.01096  22.75985   0.00000  1        7
siesta:     -0.02582  29.48119   0.00000  1        8
siesta:     -4.68258  29.48119   0.00000  1        9
siesta:     -0.02582  37.54693   0.00000  1       10
siesta:     -0.02582   2.59549   0.00000  2       11
siesta:     -0.02582   5.28395   0.00000  2       12
siesta:     -2.35420  38.89134   0.00000  2       13
siesta:     -2.35420  41.57980   0.00000  2       14
siesta:      2.30256  38.89134   0.00000  2       15
siesta:      2.30256  41.57980   0.00000  2       16
siesta:      4.63094  34.85847   0.00000  2       17
siesta:      4.63094  37.54693   0.00000  2       18
siesta:      6.95932  30.82560   0.00000  2       19
siesta:      6.95932  33.51406   0.00000  2       20
siesta:      9.28770  29.48119   0.00000  2       21
siesta:     -4.68258  34.85847   0.00000  2       22
siesta:     -4.68258  37.54693   0.00000  2       23
siesta:      2.30256   6.62836   0.00000  2       24
siesta:      2.30256   9.31683   0.00000  2       25
siesta:      4.63094  10.66124   0.00000  2       26
siesta:      4.63094  13.34970   0.00000  2       27
siesta:      6.95932  17.38257   0.00000  2       28
siesta:      9.28770  18.72698   0.00000  2       29
siesta:      9.28770  21.41544   0.00000  2       30
siesta:     11.61608  22.75985   0.00000  2       31
siesta:     11.61608  25.44831   0.00000  2       32
siesta:     -2.35420   6.62836   0.00000  2       33
siesta:     -2.35420   9.31683   0.00000  2       34
siesta:     -0.02582  10.66124   0.00000  2       35
siesta:      2.30256  14.69411   0.00000  2       36
siesta:      2.30256  17.38257   0.00000  2       37
siesta:      4.63094  18.72698   0.00000  2       38
siesta:      4.63094  21.41544   0.00000  2       39
siesta:      6.95932  22.75985   0.00000  2       40
siesta:      6.95932  25.44831   0.00000  2       41
siesta:     -4.68258  10.66124   0.00000  2       42
siesta:     -4.68258  13.34970   0.00000  2       43
siesta:     -2.35420  14.69411   0.00000  2       44
siesta:     -2.35420  17.38257   0.00000  2       45
siesta:     -0.02582  18.72698   0.00000  2       46
siesta:     -0.02582  21.41544   0.00000  2       47
siesta:      2.30256  25.44831   0.00000  2       48
siesta:     -7.01096  17.38257   0.00000  2       49
siesta:     -4.68258  18.72698   0.00000  2       50
siesta:     -4.68258  21.41544   0.00000  2       51
siesta:     -2.35420  25.44831   0.00000  2       52
siesta:     -9.33934  18.72698   0.00000  2       53
siesta:     -9.33934  21.41544   0.00000  2       54
siesta:     -7.01096  25.44831   0.00000  2       55
siesta:    -11.66772  22.75985   0.00000  2       56
siesta:    -11.66772  25.44831   0.00000  2       57
siesta:     -9.33934  26.79272   0.00000  2       58
siesta:     -9.33934  29.48119   0.00000  2       59
siesta:      4.63094  26.79272   0.00000  2       60
siesta:      4.63094  29.48119   0.00000  2       61
siesta:     -0.02582  26.79272   0.00000  2       62
siesta:     -4.68258  26.79272   0.00000  2       63
siesta:      2.30256  30.82560   0.00000  2       64
siesta:      2.30256  33.51406   0.00000  2       65
siesta:     -2.35420  30.82560   0.00000  2       66
siesta:     -2.35420  33.51406   0.00000  2       67
siesta:     -7.01096  30.82560   0.00000  2       68
siesta:     -7.01096  33.51406   0.00000  2       69
siesta:     -0.02582  34.85847   0.00000  2       70
siesta:     -0.02582  42.92421   0.00000  2       71
siesta:     -0.02582  45.61267   0.00000  2       72

siesta: System type = slab      

initatomlists: Number of atoms, orbitals, and projectors:     72   936  1152

siesta: ******************** Simulation parameters ****************************
siesta:
siesta: The following are some of the parameters of the simulation.
siesta: A complete list of the parameters used, including default values,
siesta: can be found in file out.fdf
siesta:
redata: Non-Collinear-spin run           =     F
redata: SpinPolarized (Up/Down) run      =     F
redata: Number of spin components        =     1
redata: Long output                      =     F
redata: Number of Atomic Species         =        2
redata: Charge density info will appear in .RHO file
redata: Write Mulliken Pop.              =     NO
redata: Mesh Cutoff                      =   200.0000  Ry
redata: Net charge of the system         =     0.0000 |e|
redata: Max. number of SCF Iter          =      500
redata: SCF convergence failure will abort job
redata: Performing Pulay mixing using    =    10 iterations
redata: Mix DM in first SCF step ?       =     F
redata: Write Pulay info on disk?        =     F
redata: Discard 1st Pulay DM after  kick =     F
redata: New DM Mixing Weight             =     0.0500
redata: New DM Occupancy tolerance       = 0.000000000001
redata: No kicks to SCF
redata: DM Mixing Weight for Kicks       =     0.5000
redata: DM Tolerance for SCF             =     0.000100
redata: Require Energy convergence for SCF =     F
redata: DM Energy tolerance for SCF      =     0.000100 eV
redata: Require Harris convergence for SCF =     F
redata: DM Harris energy tolerance for SCF =     0.000100 eV
redata: Using Saved Data (generic)   =     F
redata: Use continuation files for DM    =     T
redata: Neglect nonoverlap interactions  =     F
redata: Method of Calculation            =     Diagonalization
redata: Divide and Conquer               =     T
redata: Electronic Temperature           =     0.0019  Ry
redata: Fix the spin of the system       =     F
redata: Dynamics option                  =     Verlet MD run
redata: Initial MD time step             =        1
redata:   Final MD time step             =        1
redata: Length of MD time step           =     1.0000  fs
redata: Initial Temperature of MD run    =     0.0000  K
redata: Perform a MD quench              =     F
redata: ***********************************************************************
Total number of electrons:   278.000000
Total ionic charge:   278.000000

* ProcessorY, Blocksize:    3  24

k-point displ. along   1 input, could be:     0.50    0.00
k-point displ. along   2 input, could be:     0.50    0.00
 Kpoints in:          231 . Kpoints trimmed:          231

siesta: k-grid: Number of k-points =   231
siesta: k-grid: Cutoff (effective) =     5.000 Ang
siesta: k-grid: Supercell and displacements
siesta: k-grid:   21   0   0      0.500
siesta: k-grid:    0  21   0      0.500
siesta: k-grid:    0   0   1      0.000
Naive supercell factors:     2    2    2

superc: Internal auxiliary supercell:     2 x     2 x     2  =       8
superc: Number of atoms, orbitals, and projectors:    576   7488   9216

* Maximum dynamic memory allocated =     4 MB

siesta:                 ==============================
                            Begin MD step =      1
                        ==============================

superc: Internal auxiliary supercell:     2 x     2 x     2  =       8
superc: Number of atoms, orbitals, and projectors:    576   7488   9216

outcell: Unit cell vectors (Ang):
       12.804619    7.392750    0.000000
        0.000000   14.785500    0.000000
        0.000000    0.000000   10.000000

outcell: Cell vector modules (Ang)   :   14.785500   14.785500   10.000000
outcell: Cell angles (23,13,12) (deg):     90.0000     90.0000     60.0000
outcell: Cell volume (Ang**3)        :   1893.2269
New_DM. Step:     1
Initializing Density Matrix...

InitMesh: MESH =   120 x   120 x    90 =     1296000
InitMesh: Mesh cutoff (required, used) =   200.000   223.865 Ry

* Maximum dynamic memory allocated =   151 MB

stepf: Fermi-Dirac step function

siesta: Program's energy decomposition (eV):
siesta: Ebs     =     -5712.248943
siesta: Eions   =     17122.443959
siesta: Ena     =      4474.459127
siesta: Ekin    =      5850.796185
siesta: Enl     =       712.728988
siesta: DEna    =        -0.000012
siesta: DUscf   =         0.000000
siesta: DUext   =         0.000000
siesta: Exc     =     -4182.071962
siesta: eta*DQ  =         0.000000
siesta: Emadel  =         0.000000
siesta: Emeta   =         0.000000
siesta: Emolmec =         0.000000
siesta: Ekinion =         0.000000
siesta: Eharris =     -9985.162852
siesta: Etot    =    -10266.531632
siesta: FreeEng =    -10266.531632

siesta: iscf   Eharris(eV)      E_KS(eV)   FreeEng(eV)   dDmax  Ef(eV)
siesta:    1    -9985.1629   -10266.5316   -10266.5316  7.3085 -8.0799
timer: Routine,Calls,Time,% = IterSCF        1    3055.737  99.59
elaps: Routine,Calls,Wall,% = IterSCF        1     255.248  99.59
siesta:    2   -13673.1323    -9359.7256    -9359.7454 23.8487 -2.5496
siesta:    3    -9937.6497   -10102.0867   -10102.1477  2.4233 -6.1781
siesta:    4    -9898.0775   -10016.7080   -10016.7143  1.3815 -5.7673
siesta:    5    -9858.6384    -9929.9638    -9930.0355  0.9140 -5.3311
siesta:    6    -9848.9399    -9896.5010    -9896.5607  0.7351 -5.1394
siesta:    7    -9846.4955    -9884.4248    -9884.4724  0.7883 -5.0660
siesta:    8    -9841.8248    -9871.7724    -9871.7924  0.7056 -4.9913
siesta:    9    -9844.8788    -9839.8915    -9839.8988  0.5215 -4.7147
siesta:   10    -9842.9444    -9835.7303    -9835.7871  0.4536 -4.6441
siesta:   11    -9839.8874    -9830.8681    -9830.9229  0.3203 -4.7044
siesta:   12    -9838.9875    -9825.6373    -9825.7044  0.2819 -4.6881
siesta:   13    -9838.8135    -9823.5100    -9823.5670  0.2679 -4.6903
siesta:   14    -9838.4444    -9825.8632    -9825.9325  0.2025 -4.7211
siesta:   15    -9838.1530    -9828.6921    -9828.7452  0.1314 -4.7441
siesta:   16    -9837.9101    -9832.8142    -9832.8712  0.0773 -4.7663
siesta:   17    -9837.9016    -9833.5564    -9833.6267  0.0823 -4.7761
siesta:   18    -9837.8388    -9833.8177    -9833.8819  0.0668 -4.7721
siesta:   19    -9837.7860    -9834.1791    -9834.2493  0.0519 -4.7702
siesta:   20    -9837.7773    -9835.3838    -9835.4538  0.0400 -4.7693
siesta:   21    -9837.7786    -9837.0541    -9837.1243  0.0247 -4.7705
siesta:   22    -9837.7760    -9837.5651    -9837.6361  0.0206 -4.7718
siesta:   23    -9837.7729    -9838.0854    -9838.1562  0.0132 -4.7707
siesta:   24    -9837.7723    -9838.0540    -9838.1263  0.0083 -4.7698
siesta:   25    -9837.7716    -9837.8823    -9837.9543  0.0044 -4.7662
siesta:   26    -9837.7711    -9837.8384    -9837.9106  0.0042 -4.7657
siesta:   27    -9837.7709    -9837.8137    -9837.8861  0.0038 -4.7657
siesta:   28    -9837.7710    -9837.7978    -9837.8703  0.0030 -4.7659
siesta:   29    -9837.7709    -9837.7870    -9837.8594  0.0023 -4.7659
siesta:   30    -9837.7708    -9837.7628    -9837.8353  0.0013 -4.7660
siesta:   31    -9837.7707    -9837.7815    -9837.8541  0.0009 -4.7662
siesta:   32    -9837.7708    -9837.8144    -9837.8869  0.0006 -4.7663
siesta:   33    -9837.7708    -9837.8153    -9837.8878  0.0005 -4.7663
siesta:   34    -9837.7708    -9837.8036    -9837.8761  0.0002 -4.7662
siesta:   35    -9837.7708    -9837.7957    -9837.8682  0.0001 -4.7662
siesta:   36    -9837.7708    -9837.7935    -9837.8660  0.0001 -4.7662

siesta: E_KS(eV) =            -9837.7906

siesta: E_KS - E_eggbox =     -9837.7906

siesta: Atomic forces (eV/Ang):
----------------------------------------
   Tot   -0.185870   -0.053566    0.000000
----------------------------------------
   Max  561.123038
   Res  152.853986    sqrt( Sum f_i^2 / 3N )
----------------------------------------
   Max  561.123038    constrained

Stress-tensor-Voigt (kbar):     -764.52    -2699.21       -0.42        0.92        0.00        0.00
(Free)E + p*V (eV/cell)    -8473.3971
Target enthalpy (eV/cell)    -9837.8631

siesta: Stress tensor (static) (eV/Ang**3):
        -0.477172    0.000571    0.000000
         0.000572   -1.684695    0.000000
         0.000000    0.000000   -0.000260

siesta: Pressure (static):       1154.71590722  kBar

siesta: Stress tensor (total) (eV/Ang**3):
        -0.477172    0.000571    0.000000
         0.000572   -1.684695    0.000000
         0.000000    0.000000   -0.000260

siesta: Pressure (total):       1154.71590722  kBar

siesta: Temp_ion =       0.000 K

* Maximum dynamic memory allocated =   163 MB
Computing bands...

siesta: Program's energy decomposition (eV):
siesta: Ebs     =     -4379.776027
siesta: Eions   =     17122.443959
siesta: Ena     =      4474.459127
siesta: Ekin    =      8768.015407
siesta: Enl     =      -929.348573
siesta: DEna    =      -779.731715
siesta: DUscf   =       104.308428
siesta: DUext   =         0.000000
siesta: Exc     =     -4353.049345
siesta: eta*DQ  =         0.000000
siesta: Emadel  =         0.000000
siesta: Emeta   =         0.000000
siesta: Emolmec =         0.000000
siesta: Ekinion =         0.000000
siesta: Eharris =     -9837.770795
siesta: Etot    =     -9837.790630
siesta: FreeEng =     -9837.863138

siesta: Final energy (eV):
siesta:  Band Struct. =   -4379.776027
siesta:       Kinetic =    8768.015407
siesta:       Hartree =   28623.478322
siesta:    Ext. field =       0.000000
siesta:   Exch.-corr. =   -4353.049345
siesta:  Ion-electron =  -65712.081787
siesta:       Ion-ion =   22835.846773
siesta:       Ekinion =       0.000000
siesta:         Total =   -9837.790630

siesta: Atomic forces (eV/Ang):
siesta:      1    2.776123    1.575917    0.000000
siesta:      2   -0.012644   -2.462525    0.000000
siesta:      3    0.017046 -112.207640    0.000000
siesta:      4   -0.813809   -1.203818    0.000000
siesta:      5    0.167643   -2.262618    0.000000
siesta:      6    0.912631   -1.641209    0.000000
siesta:      7    0.495582   -0.019032    0.000000
siesta:      8   -0.524984 -413.211075    0.000000
siesta:      9    1.168280   -0.041326    0.000000
siesta:     10    0.033577 -402.488488    0.000000
siesta:     11    0.869961  407.681170    0.000000
siesta:     12   -0.384075 -125.193281    0.000000
siesta:     13    5.938332  122.093689    0.000000
siesta:     14  -21.507935 -551.088916    0.000000
siesta:     15   -6.044851  122.143688    0.000000
siesta:     16   21.558579 -551.182529    0.000000
siesta:     17   26.286671    5.385289    0.000000
siesta:     18   35.099346 -546.773939    0.000000
siesta:     19    2.610101    0.469701    0.000000
siesta:     20   -2.292345    2.121066    0.000000
siesta:     21   -2.365355    4.332623    0.000000
siesta:     22  -26.314541    5.575100    0.000000
siesta:     23  -35.308572 -546.888217    0.000000
siesta:     24   17.610806  548.476565    0.000000
siesta:     25   -2.885715 -122.724180    0.000000
siesta:     26   35.016413  547.102492    0.000000
siesta:     27   23.827683   -7.444077    0.000000
siesta:     28    2.677122    2.767975    0.000000
siesta:     29   -1.019812   -0.482739    0.000000
siesta:     30    2.641598   -1.745702    0.000000
siesta:     31   -0.321444    6.904519    0.000000
siesta:     32    3.621310   -8.853022    0.000000
siesta:     33  -18.961300  548.312996    0.000000
siesta:     34    2.814290 -122.241490    0.000000
siesta:     35    0.074950  397.285969    0.000000
siesta:     36   18.257332  553.223299    0.000000
siesta:     37   21.282859   -6.397555    0.000000
siesta:     38   -0.017488    2.101053    0.000000
siesta:     39    3.333585   -2.156899    0.000000
siesta:     40   -0.577882   -0.030969    0.000000
siesta:     41   -3.081403   -1.655102    0.000000
siesta:     42  -34.774077  546.985611    0.000000
siesta:     43  -23.797015   -7.375769    0.000000
siesta:     44  -18.117183  553.283363    0.000000
siesta:     45  -21.433103   -6.524923    0.000000
siesta:     46   -0.205724  561.123038    0.000000
siesta:     47    0.118012   -2.975609    0.000000
siesta:     48   -0.907741    4.069306    0.000000
siesta:     49   -3.175094    2.309439    0.000000
siesta:     50    0.471816    2.752611    0.000000
siesta:     51   -0.487648   -4.309260    0.000000
siesta:     52    0.572256    3.980490    0.000000
siesta:     53    1.678039   -0.374418    0.000000
siesta:     54   -6.967999   -3.949643    0.000000
siesta:     55    0.775927    2.918161    0.000000
siesta:     56    1.067937    5.860880    0.000000
siesta:     57   -0.654612   -4.877885    0.000000
siesta:     58   -2.331194    1.335764    0.000000
siesta:     59    1.773167    0.738175    0.000000
siesta:     60   -0.124182   -0.598938    0.000000
siesta:     61   -1.309330   -1.202209    0.000000
siesta:     62    0.122756   -2.018589    0.000000
siesta:     63   -0.149763   -3.608384    0.000000
siesta:     64   22.342095    2.666841    0.000000
siesta:     65   24.260333 -556.654372    0.000000
siesta:     66  -19.328657    3.165585    0.000000
siesta:     67  -22.769428 -556.458016    0.000000
siesta:     68   -6.415045    2.281705    0.000000
siesta:     69    2.566570    1.658380    0.000000
siesta:     70    0.318831  126.534563    0.000000
siesta:     71   -0.162239  132.252528    0.000000
siesta:     72    0.198763 -550.198759    0.000000
siesta: ----------------------------------------
siesta:    Tot   -0.185870   -0.053566    0.000000

siesta: Stress tensor (static) (eV/Ang**3):
siesta:    -0.477172    0.000571    0.000000
siesta:     0.000572   -1.684695    0.000000
siesta:     0.000000    0.000000   -0.000260

siesta: Cell volume =       1893.226884 Ang**3

siesta: Pressure (static):
siesta:                Solid            Molecule  Units
siesta:           0.00784944          0.11784838  Ry/Bohr**3
siesta:           0.72070919         10.82043721  eV/Ang**3
siesta:        1154.71590722      17336.43905950  kBar
(Free)E+ p_basis*V_orbitals  =       -9803.965985
(Free)Eharris+ p_basis*V_orbitals  =       -9803.943277

siesta: Electric dipole (a.u.)  =    0.000000    0.000000    0.000000
siesta: Electric dipole (Debye) =    0.000000    0.000000    0.000000

* Maximum dynamic memory allocated : Node    0 =   163 MB
* Maximum dynamic memory allocated : Node    1 =    66 MB
* Maximum dynamic memory allocated : Node    2 =    67 MB
* Maximum dynamic memory allocated : Node    3 =   149 MB
* Maximum dynamic memory allocated : Node    4 =   160 MB
* Maximum dynamic memory allocated : Node    5 =    59 MB
* Maximum dynamic memory allocated : Node    6 =    60 MB
* Maximum dynamic memory allocated : Node    7 =   152 MB
* Maximum dynamic memory allocated : Node    8 =   146 MB
* Maximum dynamic memory allocated : Node    9 =    59 MB
* Maximum dynamic memory allocated : Node   10 =    60 MB
* Maximum dynamic memory allocated : Node   11 =   140 MB

* Maximum memory occured during matrixMtoO                    

timer: CPU execution times:
timer:  Routine       Calls   Time/call    Tot.time        %
timer:  siesta            1  107219.855  107219.855   100.00
timer:  Setup             1       3.361       3.361     0.00
timer:  bands             3     226.291     678.873     0.63
timer:  writewave         1       0.023       0.023     0.00
timer:  KSV_init          1       0.002       0.002     0.00
timer:  IterMD            1  106530.731  106530.731    99.36
timer:  hsparse           1       0.281       0.281     0.00
timer:  overlap           1       6.386       6.386     0.01
timer:  IterSCF          36    2955.092  106383.317    99.22
timer:  kinefsm           2       3.254       6.508     0.01
timer:  nlefsm            2      19.921      39.842     0.04
timer:  DHSCF            37      80.890    2992.931     2.79
timer:  DHSCF1            1       1.196       1.196     0.00
timer:  DHSCF2            1      32.133      32.133     0.03
timer:  REORD           298       0.002       0.671     0.00
timer:  POISON           38       0.449      17.056     0.02
timer:  DHSCF3           37      79.273    2933.088     2.74
timer:  rhoofd           37      16.031     593.134     0.55
timer:  cellXC           37       2.447      90.542     0.08
timer:  vmat             37      40.205    1487.602     1.39
timer:  MolMec            2       0.000       0.000     0.00
timer:  diagon           36    2872.836  103422.096    96.46
timer:  c-eigval       8437       5.585   47123.295    43.95
timer:  c-buildHS      8437       0.035     297.915     0.28
timer:  cdiag         16753       5.687   95271.430    88.86
timer:  cdiag1        16753       0.261    4372.477     4.08
timer:  cdiag2        16753       1.835   30734.687    28.67
timer:  cdiag3        16753       3.377   56570.584    52.76
timer:  cdiag4        16753       0.087    1458.474     1.36
timer:  c-eigvec       8316       5.856   48696.484    45.42
timer:  c-buildD       8316       0.990    8235.165     7.68
timer:  DHSCF4            1      26.256      26.256     0.02
timer:  dfscf             1      24.181      24.181     0.02
timer:  overfsm           1       0.317       0.317     0.00
timer:  optical           1       6.298       6.298     0.01
  

elaps: ELAPSED times:
elaps:  Routine       Calls   Time/call    Tot.time        %
elaps:  siesta            1    8956.011    8956.011   100.00
elaps:  Setup             1       0.281       0.281     0.00
elaps:  bands             3      18.917      56.751     0.63
elaps:  writewave         1       0.002       0.002     0.00
elaps:  KSV_init          1       0.000       0.000     0.00
elaps:  IterMD            1    8898.449    8898.449    99.36
elaps:  hsparse           1       0.028       0.028     0.00
elaps:  overlap           1       0.715       0.715     0.01
elaps:  IterSCF          36     246.837    8886.135    99.22
elaps:  kinefsm           2       0.367       0.733     0.01
elaps:  nlefsm            2       1.837       3.673     0.04
elaps:  DHSCF            37       6.814     252.116     2.82
elaps:  DHSCF1            1       0.101       0.101     0.00
elaps:  DHSCF2            1       2.683       2.683     0.03
elaps:  REORD           298       0.000       0.088     0.00
elaps:  POISON           38       0.038       1.438     0.02
elaps:  DHSCF3           37       6.623     245.037     2.74
elaps:  rhoofd           37       3.007     111.269     1.24
elaps:  cellXC           37       0.204       7.545     0.08
elaps:  vmat             37       3.359     124.289     1.39
elaps:  MolMec            2       0.000       0.000     0.00
elaps:  diagon           36     239.972    8638.976    96.46
elaps:  c-eigval       8437       0.467    3936.135    43.95
elaps:  c-buildHS      8437       0.004      32.080     0.36
elaps:  cdiag         16753       0.471    7886.622    88.06
elaps:  cdiag1        16753       0.021     356.584     3.98
elaps:  cdiag2        16753       0.153    2569.550    28.69
elaps:  cdiag3        16753       0.282    4732.010    52.84
elaps:  cdiag4        16753       0.007     117.062     1.31
elaps:  c-eigvec       8316       0.482    4009.885    44.77
elaps:  c-buildD       8316       0.090     745.329     8.32
elaps:  DHSCF4            1       4.256       4.256     0.05
elaps:  dfscf             1       3.997       3.997     0.04
elaps:  overfsm           1       0.034       0.034     0.00
elaps:  optical           1       0.000       0.000     0.00
  
>> End of run:   4-MAY-2016  18:35:41
