Siesta Version:                                        siesta-3.2-pl-3
Architecture  : x86_64-unknown-linux-gnu--unknown
Compiler flags: mpiifort -g -O2 -fPIC -xSSE4.1 -fp-model source -shared-intel 
PARALLEL version

* Running on    8 nodes in parallel
>> Start of run:  27-APR-2016   1:04:54

                           ***********************       
                           *  WELCOME TO SIESTA  *       
                           ***********************       

reinit: Reading from standard input
************************** Dump of input data file ****************************
#(1) General system descriptors
SystemName            GRP_doping    # Descriptive name of the system
SystemLabel           GRP_doping    # Short name for naming files
%include STRUCT.fdf
%include KPT.fdf
%include BASIS.fdf
#%include TS.fdf # for transiesta calculation
#(4) DFT, Grid, SCF
XC.functional         GGA           # LDA or GGA (default = LDA)
XC.authors            PBE           # CA (Ceperley-Aldr) = PZ
                                    #    (Perdew-Zunger) - LDA - Default
                                    # PW92 (Perdew-Wang-92) - LDA
                                    # PBE (Perdew-Burke-Ernzerhof) - GGA
MeshCutoff            200.000000    Ry      # Default: 50.0 Ry ~ 0.444 Bohr
                                    #         100.0 Ry ~ 0.314 Bohr
MaxSCFIterations      500           # Default: 50
DM.MixingWeight       0.05          # Default: 0.25
DM.NumberPulay        10            # Default: 0
DM.PulayOnFile        F             # SystemLabel.P1, SystemLabel.P2
DM.Tolerance          1.d-4         # Default: 1.d-4
DM.UseSaveDM          .true.        # because of the bug
SCFMustConverge       .true.
NeglNonOverlapInt     F             # Default: F
#(5) Eigenvalue problem: order-N or diagonalization
SolutionMethod        Diagon        # or Transiesta
ElectronicTemperature 300.0 K       # Default: 300.0 K
#(6) Molecular dynamics and relaxations
#MD.TypeOfRun          CG            # Type of dynamics:
#MD.VariableCell       F
#MD.NumCGsteps         0           # 0 for single-point / 100 for gopt
#MD.MaxCGDispl         0.2 Bohr      # Default: 0.2 Bohr
#MD.MaxForceTol        0.02 eV/Ang   # Default: 0.04 eV/Ang
#MD.MaxStressTol       1.0 GPa       # Default: 1.0 GPa
# Geometry Constraints
#%block GeometryConstraints
#	position from 1 to 44
#%endblock GeometryConstraints
BandLinesScale   pi/a
%block BandLines
 1   0.00000000  0.00000000  0.00000000
50   0.00000000  0.07809418  0.00000000
50   0.04509075  0.07809242  0.00000000
20   0.00000000  0.00000000  0.00000000
%endblock BandLines
************************** End of input data file *****************************

reinit: -----------------------------------------------------------------------
reinit: System Name: GRP_doping
reinit: -----------------------------------------------------------------------
reinit: System Label: GRP_doping                                                  
reinit: -----------------------------------------------------------------------

initatom: Reading input for the pseudopotentials and atomic orbitals ----------
 Species number:            1  Label: B Atomic number:           5
 Species number:            2  Label: C Atomic number:           6
Ground state valence configuration:   2s02  2p01
Reading pseudopotential information in formatted form from B.psf

Valence configuration for pseudopotential generation:
2s( 2.00) rc: 1.74
2p( 1.00) rc: 1.74
3d( 0.00) rc: 1.74
4f( 0.00) rc: 1.74
Ground state valence configuration:   2s02  2p02
Reading pseudopotential information in formatted form from C.psf

Valence configuration for pseudopotential generation:
2s( 2.00) rc: 1.54
2p( 2.00) rc: 1.54
3d( 0.00) rc: 1.54
4f( 0.00) rc: 1.54
For B, standard SIESTA heuristics set lmxkb to 3
 (one more than the basis l, including polarization orbitals).
Use PS.lmax or PS.KBprojectors blocks to override.
For C, standard SIESTA heuristics set lmxkb to 3
 (one more than the basis l, including polarization orbitals).
Use PS.lmax or PS.KBprojectors blocks to override.

<basis_specs>
===============================================================================
B                    Z=   5    Mass=  10.810        Charge= 0.17977+309
Lmxo=1 Lmxkb= 3    BasisType=split      Semic=F
L=0  Nsemic=0  Cnfigmx=2
          n=1  nzeta=2  polorb=0
            splnorm:   0.15000    
               vcte:    0.0000    
               rinn:    0.0000    
                rcs:    0.0000      0.0000    
            lambdas:    1.0000      1.0000    
L=1  Nsemic=0  Cnfigmx=2
          n=1  nzeta=2  polorb=1
            splnorm:   0.15000    
               vcte:    0.0000    
               rinn:    0.0000    
                rcs:    0.0000      0.0000    
            lambdas:    1.0000      1.0000    
-------------------------------------------------------------------------------
L=0  Nkbl=1  erefs: 0.17977+309
L=1  Nkbl=1  erefs: 0.17977+309
L=2  Nkbl=1  erefs: 0.17977+309
L=3  Nkbl=1  erefs: 0.17977+309
===============================================================================
</basis_specs>

atom: Called for B                     (Z =   5)

read_vps: Pseudopotential generation method:
read_vps: ATM3      Troullier-Martins                       
Total valence charge:    3.00000

read_vps: Pseudopotential includes a core correction:
read_vps: Pseudo-core for xc-correction

xc_check: Exchange-correlation functional:
xc_check: GGA Perdew, Burke & Ernzerhof 1996
V l=0 = -2*Zval/r beyond r=  1.7165
V l=1 = -2*Zval/r beyond r=  1.7165
V l=2 = -2*Zval/r beyond r=  1.7165
V l=3 = -2*Zval/r beyond r=  1.6951
All V_l potentials equal beyond r=  1.7165
This should be close to max(r_c) in ps generation
All pots = -2*Zval/r beyond r=  1.7165

VLOCAL1: 99.0% of the norm of Vloc inside     14.733 Ry
VLOCAL1: 99.9% of the norm of Vloc inside     33.577 Ry
atom: Maximum radius for 4*pi*r*r*local-pseudopot. charge    2.04484
atom: Maximum radius for r*vlocal+2*Zval:    1.75994
GHOST: No ghost state for L =  0
GHOST: No ghost state for L =  1
GHOST: No ghost state for L =  2
GHOST: No ghost state for L =  3

KBgen: Kleinman-Bylander projectors: 
   l= 0   rc=  1.897051   el= -0.693730   Ekb=  4.595746   kbcos=  0.286105
   l= 1   rc=  1.920920   el= -0.265236   Ekb= -2.350715   kbcos= -0.315747
   l= 2   rc=  2.044840   el=  0.002055   Ekb= -0.690767   kbcos= -0.013822
   l= 3   rc=  2.149707   el=  0.003188   Ekb= -0.315358   kbcos= -0.002055

KBgen: Total number of  Kleinman-Bylander projectors:   16
atom: -------------------------------------------------------------------------

atom: SANKEY-TYPE ORBITALS:
atom: Selected multiple-zeta basis: split     

SPLIT: Orbitals with angular momentum L= 0

SPLIT: Basis orbitals for state 2s

SPLIT: PAO cut-off radius determined from an
SPLIT: energy shift=  0.007350 Ry

   izeta = 1
                 lambda =    1.000000
                     rc =    5.422032
                 energy =   -0.686029
                kinetic =    0.576707
    potential(screened) =   -1.262736
       potential(ionic) =   -3.271094

   izeta = 2
                 rmatch =    4.222573
              splitnorm =    0.150000
                 energy =   -0.602132
                kinetic =    0.858975
    potential(screened) =   -1.461107
       potential(ionic) =   -3.582536

SPLIT: Orbitals with angular momentum L= 1

SPLIT: Basis orbitals for state 2p

SPLIT: PAO cut-off radius determined from an
SPLIT: energy shift=  0.007350 Ry

   izeta = 1
                 lambda =    1.000000
                     rc =    6.790259
                 energy =   -0.258578
                kinetic =    1.481412
    potential(screened) =   -1.739989
       potential(ionic) =   -3.657461

   izeta = 2
                 rmatch =    4.608740
              splitnorm =    0.150000
                 energy =   -0.173757
                kinetic =    2.186690
    potential(screened) =   -2.360447
       potential(ionic) =   -4.464260

POLgen: Perturbative polarization orbital with L=  2

POLgen: Polarization orbital for state 2p

   izeta = 1
                     rc =    6.790259
                 energy =    0.684082
                kinetic =    1.471481
    potential(screened) =   -0.787399
       potential(ionic) =   -2.406985
atom: Total number of Sankey-type orbitals: 13

atm_pop: Valence configuration (for local Pseudopot. screening):
 2s( 2.00)                                                            
 2p( 1.00)                                                            
Vna: chval, zval:    3.00000   3.00000

Vna:  Cut-off radius for the neutral-atom potential:   6.790259
comcore: Pseudo-core radius Rcore=  2.122997

atom: _________________________________________________________________________

<basis_specs>
===============================================================================
C                    Z=   6    Mass=  12.010        Charge= 0.17977+309
Lmxo=1 Lmxkb= 3    BasisType=split      Semic=F
L=0  Nsemic=0  Cnfigmx=2
          n=1  nzeta=2  polorb=0
            splnorm:   0.15000    
               vcte:    0.0000    
               rinn:    0.0000    
                rcs:    0.0000      0.0000    
            lambdas:    1.0000      1.0000    
L=1  Nsemic=0  Cnfigmx=2
          n=1  nzeta=2  polorb=1
            splnorm:   0.15000    
               vcte:    0.0000    
               rinn:    0.0000    
                rcs:    0.0000      0.0000    
            lambdas:    1.0000      1.0000    
-------------------------------------------------------------------------------
L=0  Nkbl=1  erefs: 0.17977+309
L=1  Nkbl=1  erefs: 0.17977+309
L=2  Nkbl=1  erefs: 0.17977+309
L=3  Nkbl=1  erefs: 0.17977+309
===============================================================================
</basis_specs>

atom: Called for C                     (Z =   6)

read_vps: Pseudopotential generation method:
read_vps: ATM3      Troullier-Martins                       
Total valence charge:    4.00000

read_vps: Pseudopotential includes a core correction:
read_vps: Pseudo-core for xc-correction

xc_check: Exchange-correlation functional:
xc_check: GGA Perdew, Burke & Ernzerhof 1996
V l=0 = -2*Zval/r beyond r=  1.5227
V l=1 = -2*Zval/r beyond r=  1.5227
V l=2 = -2*Zval/r beyond r=  1.5227
V l=3 = -2*Zval/r beyond r=  1.5038
All V_l potentials equal beyond r=  1.5227
This should be close to max(r_c) in ps generation
All pots = -2*Zval/r beyond r=  1.5227

VLOCAL1: 99.0% of the norm of Vloc inside     18.722 Ry
VLOCAL1: 99.9% of the norm of Vloc inside     42.668 Ry
atom: Maximum radius for 4*pi*r*r*local-pseudopot. charge    1.83678
atom: Maximum radius for r*vlocal+2*Zval:    1.58088
GHOST: No ghost state for L =  0
GHOST: No ghost state for L =  1
GHOST: No ghost state for L =  2
GHOST: No ghost state for L =  3

KBgen: Kleinman-Bylander projectors: 
   l= 0   rc=  1.704034   el= -1.009801   Ekb=  5.335044   kbcos=  0.316824
   l= 1   rc=  1.704034   el= -0.388707   Ekb= -3.785862   kbcos= -0.366464
   l= 2   rc=  1.791422   el=  0.001971   Ekb= -0.970471   kbcos= -0.009212
   l= 3   rc=  1.859892   el=  0.003065   Ekb= -0.399525   kbcos= -0.001223

KBgen: Total number of  Kleinman-Bylander projectors:   16
atom: -------------------------------------------------------------------------

atom: SANKEY-TYPE ORBITALS:
atom: Selected multiple-zeta basis: split     

SPLIT: Orbitals with angular momentum L= 0

SPLIT: Basis orbitals for state 2s

SPLIT: PAO cut-off radius determined from an
SPLIT: energy shift=  0.007350 Ry

   izeta = 1
                 lambda =    1.000000
                     rc =    4.632753
                 energy =   -1.002270
                kinetic =    0.855760
    potential(screened) =   -1.858031
       potential(ionic) =   -5.417575

   izeta = 2
                 rmatch =    3.431921
              splitnorm =    0.150000
                 energy =   -0.867111
                kinetic =    1.300804
    potential(screened) =   -2.167915
       potential(ionic) =   -5.962684

SPLIT: Orbitals with angular momentum L= 1

SPLIT: Basis orbitals for state 2p

SPLIT: PAO cut-off radius determined from an
SPLIT: energy shift=  0.007350 Ry

   izeta = 1
                 lambda =    1.000000
                     rc =    5.658549
                 energy =   -0.381140
                kinetic =    2.399701
    potential(screened) =   -2.780841
       potential(ionic) =   -6.206085

   izeta = 2
                 rmatch =    3.653288
              splitnorm =    0.150000
                 energy =   -0.249149
                kinetic =    3.542762
    potential(screened) =   -3.791911
       potential(ionic) =   -7.581078

POLgen: Perturbative polarization orbital with L=  2

POLgen: Polarization orbital for state 2p

   izeta = 1
                     rc =    5.658549
                 energy =    1.109913
                kinetic =    2.304789
    potential(screened) =   -1.194876
       potential(ionic) =   -4.013592
atom: Total number of Sankey-type orbitals: 13

atm_pop: Valence configuration (for local Pseudopot. screening):
 2s( 2.00)                                                            
 2p( 2.00)                                                            
Vna: chval, zval:    4.00000   4.00000

Vna:  Cut-off radius for the neutral-atom potential:   5.658549
comcore: Pseudo-core radius Rcore=  1.791422

atom: _________________________________________________________________________

prinput: Basis input ----------------------------------------------------------

PAO.BasisType split     

%block ChemicalSpeciesLabel
    1    5 B                       # Species index, atomic number, species label
    2    6 C                       # Species index, atomic number, species label
%endblock ChemicalSpeciesLabel

%block PAO.Basis                 # Define Basis set
B                     2                    # Species label, number of l-shells
 n=2   0   2                         # n, l, Nzeta 
   5.422      4.223   
   1.000      1.000   
 n=2   1   2 P   1                   # n, l, Nzeta, Polarization, NzetaPol
   6.790      4.609   
   1.000      1.000   
C                     2                    # Species label, number of l-shells
 n=2   0   2                         # n, l, Nzeta 
   4.633      3.432   
   1.000      1.000   
 n=2   1   2 P   1                   # n, l, Nzeta, Polarization, NzetaPol
   5.659      3.653   
   1.000      1.000   
%endblock PAO.Basis

prinput: ----------------------------------------------------------------------

coor:   Atomic-coordinates input format  =     Fractional

siesta: Atomic coordinates (Bohr) and species
siesta:     -2.35420  38.89134   0.00000  1        1
siesta:     -4.68258  34.85847   0.00000  1        2
siesta:     -4.68258  37.54693   0.00000  1        3
siesta:     -0.02582  13.34970   0.00000  1        4
siesta:     -4.68258  10.66124   0.00000  1        5
siesta:     -4.68258  13.34970   0.00000  1        6
siesta:     -2.35420  14.69411   0.00000  1        7
siesta:     -4.68258  18.72698   0.00000  1        8
siesta:     -4.68258  21.41544   0.00000  1        9
siesta:     -2.35420  22.75985   0.00000  1       10
siesta:     -2.35420  25.44831   0.00000  1       11
siesta:     -7.01096  25.44831   0.00000  1       12
siesta:    -11.66772  22.75985   0.00000  1       13
siesta:    -11.66772  25.44831   0.00000  1       14
siesta:     -9.33934  26.79272   0.00000  1       15
siesta:     -9.33934  29.48119   0.00000  1       16
siesta:     -0.02582  26.79272   0.00000  1       17
siesta:     -4.68258  26.79272   0.00000  1       18
siesta:     -7.01096  30.82560   0.00000  1       19
siesta:     -7.01096  33.51406   0.00000  1       20
siesta:     -0.02582   2.59549   0.00000  2       21
siesta:     -0.02582   5.28395   0.00000  2       22
siesta:     -2.35420  41.57980   0.00000  2       23
siesta:      2.30256  38.89134   0.00000  2       24
siesta:      2.30256  41.57980   0.00000  2       25
siesta:      4.63094  34.85847   0.00000  2       26
siesta:      4.63094  37.54693   0.00000  2       27
siesta:      6.95932  30.82560   0.00000  2       28
siesta:      6.95932  33.51406   0.00000  2       29
siesta:      9.28770  26.79272   0.00000  2       30
siesta:      9.28770  29.48119   0.00000  2       31
siesta:      2.30256   6.62836   0.00000  2       32
siesta:      2.30256   9.31683   0.00000  2       33
siesta:      4.63094  10.66124   0.00000  2       34
siesta:      4.63094  13.34970   0.00000  2       35
siesta:      6.95932  14.69411   0.00000  2       36
siesta:      6.95932  17.38257   0.00000  2       37
siesta:      9.28770  18.72698   0.00000  2       38
siesta:      9.28770  21.41544   0.00000  2       39
siesta:     11.61608  22.75985   0.00000  2       40
siesta:     11.61608  25.44831   0.00000  2       41
siesta:     -2.35420   6.62836   0.00000  2       42
siesta:     -2.35420   9.31683   0.00000  2       43
siesta:     -0.02582  10.66124   0.00000  2       44
siesta:      2.30256  14.69411   0.00000  2       45
siesta:      2.30256  17.38257   0.00000  2       46
siesta:      4.63094  18.72698   0.00000  2       47
siesta:      4.63094  21.41544   0.00000  2       48
siesta:      6.95932  22.75985   0.00000  2       49
siesta:      6.95932  25.44831   0.00000  2       50
siesta:     -2.35420  17.38257   0.00000  2       51
siesta:     -0.02582  18.72698   0.00000  2       52
siesta:     -0.02582  21.41544   0.00000  2       53
siesta:      2.30256  22.75985   0.00000  2       54
siesta:      2.30256  25.44831   0.00000  2       55
siesta:     -7.01096  14.69411   0.00000  2       56
siesta:     -7.01096  17.38257   0.00000  2       57
siesta:     -9.33934  18.72698   0.00000  2       58
siesta:     -9.33934  21.41544   0.00000  2       59
siesta:     -7.01096  22.75985   0.00000  2       60
siesta:      4.63094  26.79272   0.00000  2       61
siesta:      4.63094  29.48119   0.00000  2       62
siesta:     -0.02582  29.48119   0.00000  2       63
siesta:     -4.68258  29.48119   0.00000  2       64
siesta:      2.30256  30.82560   0.00000  2       65
siesta:      2.30256  33.51406   0.00000  2       66
siesta:     -2.35420  30.82560   0.00000  2       67
siesta:     -2.35420  33.51406   0.00000  2       68
siesta:     -0.02582  34.85847   0.00000  2       69
siesta:     -0.02582  37.54693   0.00000  2       70
siesta:     -0.02582  42.92421   0.00000  2       71
siesta:     -0.02582  45.61267   0.00000  2       72

siesta: System type = slab      

initatomlists: Number of atoms, orbitals, and projectors:     72   936  1152

siesta: ******************** Simulation parameters ****************************
siesta:
siesta: The following are some of the parameters of the simulation.
siesta: A complete list of the parameters used, including default values,
siesta: can be found in file out.fdf
siesta:
redata: Non-Collinear-spin run           =     F
redata: SpinPolarized (Up/Down) run      =     F
redata: Number of spin components        =     1
redata: Long output                      =     F
redata: Number of Atomic Species         =        2
redata: Charge density info will appear in .RHO file
redata: Write Mulliken Pop.              =     NO
redata: Mesh Cutoff                      =   200.0000  Ry
redata: Net charge of the system         =     0.0000 |e|
redata: Max. number of SCF Iter          =      500
redata: SCF convergence failure will abort job
redata: Performing Pulay mixing using    =    10 iterations
redata: Mix DM in first SCF step ?       =     F
redata: Write Pulay info on disk?        =     F
redata: Discard 1st Pulay DM after  kick =     F
redata: New DM Mixing Weight             =     0.0500
redata: New DM Occupancy tolerance       = 0.000000000001
redata: No kicks to SCF
redata: DM Mixing Weight for Kicks       =     0.5000
redata: DM Tolerance for SCF             =     0.000100
redata: Require Energy convergence for SCF =     F
redata: DM Energy tolerance for SCF      =     0.000100 eV
redata: Require Harris convergence for SCF =     F
redata: DM Harris energy tolerance for SCF =     0.000100 eV
redata: Using Saved Data (generic)   =     F
redata: Use continuation files for DM    =     T
redata: Neglect nonoverlap interactions  =     F
redata: Method of Calculation            =     Diagonalization
redata: Divide and Conquer               =     T
redata: Electronic Temperature           =     0.0019  Ry
redata: Fix the spin of the system       =     F
redata: Dynamics option                  =     Verlet MD run
redata: Initial MD time step             =        1
redata:   Final MD time step             =        1
redata: Length of MD time step           =     1.0000  fs
redata: Initial Temperature of MD run    =     0.0000  K
redata: Perform a MD quench              =     F
redata: ***********************************************************************
Total number of electrons:   268.000000
Total ionic charge:   268.000000

* ProcessorY, Blocksize:    2  24

k-point displ. along   1 input, could be:     0.50    0.00
k-point displ. along   2 input, could be:     0.50    0.00
 Kpoints in:          231 . Kpoints trimmed:          231

siesta: k-grid: Number of k-points =   231
siesta: k-grid: Cutoff (effective) =     5.000 Ang
siesta: k-grid: Supercell and displacements
siesta: k-grid:   21   0   0      0.500
siesta: k-grid:    0  21   0      0.500
siesta: k-grid:    0   0   1      0.000
Naive supercell factors:     2    2    2

superc: Internal auxiliary supercell:     2 x     2 x     2  =       8
superc: Number of atoms, orbitals, and projectors:    576   7488   9216

* Maximum dynamic memory allocated =     4 MB

siesta:                 ==============================
                            Begin MD step =      1
                        ==============================

superc: Internal auxiliary supercell:     2 x     2 x     2  =       8
superc: Number of atoms, orbitals, and projectors:    576   7488   9216

outcell: Unit cell vectors (Ang):
       12.804619    7.392750    0.000000
        0.000000   14.785500    0.000000
        0.000000    0.000000   10.000000

outcell: Cell vector modules (Ang)   :   14.785500   14.785500   10.000000
outcell: Cell angles (23,13,12) (deg):     90.0000     90.0000     60.0000
outcell: Cell volume (Ang**3)        :   1893.2269
New_DM. Step:     1
Initializing Density Matrix...

InitMesh: MESH =   120 x   120 x    90 =     1296000
InitMesh: Mesh cutoff (required, used) =   200.000   223.865 Ry

* Maximum dynamic memory allocated =   228 MB

stepf: Fermi-Dirac step function

siesta: Program's energy decomposition (eV):
siesta: Ebs     =     -5539.440864
siesta: Eions   =     15841.876847
siesta: Ena     =      4246.585369
siesta: Ekin    =      5323.417823
siesta: Enl     =       804.327422
siesta: DEna    =        -0.000008
siesta: DUscf   =         0.000000
siesta: DUext   =         0.000000
siesta: Exc     =     -4200.472412
siesta: eta*DQ  =         0.000000
siesta: Emadel  =         0.000000
siesta: Emeta   =         0.000000
siesta: Emolmec =         0.000000
siesta: Ekinion =         0.000000
siesta: Eharris =     -9416.967611
siesta: Etot    =     -9668.018653
siesta: FreeEng =     -9668.018653

siesta: iscf   Eharris(eV)      E_KS(eV)   FreeEng(eV)   dDmax  Ef(eV)
siesta:    1    -9416.9676    -9668.0187    -9668.0187  8.4822 -8.3691
timer: Routine,Calls,Time,% = IterSCF        1    4690.183  99.75
elaps: Routine,Calls,Wall,% = IterSCF        1     587.041  99.75
siesta:    2   -14736.1879    -8584.0201    -8584.0385 17.5061 -5.0172
siesta:    3    -9401.4785    -9488.7943    -9488.8374  2.8752 -6.3209
siesta:    4    -9361.0340    -9405.4896    -9405.5423  1.6991 -5.5688
siesta:    5    -9307.6771    -9327.8983    -9327.9077  1.2584 -5.1210
siesta:    6    -9265.2389    -9274.2378    -9274.2658  1.1490 -5.0321
siesta:    7    -9262.6301    -9263.1491    -9263.2198  1.1215 -4.9960
siesta:    8    -9259.5674    -9258.8191    -9258.8729  0.9626 -5.0504
siesta:    9    -9257.9415    -9242.3044    -9242.3407  0.6105 -4.9885
siesta:   10    -9257.1358    -9237.3683    -9237.4246  0.5050 -4.8814
siesta:   11    -9257.2427    -9232.4035    -9232.4523  0.3188 -4.8647
siesta:   12    -9256.8036    -9230.8860    -9230.9448  0.3433 -4.8358
siesta:   13    -9256.2311    -9231.0909    -9231.1584  0.2803 -4.8446
siesta:   14    -9255.5314    -9235.7482    -9235.8196  0.1914 -4.8790
siesta:   15    -9255.4902    -9241.1912    -9241.2577  0.4886 -4.8794
siesta:   16    -9255.2334    -9240.4800    -9240.5530  0.1994 -4.8963
siesta:   17    -9255.1688    -9241.0901    -9241.1678  0.1461 -4.9020
siesta:   18    -9255.0967    -9245.6764    -9245.7573  0.1160 -4.9281
siesta:   19    -9255.0496    -9247.9366    -9248.0007  0.0992 -4.9413
siesta:   20    -9255.0187    -9250.4386    -9250.5030  0.0786 -4.9483
siesta:   21    -9255.0180    -9252.2624    -9252.3280  0.0840 -4.9442
siesta:   22    -9254.9988    -9254.2306    -9254.2964  0.0605 -4.9414
siesta:   23    -9254.9929    -9254.8212    -9254.8889  0.0540 -4.9394
siesta:   24    -9254.9894    -9255.2922    -9255.3605  0.0505 -4.9400
siesta:   25    -9254.9820    -9255.4831    -9255.5516  0.0308 -4.9379
siesta:   26    -9254.9796    -9255.5205    -9255.5911  0.0151 -4.9299
siesta:   27    -9254.9764    -9255.5536    -9255.6257  0.0130 -4.9258
siesta:   28    -9254.9801    -9255.3867    -9255.4612  0.0231 -4.9275
siesta:   29    -9254.9780    -9255.2695    -9255.3404  0.0115 -4.9262
siesta:   30    -9254.9777    -9255.1946    -9255.2668  0.0084 -4.9257
siesta:   31    -9254.9772    -9255.0469    -9255.1194  0.0052 -4.9253
siesta:   32    -9254.9773    -9254.9458    -9255.0187  0.0044 -4.9258
siesta:   33    -9254.9770    -9254.9518    -9255.0246  0.0036 -4.9262
siesta:   34    -9254.9769    -9255.0360    -9255.1090  0.0015 -4.9269
siesta:   35    -9254.9768    -9255.0179    -9255.0909  0.0011 -4.9270
siesta:   36    -9254.9768    -9255.0045    -9255.0777  0.0007 -4.9272
siesta:   37    -9254.9769    -9254.9934    -9255.0666  0.0006 -4.9272
siesta:   38    -9254.9767    -9254.9571    -9255.0302  0.0011 -4.9271
siesta:   39    -9254.9768    -9254.9617    -9255.0349  0.0002 -4.9272
siesta:   40    -9254.9768    -9254.9601    -9255.0332  0.0001 -4.9272
siesta:   41    -9254.9768    -9254.9604    -9255.0335  0.0001 -4.9271
siesta:   42    -9254.9768    -9254.9615    -9255.0346  0.0001 -4.9271

siesta: E_KS(eV) =            -9254.9634

siesta: E_KS - E_eggbox =     -9254.9634

siesta: Atomic forces (eV/Ang):
----------------------------------------
   Tot   -0.197493   -0.304198    0.000000
----------------------------------------
   Max  562.163966
   Res  150.306329    sqrt( Sum f_i^2 / 3N )
----------------------------------------
   Max  562.163966    constrained

Stress-tensor-Voigt (kbar):     -745.55    -2716.10       -0.66        1.78        0.00        0.00
(Free)E + p*V (eV/cell)    -7891.2932
Target enthalpy (eV/cell)    -9255.0365

siesta: Stress tensor (static) (eV/Ang**3):
        -0.465333    0.001111    0.000000
         0.001111   -1.695240    0.000000
         0.000000    0.000000   -0.000410

siesta: Pressure (static):       1154.10436749  kBar

siesta: Stress tensor (total) (eV/Ang**3):
        -0.465333    0.001111    0.000000
         0.001111   -1.695240    0.000000
         0.000000    0.000000   -0.000410

siesta: Pressure (total):       1154.10436749  kBar

siesta: Temp_ion =       0.000 K

* Maximum dynamic memory allocated =   245 MB
Computing bands...

siesta: Program's energy decomposition (eV):
siesta: Ebs     =     -4209.264316
siesta: Eions   =     15841.876847
siesta: Ena     =      4246.585369
siesta: Ekin    =      8199.452064
siesta: Enl     =      -820.949895
siesta: DEna    =      -773.372358
siesta: DUscf   =       103.441857
siesta: DUext   =         0.000000
siesta: Exc     =     -4368.243611
siesta: eta*DQ  =         0.000000
siesta: Emadel  =         0.000000
siesta: Emeta   =         0.000000
siesta: Emolmec =         0.000000
siesta: Ekinion =         0.000000
siesta: Eharris =     -9254.976794
siesta: Etot    =     -9254.963422
siesta: FreeEng =     -9255.036545

siesta: Final energy (eV):
siesta:  Band Struct. =   -4209.264316
siesta:       Kinetic =    8199.452064
siesta:       Hartree =   26970.519566
siesta:    Ext. field =       0.000000
siesta:   Exch.-corr. =   -4368.243611
siesta:  Ion-electron =  -61901.361570
siesta:       Ion-ion =   21844.670130
siesta:       Ekinion =       0.000000
siesta:         Total =   -9254.963422

siesta: Atomic forces (eV/Ang):
siesta:      1    0.201912  111.017097    0.000000
siesta:      2  -17.236968    0.463066    0.000000
siesta:      3  -23.351828 -281.936288    0.000000
siesta:      4   -1.458866 -109.842952    0.000000
siesta:      5  -23.187629  283.131110    0.000000
siesta:      6  -18.903662    2.024394    0.000000
siesta:      7  -19.180932  401.518980    0.000000
siesta:      8    3.125713   -3.830350    0.000000
siesta:      9   -6.017666    3.737325    0.000000
siesta:     10    6.636324   -3.722774    0.000000
siesta:     11   -2.116574   -0.140288    0.000000
siesta:     12   -0.791008   -5.971755    0.000000
siesta:     13   -2.313615   -3.940556    0.000000
siesta:     14   -5.823980    3.398010    0.000000
siesta:     15   -3.990044    1.660869    0.000000
siesta:     16   -5.490526    1.838139    0.000000
siesta:     17    3.312848    0.781380    0.000000
siesta:     18    1.898793    5.840818    0.000000
siesta:     19    0.986531    1.149505    0.000000
siesta:     20   -3.484165    3.937629    0.000000
siesta:     21    1.151856  551.251370    0.000000
siesta:     22   -1.335176 -128.837443    0.000000
siesta:     23  -12.896948 -396.008122    0.000000
siesta:     24   -1.428267  132.010695    0.000000
siesta:     25   27.394838 -556.508349    0.000000
siesta:     26   27.045928    3.749261    0.000000
siesta:     27   32.645667 -550.872921    0.000000
siesta:     28    1.844698   -0.001624    0.000000
siesta:     29   -2.481838    2.339288    0.000000
siesta:     30    2.188176    1.950634    0.000000
siesta:     31   -0.872921    0.419323    0.000000
siesta:     32   12.249434  546.429745    0.000000
siesta:     33    0.720999 -125.186155    0.000000
siesta:     34   32.569813  549.311329    0.000000
siesta:     35   25.759227   -4.962723    0.000000
siesta:     36   -2.414658   -2.302055    0.000000
siesta:     37    1.379134    0.210946    0.000000
siesta:     38   -0.501891   -0.496830    0.000000
siesta:     39    1.555723   -2.089595    0.000000
siesta:     40    0.680763    6.411996    0.000000
siesta:     41   -0.261939   -6.331394    0.000000
siesta:     42   -7.740394  545.810430    0.000000
siesta:     43   -7.198161 -122.047861    0.000000
siesta:     44   -2.122721  546.396672    0.000000
siesta:     45   13.764544  554.073271    0.000000
siesta:     46   22.117773   -7.265801    0.000000
siesta:     47   -0.947562    2.110895    0.000000
siesta:     48    0.130171   -0.280817    0.000000
siesta:     49   -0.063917    0.836229    0.000000
siesta:     50   -0.020395   -0.598358    0.000000
siesta:     51  -19.966901   -4.540096    0.000000
siesta:     52   -2.764902  560.990418    0.000000
siesta:     53    2.185132   -0.985759    0.000000
siesta:     54    0.312609   -0.574157    0.000000
siesta:     55    2.299655   -1.013721    0.000000
siesta:     56   -0.173209    0.712773    0.000000
siesta:     57   -7.178927   -3.379939    0.000000
siesta:     58    1.085918    0.937367    0.000000
siesta:     59   -0.708584   -3.738947    0.000000
siesta:     60   -0.265777   -1.699947    0.000000
siesta:     61    0.304475   -0.067866    0.000000
siesta:     62   -0.992880   -2.041695    0.000000
siesta:     63   -0.068052 -562.163966    0.000000
siesta:     64    4.078834    0.994028    0.000000
siesta:     65   21.306631    5.169413    0.000000
siesta:     66   26.083133 -554.514972    0.000000
siesta:     67  -22.121883    5.070296    0.000000
siesta:     68  -30.039098 -552.606960    0.000000
siesta:     69   -1.289766  128.961158    0.000000
siesta:     70  -11.925007 -546.856469    0.000000
siesta:     71   -9.325330  131.963826    0.000000
siesta:     72    3.239821 -551.554379    0.000000
siesta: ----------------------------------------
siesta:    Tot   -0.197493   -0.304198    0.000000

siesta: Stress tensor (static) (eV/Ang**3):
siesta:    -0.465333    0.001111    0.000000
siesta:     0.001111   -1.695240    0.000000
siesta:     0.000000    0.000000   -0.000410

siesta: Cell volume =       1893.226884 Ang**3

siesta: Pressure (static):
siesta:                Solid            Molecule  Units
siesta:           0.00784529          0.11454650  Ry/Bohr**3
siesta:           0.72032750         10.51726976  eV/Ang**3
siesta:        1154.10436749      16850.70600324  kBar
(Free)E+ p_basis*V_orbitals  =       -9217.979860
(Free)Eharris+ p_basis*V_orbitals  =       -9217.995150

siesta: Electric dipole (a.u.)  =    0.000000    0.000000    0.000000
siesta: Electric dipole (Debye) =    0.000000    0.000000    0.000000

* Maximum dynamic memory allocated : Node    0 =   245 MB
* Maximum dynamic memory allocated : Node    1 =    87 MB
* Maximum dynamic memory allocated : Node    2 =    88 MB
* Maximum dynamic memory allocated : Node    3 =   232 MB
* Maximum dynamic memory allocated : Node    4 =   224 MB
* Maximum dynamic memory allocated : Node    5 =    82 MB
* Maximum dynamic memory allocated : Node    6 =    84 MB
* Maximum dynamic memory allocated : Node    7 =   205 MB

* Maximum memory occured during matrixMtoO                    

timer: CPU execution times:
timer:  Routine       Calls   Time/call    Tot.time        %
timer:  siesta            1  193306.883  193306.883   100.00
timer:  Setup             1       3.028       3.028     0.00
timer:  bands             3     272.318     816.955     0.42
timer:  writewave         1       0.019       0.019     0.00
timer:  KSV_init          1       0.005       0.005     0.00
timer:  IterMD            1  192481.057  192481.057    99.57
timer:  hsparse           1       0.395       0.395     0.00
timer:  overlap           1       7.790       7.790     0.00
timer:  IterSCF          42    4577.143  192240.008    99.45
timer:  kinefsm           2       4.032       8.063     0.00
timer:  nlefsm            2      21.538      43.076     0.02
timer:  DHSCF            43     125.594    5400.541     2.79
timer:  DHSCF1            1       1.010       1.010     0.00
timer:  DHSCF2            1      45.689      45.689     0.02
timer:  REORD           346       0.011       3.636     0.00
timer:  POISON           44       2.376     104.539     0.05
timer:  DHSCF3           43     123.444    5308.107     2.75
timer:  rhoofd           43      25.482    1095.733     0.57
timer:  cellXC           43       3.455     148.555     0.08
timer:  vmat             43      60.708    2610.429     1.35
timer:  MolMec            2       0.000       0.000     0.00
timer:  diagon           42    4450.401  186916.860    96.69
timer:  c-eigval       9823       6.764   66439.513    34.37
timer:  c-buildHS      9823       0.140    1373.211     0.71
timer:  cdiag         19525       6.982  136318.586    70.52
timer:  cdiag1        19525       0.437    8534.098     4.41
timer:  cdiag2        19525       1.927   37625.982    19.46
timer:  cdiag3        19525       3.971   77538.142    40.11
timer:  cdiag4        19525       0.230    4483.621     2.32
timer:  c-eigvec       9702       7.413   71917.301    37.20
timer:  c-buildD       9702       5.084   49322.690    25.52
timer:  DHSCF4            1      43.336      43.336     0.02
timer:  dfscf             1      40.635      40.635     0.02
timer:  overfsm           1       0.482       0.482     0.00
timer:  optical           1       5.105       5.105     0.00
  

elaps: ELAPSED times:
elaps:  Routine       Calls   Time/call    Tot.time        %
elaps:  siesta            1   24193.328   24193.328   100.00
elaps:  Setup             1       0.378       0.378     0.00
elaps:  bands             3      34.092     102.275     0.42
elaps:  writewave         1       0.002       0.002     0.00
elaps:  KSV_init          1       0.000       0.000     0.00
elaps:  IterMD            1   24090.001   24090.001    99.57
elaps:  hsparse           1       0.051       0.051     0.00
elaps:  overlap           1       0.979       0.979     0.00
elaps:  IterSCF          42     572.853   24059.845    99.45
elaps:  kinefsm           2       0.505       1.010     0.00
elaps:  nlefsm            2       2.728       5.456     0.02
elaps:  DHSCF            43      15.847     681.422     2.82
elaps:  DHSCF1            1       0.128       0.128     0.00
elaps:  DHSCF2            1       5.713       5.713     0.02
elaps:  REORD           346       0.001       0.493     0.00
elaps:  POISON           44       0.297      13.066     0.05
elaps:  DHSCF3           43      15.444     664.074     2.74
elaps:  rhoofd           43       7.065     303.789     1.26
elaps:  cellXC           43       0.431      18.549     0.08
elaps:  vmat             43       7.595     326.564     1.35
elaps:  MolMec            2       0.000       0.000     0.00
elaps:  diagon           42     557.026   23395.109    96.70
elaps:  c-eigval       9823       0.846    8312.940    34.36
elaps:  c-buildHS      9823       0.019     186.938     0.77
elaps:  cdiag         19525       0.858   16749.309    69.23
elaps:  cdiag1        19525       0.054    1046.648     4.33
elaps:  cdiag2        19525       0.241    4707.936    19.46
elaps:  cdiag3        19525       0.498    9714.804    40.15
elaps:  cdiag4        19525       0.030     589.335     2.44
elaps:  c-eigvec       9702       0.900    8733.844    36.10
elaps:  c-buildD       9702       0.664    6442.701    26.63
elaps:  DHSCF4            1      11.169      11.169     0.05
elaps:  dfscf             1      10.635      10.635     0.04
elaps:  overfsm           1       0.059       0.059     0.00
elaps:  optical           1       0.000       0.000     0.00
  
>> End of run:  27-APR-2016   7:48:07
