Siesta Version:                                        siesta-3.2-pl-3
Architecture  : x86_64-unknown-linux-gnu--unknown
Compiler flags: mpiifort -g -O2 -fPIC -xSSE4.1 -fp-model source -shared-intel 
PARALLEL version

* Running on   12 nodes in parallel
>> Start of run:   4-MAY-2016  20:19:24

                           ***********************       
                           *  WELCOME TO SIESTA  *       
                           ***********************       

reinit: Reading from standard input
************************** Dump of input data file ****************************
#(1) General system descriptors
SystemName            GRP_doping    # Descriptive name of the system
SystemLabel           GRP_doping    # Short name for naming files
%include STRUCT.fdf
%include KPT.fdf
%include BASIS.fdf
#%include TS.fdf # for transiesta calculation
#(4) DFT, Grid, SCF
XC.functional         GGA           # LDA or GGA (default = LDA)
XC.authors            PBE           # CA (Ceperley-Aldr) = PZ
                                    #    (Perdew-Zunger) - LDA - Default
                                    # PW92 (Perdew-Wang-92) - LDA
                                    # PBE (Perdew-Burke-Ernzerhof) - GGA
MeshCutoff            200.000000    Ry      # Default: 50.0 Ry ~ 0.444 Bohr
                                    #         100.0 Ry ~ 0.314 Bohr
MaxSCFIterations      500           # Default: 50
DM.MixingWeight       0.05          # Default: 0.25
DM.NumberPulay        10            # Default: 0
DM.PulayOnFile        F             # SystemLabel.P1, SystemLabel.P2
DM.Tolerance          1.d-4         # Default: 1.d-4
DM.UseSaveDM          .true.        # because of the bug
SCFMustConverge       .true.
NeglNonOverlapInt     F             # Default: F
#(5) Eigenvalue problem: order-N or diagonalization
SolutionMethod        Diagon        # or Transiesta
ElectronicTemperature 300.0 K       # Default: 300.0 K
#(6) Molecular dynamics and relaxations
#MD.TypeOfRun          CG            # Type of dynamics:
#MD.VariableCell       F
#MD.NumCGsteps         0           # 0 for single-point / 100 for gopt
#MD.MaxCGDispl         0.2 Bohr      # Default: 0.2 Bohr
#MD.MaxForceTol        0.02 eV/Ang   # Default: 0.04 eV/Ang
#MD.MaxStressTol       1.0 GPa       # Default: 1.0 GPa
# Geometry Constraints
#%block GeometryConstraints
#	position from 1 to 44
#%endblock GeometryConstraints
BandLinesScale   pi/a
%block BandLines
 1   0.00000000  0.00000000  0.00000000
50   0.00000000  0.07809418  0.00000000
50   0.04509075  0.07809242  0.00000000
20   0.00000000  0.00000000  0.00000000
%endblock BandLines
************************** End of input data file *****************************

reinit: -----------------------------------------------------------------------
reinit: System Name: GRP_doping
reinit: -----------------------------------------------------------------------
reinit: System Label: GRP_doping                                                  
reinit: -----------------------------------------------------------------------

initatom: Reading input for the pseudopotentials and atomic orbitals ----------
 Species number:            1  Label: N Atomic number:           7
 Species number:            2  Label: C Atomic number:           6
Ground state valence configuration:   2s02  2p03
Reading pseudopotential information in formatted form from N.psf

Valence configuration for pseudopotential generation:
2s( 2.00) rc: 1.48
2p( 3.00) rc: 1.48
3d( 0.00) rc: 1.48
4f( 0.00) rc: 1.48
Ground state valence configuration:   2s02  2p02
Reading pseudopotential information in formatted form from C.psf

Valence configuration for pseudopotential generation:
2s( 2.00) rc: 1.54
2p( 2.00) rc: 1.54
3d( 0.00) rc: 1.54
4f( 0.00) rc: 1.54
For N, standard SIESTA heuristics set lmxkb to 3
 (one more than the basis l, including polarization orbitals).
Use PS.lmax or PS.KBprojectors blocks to override.
For C, standard SIESTA heuristics set lmxkb to 3
 (one more than the basis l, including polarization orbitals).
Use PS.lmax or PS.KBprojectors blocks to override.

<basis_specs>
===============================================================================
N                    Z=   7    Mass=  14.010        Charge= 0.17977+309
Lmxo=1 Lmxkb= 3    BasisType=split      Semic=F
L=0  Nsemic=0  Cnfigmx=2
          n=1  nzeta=2  polorb=0
            splnorm:   0.15000    
               vcte:    0.0000    
               rinn:    0.0000    
                rcs:    0.0000      0.0000    
            lambdas:    1.0000      1.0000    
L=1  Nsemic=0  Cnfigmx=2
          n=1  nzeta=2  polorb=1
            splnorm:   0.15000    
               vcte:    0.0000    
               rinn:    0.0000    
                rcs:    0.0000      0.0000    
            lambdas:    1.0000      1.0000    
-------------------------------------------------------------------------------
L=0  Nkbl=1  erefs: 0.17977+309
L=1  Nkbl=1  erefs: 0.17977+309
L=2  Nkbl=1  erefs: 0.17977+309
L=3  Nkbl=1  erefs: 0.17977+309
===============================================================================
</basis_specs>

atom: Called for N                     (Z =   7)

read_vps: Pseudopotential generation method:
read_vps: ATM3      Troullier-Martins                       
Total valence charge:    5.00000

read_vps: Pseudopotential includes a core correction:
read_vps: Pseudo-core for xc-correction

xc_check: Exchange-correlation functional:
xc_check: GGA Perdew, Burke & Ernzerhof 1996
V l=0 = -2*Zval/r beyond r=  1.4606
V l=1 = -2*Zval/r beyond r=  1.4606
V l=2 = -2*Zval/r beyond r=  1.4606
V l=3 = -2*Zval/r beyond r=  1.4606
All V_l potentials equal beyond r=  1.4606
This should be close to max(r_c) in ps generation
All pots = -2*Zval/r beyond r=  1.4606

VLOCAL1: 99.0% of the norm of Vloc inside     20.347 Ry
VLOCAL1: 99.9% of the norm of Vloc inside     46.372 Ry
atom: Maximum radius for 4*pi*r*r*local-pseudopot. charge    1.76189
atom: Maximum radius for r*vlocal+2*Zval:    1.53550
GHOST: No ghost state for L =  0
GHOST: No ghost state for L =  1
GHOST: No ghost state for L =  2
GHOST: No ghost state for L =  3

KBgen: Kleinman-Bylander projectors: 
   l= 0   rc=  1.634559   el= -1.363963   Ekb=  5.296955   kbcos=  0.335621
   l= 1   rc=  1.614250   el= -0.521451   Ekb= -5.259161   kbcos= -0.433408
   l= 2   rc=  1.718383   el=  0.001991   Ekb= -1.271464   kbcos= -0.007566
   l= 3   rc=  1.761893   el=  0.003093   Ekb= -0.494769   kbcos= -0.001015

KBgen: Total number of  Kleinman-Bylander projectors:   16
atom: -------------------------------------------------------------------------

atom: SANKEY-TYPE ORBITALS:
atom: Selected multiple-zeta basis: split     

SPLIT: Orbitals with angular momentum L= 0

SPLIT: Basis orbitals for state 2s

SPLIT: PAO cut-off radius determined from an
SPLIT: energy shift=  0.007350 Ry

   izeta = 1
                 lambda =    1.000000
                     rc =    4.071465
                 energy =   -1.356470
                kinetic =    1.176977
    potential(screened) =   -2.533447
       potential(ionic) =   -8.057990

   izeta = 2
                 rmatch =    2.905100
              splitnorm =    0.150000
                 energy =   -1.158343
                kinetic =    1.813009
    potential(screened) =   -2.971352
       potential(ionic) =   -8.901931

SPLIT: Orbitals with angular momentum L= 1

SPLIT: Basis orbitals for state 2p

SPLIT: PAO cut-off radius determined from an
SPLIT: energy shift=  0.007350 Ry

   izeta = 1
                 lambda =    1.000000
                     rc =    4.972977
                 energy =   -0.513884
                kinetic =    3.441732
    potential(screened) =   -3.955616
       potential(ionic) =   -9.287901

   izeta = 2
                 rmatch =    3.054066
              splitnorm =    0.150000
                 energy =   -0.318226
                kinetic =    5.125348
    potential(screened) =   -5.443573
       potential(ionic) =  -11.380999

POLgen: Perturbative polarization orbital with L=  2

POLgen: Polarization orbital for state 2p

   izeta = 1
                     rc =    4.972977
                 energy =    1.607437
                kinetic =    3.268125
    potential(screened) =   -1.660688
       potential(ionic) =   -5.973652
atom: Total number of Sankey-type orbitals: 13

atm_pop: Valence configuration (for local Pseudopot. screening):
 2s( 2.00)                                                            
 2p( 3.00)                                                            
Vna: chval, zval:    5.00000   5.00000

Vna:  Cut-off radius for the neutral-atom potential:   4.972977
comcore: Pseudo-core radius Rcore=  1.554824

atom: _________________________________________________________________________

<basis_specs>
===============================================================================
C                    Z=   6    Mass=  12.010        Charge= 0.17977+309
Lmxo=1 Lmxkb= 3    BasisType=split      Semic=F
L=0  Nsemic=0  Cnfigmx=2
          n=1  nzeta=2  polorb=0
            splnorm:   0.15000    
               vcte:    0.0000    
               rinn:    0.0000    
                rcs:    0.0000      0.0000    
            lambdas:    1.0000      1.0000    
L=1  Nsemic=0  Cnfigmx=2
          n=1  nzeta=2  polorb=1
            splnorm:   0.15000    
               vcte:    0.0000    
               rinn:    0.0000    
                rcs:    0.0000      0.0000    
            lambdas:    1.0000      1.0000    
-------------------------------------------------------------------------------
L=0  Nkbl=1  erefs: 0.17977+309
L=1  Nkbl=1  erefs: 0.17977+309
L=2  Nkbl=1  erefs: 0.17977+309
L=3  Nkbl=1  erefs: 0.17977+309
===============================================================================
</basis_specs>

atom: Called for C                     (Z =   6)

read_vps: Pseudopotential generation method:
read_vps: ATM3      Troullier-Martins                       
Total valence charge:    4.00000

read_vps: Pseudopotential includes a core correction:
read_vps: Pseudo-core for xc-correction

xc_check: Exchange-correlation functional:
xc_check: GGA Perdew, Burke & Ernzerhof 1996
V l=0 = -2*Zval/r beyond r=  1.5227
V l=1 = -2*Zval/r beyond r=  1.5227
V l=2 = -2*Zval/r beyond r=  1.5227
V l=3 = -2*Zval/r beyond r=  1.5038
All V_l potentials equal beyond r=  1.5227
This should be close to max(r_c) in ps generation
All pots = -2*Zval/r beyond r=  1.5227

VLOCAL1: 99.0% of the norm of Vloc inside     18.722 Ry
VLOCAL1: 99.9% of the norm of Vloc inside     42.668 Ry
atom: Maximum radius for 4*pi*r*r*local-pseudopot. charge    1.83678
atom: Maximum radius for r*vlocal+2*Zval:    1.58088
GHOST: No ghost state for L =  0
GHOST: No ghost state for L =  1
GHOST: No ghost state for L =  2
GHOST: No ghost state for L =  3

KBgen: Kleinman-Bylander projectors: 
   l= 0   rc=  1.704034   el= -1.009801   Ekb=  5.335044   kbcos=  0.316824
   l= 1   rc=  1.704034   el= -0.388707   Ekb= -3.785862   kbcos= -0.366464
   l= 2   rc=  1.791422   el=  0.001971   Ekb= -0.970471   kbcos= -0.009212
   l= 3   rc=  1.859892   el=  0.003065   Ekb= -0.399525   kbcos= -0.001223

KBgen: Total number of  Kleinman-Bylander projectors:   16
atom: -------------------------------------------------------------------------

atom: SANKEY-TYPE ORBITALS:
atom: Selected multiple-zeta basis: split     

SPLIT: Orbitals with angular momentum L= 0

SPLIT: Basis orbitals for state 2s

SPLIT: PAO cut-off radius determined from an
SPLIT: energy shift=  0.007350 Ry

   izeta = 1
                 lambda =    1.000000
                     rc =    4.632753
                 energy =   -1.002270
                kinetic =    0.855760
    potential(screened) =   -1.858031
       potential(ionic) =   -5.417575

   izeta = 2
                 rmatch =    3.431921
              splitnorm =    0.150000
                 energy =   -0.867111
                kinetic =    1.300804
    potential(screened) =   -2.167915
       potential(ionic) =   -5.962684

SPLIT: Orbitals with angular momentum L= 1

SPLIT: Basis orbitals for state 2p

SPLIT: PAO cut-off radius determined from an
SPLIT: energy shift=  0.007350 Ry

   izeta = 1
                 lambda =    1.000000
                     rc =    5.658549
                 energy =   -0.381140
                kinetic =    2.399701
    potential(screened) =   -2.780841
       potential(ionic) =   -6.206085

   izeta = 2
                 rmatch =    3.653288
              splitnorm =    0.150000
                 energy =   -0.249149
                kinetic =    3.542762
    potential(screened) =   -3.791911
       potential(ionic) =   -7.581078

POLgen: Perturbative polarization orbital with L=  2

POLgen: Polarization orbital for state 2p

   izeta = 1
                     rc =    5.658549
                 energy =    1.109913
                kinetic =    2.304789
    potential(screened) =   -1.194876
       potential(ionic) =   -4.013592
atom: Total number of Sankey-type orbitals: 13

atm_pop: Valence configuration (for local Pseudopot. screening):
 2s( 2.00)                                                            
 2p( 2.00)                                                            
Vna: chval, zval:    4.00000   4.00000

Vna:  Cut-off radius for the neutral-atom potential:   5.658549
comcore: Pseudo-core radius Rcore=  1.791422

atom: _________________________________________________________________________

prinput: Basis input ----------------------------------------------------------

PAO.BasisType split     

%block ChemicalSpeciesLabel
    1    7 N                       # Species index, atomic number, species label
    2    6 C                       # Species index, atomic number, species label
%endblock ChemicalSpeciesLabel

%block PAO.Basis                 # Define Basis set
N                     2                    # Species label, number of l-shells
 n=2   0   2                         # n, l, Nzeta 
   4.071      2.905   
   1.000      1.000   
 n=2   1   2 P   1                   # n, l, Nzeta, Polarization, NzetaPol
   4.973      3.054   
   1.000      1.000   
C                     2                    # Species label, number of l-shells
 n=2   0   2                         # n, l, Nzeta 
   4.633      3.432   
   1.000      1.000   
 n=2   1   2 P   1                   # n, l, Nzeta, Polarization, NzetaPol
   5.659      3.653   
   1.000      1.000   
%endblock PAO.Basis

prinput: ----------------------------------------------------------------------

coor:   Atomic-coordinates input format  =     Fractional

siesta: Atomic coordinates (Bohr) and species
siesta:      2.30256  17.38257   0.00000  1        1
siesta:      4.63094  18.72698   0.00000  1        2
siesta:      4.63094  21.41544   0.00000  1        3
siesta:      6.95932  25.44831   0.00000  1        4
siesta:     -0.02582  18.72698   0.00000  1        5
siesta:     -0.02582  21.41544   0.00000  1        6
siesta:      2.30256  22.75985   0.00000  1        7
siesta:     -2.35420  25.44831   0.00000  1        8
siesta:     -7.01096  25.44831   0.00000  1        9
siesta:      4.63094  26.79272   0.00000  1       10
siesta:      4.63094  29.48119   0.00000  1       11
siesta:     -0.02582  26.79272   0.00000  1       12
siesta:     -0.02582  29.48119   0.00000  1       13
siesta:     -4.68258  26.79272   0.00000  1       14
siesta:      2.30256  30.82560   0.00000  1       15
siesta:     -0.02582   2.59549   0.00000  2       16
siesta:     -0.02582   5.28395   0.00000  2       17
siesta:     -2.35420  38.89134   0.00000  2       18
siesta:     -2.35420  41.57980   0.00000  2       19
siesta:      2.30256  38.89134   0.00000  2       20
siesta:      2.30256  41.57980   0.00000  2       21
siesta:      4.63094  34.85847   0.00000  2       22
siesta:      4.63094  37.54693   0.00000  2       23
siesta:      6.95932  30.82560   0.00000  2       24
siesta:      6.95932  33.51406   0.00000  2       25
siesta:      9.28770  26.79272   0.00000  2       26
siesta:      9.28770  29.48119   0.00000  2       27
siesta:     -4.68258  34.85847   0.00000  2       28
siesta:     -4.68258  37.54693   0.00000  2       29
siesta:      2.30256   6.62836   0.00000  2       30
siesta:      2.30256   9.31683   0.00000  2       31
siesta:      4.63094  10.66124   0.00000  2       32
siesta:      4.63094  13.34970   0.00000  2       33
siesta:      6.95932  14.69411   0.00000  2       34
siesta:      6.95932  17.38257   0.00000  2       35
siesta:      9.28770  18.72698   0.00000  2       36
siesta:      9.28770  21.41544   0.00000  2       37
siesta:     11.61608  22.75985   0.00000  2       38
siesta:     11.61608  25.44831   0.00000  2       39
siesta:     -2.35420   6.62836   0.00000  2       40
siesta:     -2.35420   9.31683   0.00000  2       41
siesta:     -0.02582  10.66124   0.00000  2       42
siesta:     -0.02582  13.34970   0.00000  2       43
siesta:      2.30256  14.69411   0.00000  2       44
siesta:      6.95932  22.75985   0.00000  2       45
siesta:     -4.68258  10.66124   0.00000  2       46
siesta:     -4.68258  13.34970   0.00000  2       47
siesta:     -2.35420  14.69411   0.00000  2       48
siesta:     -2.35420  17.38257   0.00000  2       49
siesta:      2.30256  25.44831   0.00000  2       50
siesta:     -7.01096  14.69411   0.00000  2       51
siesta:     -7.01096  17.38257   0.00000  2       52
siesta:     -4.68258  18.72698   0.00000  2       53
siesta:     -4.68258  21.41544   0.00000  2       54
siesta:     -2.35420  22.75985   0.00000  2       55
siesta:     -9.33934  18.72698   0.00000  2       56
siesta:     -9.33934  21.41544   0.00000  2       57
siesta:     -7.01096  22.75985   0.00000  2       58
siesta:    -11.66772  22.75985   0.00000  2       59
siesta:    -11.66772  25.44831   0.00000  2       60
siesta:     -9.33934  26.79272   0.00000  2       61
siesta:     -9.33934  29.48119   0.00000  2       62
siesta:     -4.68258  29.48119   0.00000  2       63
siesta:      2.30256  33.51406   0.00000  2       64
siesta:     -2.35420  30.82560   0.00000  2       65
siesta:     -2.35420  33.51406   0.00000  2       66
siesta:     -7.01096  30.82560   0.00000  2       67
siesta:     -7.01096  33.51406   0.00000  2       68
siesta:     -0.02582  34.85847   0.00000  2       69
siesta:     -0.02582  37.54693   0.00000  2       70
siesta:     -0.02582  42.92421   0.00000  2       71
siesta:     -0.02582  45.61267   0.00000  2       72

siesta: System type = slab      

initatomlists: Number of atoms, orbitals, and projectors:     72   936  1152

siesta: ******************** Simulation parameters ****************************
siesta:
siesta: The following are some of the parameters of the simulation.
siesta: A complete list of the parameters used, including default values,
siesta: can be found in file out.fdf
siesta:
redata: Non-Collinear-spin run           =     F
redata: SpinPolarized (Up/Down) run      =     F
redata: Number of spin components        =     1
redata: Long output                      =     F
redata: Number of Atomic Species         =        2
redata: Charge density info will appear in .RHO file
redata: Write Mulliken Pop.              =     NO
redata: Mesh Cutoff                      =   200.0000  Ry
redata: Net charge of the system         =     0.0000 |e|
redata: Max. number of SCF Iter          =      500
redata: SCF convergence failure will abort job
redata: Performing Pulay mixing using    =    10 iterations
redata: Mix DM in first SCF step ?       =     F
redata: Write Pulay info on disk?        =     F
redata: Discard 1st Pulay DM after  kick =     F
redata: New DM Mixing Weight             =     0.0500
redata: New DM Occupancy tolerance       = 0.000000000001
redata: No kicks to SCF
redata: DM Mixing Weight for Kicks       =     0.5000
redata: DM Tolerance for SCF             =     0.000100
redata: Require Energy convergence for SCF =     F
redata: DM Energy tolerance for SCF      =     0.000100 eV
redata: Require Harris convergence for SCF =     F
redata: DM Harris energy tolerance for SCF =     0.000100 eV
redata: Using Saved Data (generic)   =     F
redata: Use continuation files for DM    =     T
redata: Neglect nonoverlap interactions  =     F
redata: Method of Calculation            =     Diagonalization
redata: Divide and Conquer               =     T
redata: Electronic Temperature           =     0.0019  Ry
redata: Fix the spin of the system       =     F
redata: Dynamics option                  =     Verlet MD run
redata: Initial MD time step             =        1
redata:   Final MD time step             =        1
redata: Length of MD time step           =     1.0000  fs
redata: Initial Temperature of MD run    =     0.0000  K
redata: Perform a MD quench              =     F
redata: ***********************************************************************
Total number of electrons:   303.000000
Total ionic charge:   303.000000

* ProcessorY, Blocksize:    3  24

k-point displ. along   1 input, could be:     0.50    0.00
k-point displ. along   2 input, could be:     0.50    0.00
 Kpoints in:          231 . Kpoints trimmed:          231

siesta: k-grid: Number of k-points =   231
siesta: k-grid: Cutoff (effective) =     5.000 Ang
siesta: k-grid: Supercell and displacements
siesta: k-grid:   21   0   0      0.500
siesta: k-grid:    0  21   0      0.500
siesta: k-grid:    0   0   1      0.000
Naive supercell factors:     2    2    2

superc: Internal auxiliary supercell:     2 x     2 x     2  =       8
superc: Number of atoms, orbitals, and projectors:    576   7488   9216

* Maximum dynamic memory allocated =     4 MB

siesta:                 ==============================
                            Begin MD step =      1
                        ==============================

superc: Internal auxiliary supercell:     2 x     2 x     2  =       8
superc: Number of atoms, orbitals, and projectors:    576   7488   9216

outcell: Unit cell vectors (Ang):
       12.804619    7.392750    0.000000
        0.000000   14.785500    0.000000
        0.000000    0.000000   10.000000

outcell: Cell vector modules (Ang)   :   14.785500   14.785500   10.000000
outcell: Cell angles (23,13,12) (deg):     90.0000     90.0000     60.0000
outcell: Cell volume (Ang**3)        :   1893.2269
New_DM. Step:     1
Initializing Density Matrix...

InitMesh: MESH =   120 x   120 x    90 =     1296000
InitMesh: Mesh cutoff (required, used) =   200.000   223.865 Ry

* Maximum dynamic memory allocated =   134 MB

stepf: Fermi-Dirac step function

siesta: Program's energy decomposition (eV):
siesta: Ebs     =     -6136.768658
siesta: Eions   =     20814.213734
siesta: Ena     =      4875.118751
siesta: Ekin    =      7637.016727
siesta: Enl     =       206.016069
siesta: DEna    =        -0.000015
siesta: DUscf   =         0.000000
siesta: DUext   =         0.000000
siesta: Exc     =     -4539.920659
siesta: eta*DQ  =         0.000000
siesta: Emadel  =         0.000000
siesta: Emeta   =         0.000000
siesta: Emolmec =         0.000000
siesta: Ekinion =         0.000000
siesta: Eharris =    -12297.447217
siesta: Etot    =    -12635.982860
siesta: FreeEng =    -12635.982860

siesta: iscf   Eharris(eV)      E_KS(eV)   FreeEng(eV)   dDmax  Ef(eV)
siesta:    1   -12297.4472   -12635.9829   -12635.9829  5.7233 -7.0509
timer: Routine,Calls,Time,% = IterSCF        1    3000.952  99.59
elaps: Routine,Calls,Wall,% = IterSCF        1     250.674  99.59
siesta:    2   -19114.7465   -11388.5576   -11388.6066 35.0796 -8.4537
siesta:    3   -12241.1584   -12468.0566   -12468.1012  2.5386 -5.2515
siesta:    4   -12205.0543   -12324.9691   -12325.0283  1.3411 -4.4897
siesta:    5   -12144.5553   -12264.4083   -12264.4573  1.0515 -4.3097
siesta:    6   -12134.1695   -12192.6839   -12192.7333  0.9313 -3.8299
siesta:    7   -12125.1267   -12167.8871   -12167.9150  0.8577 -3.7469
siesta:    8   -12122.5428   -12155.2827   -12155.3207  0.7733 -3.7954
siesta:    9   -12122.3235   -12132.6194   -12132.6843  0.5900 -3.8741
siesta:   10   -12121.9520   -12119.9635   -12120.0059  0.4818 -3.8441
siesta:   11   -12122.3243   -12105.2361   -12105.3063  0.3348 -3.8445
siesta:   12   -12121.5806   -12101.3408   -12101.4185  0.2297 -3.8113
siesta:   13   -12121.0658   -12098.7702   -12098.8385  0.1405 -3.7801
siesta:   14   -12120.5760   -12102.3683   -12102.4288  0.1177 -3.7871
siesta:   15   -12120.1956   -12105.1347   -12105.1930  0.1065 -3.7951
siesta:   16   -12120.0548   -12107.5207   -12107.5733  0.0600 -3.8188
siesta:   17   -12119.9753   -12108.6016   -12108.6696  0.0480 -3.8145
siesta:   18   -12119.9302   -12110.1616   -12110.2307  0.0492 -3.8141
siesta:   19   -12119.9170   -12112.7856   -12112.8541  0.0479 -3.8064
siesta:   20   -12119.9124   -12115.7699   -12115.8358  0.0310 -3.8096
siesta:   21   -12119.9029   -12118.9859   -12119.0521  0.0150 -3.8141
siesta:   22   -12119.9006   -12119.2611   -12119.3307  0.0114 -3.8159
siesta:   23   -12119.8985   -12119.6587   -12119.7272  0.0092 -3.8154
siesta:   24   -12119.8985   -12119.3960   -12119.4654  0.0091 -3.8139
siesta:   25   -12119.8978   -12119.4448   -12119.5135  0.0060 -3.8125
siesta:   26   -12119.8979   -12119.5116   -12119.5809  0.0039 -3.8118
siesta:   27   -12119.8977   -12119.7731   -12119.8423  0.0025 -3.8107
siesta:   28   -12119.8977   -12119.8322   -12119.9014  0.0016 -3.8107
siesta:   29   -12119.8975   -12119.9002   -12119.9693  0.0012 -3.8112
siesta:   30   -12119.8974   -12119.9216   -12119.9907  0.0008 -3.8114
siesta:   31   -12119.8974   -12119.9685   -12120.0377  0.0004 -3.8116
siesta:   32   -12119.8974   -12119.9625   -12120.0316  0.0003 -3.8117
siesta:   33   -12119.8974   -12119.9127   -12119.9818  0.0003 -3.8118
siesta:   34   -12119.8974   -12119.8998   -12119.9689  0.0003 -3.8118
siesta:   35   -12119.8974   -12119.8926   -12119.9617  0.0002 -3.8118
siesta:   36   -12119.8974   -12119.8923   -12119.9614  0.0001 -3.8119
siesta:   37   -12119.8974   -12119.8934   -12119.9626  0.0001 -3.8119
siesta:   38   -12119.8974   -12119.8945   -12119.9637  0.0001 -3.8119

siesta: E_KS(eV) =           -12119.8939

siesta: E_KS - E_eggbox =    -12119.8939

siesta: Atomic forces (eV/Ang):
----------------------------------------
   Tot   -0.058149   -0.039723    0.000000
----------------------------------------
   Max  684.457188
   Res  169.063722    sqrt( Sum f_i^2 / 3N )
----------------------------------------
   Max  684.457188    constrained

Stress-tensor-Voigt (kbar):     -741.71    -2934.50       -0.10       -0.10        0.00        0.00
(Free)E + p*V (eV/cell)   -10671.9329
Target enthalpy (eV/cell)   -12119.9630

siesta: Stress tensor (static) (eV/Ang**3):
        -0.462931   -0.000063    0.000000
        -0.000063   -1.831549    0.000000
         0.000000    0.000000   -0.000063

siesta: Pressure (static):       1225.43425572  kBar

siesta: Stress tensor (total) (eV/Ang**3):
        -0.462931   -0.000063    0.000000
        -0.000063   -1.831549    0.000000
         0.000000    0.000000   -0.000063

siesta: Pressure (total):       1225.43425572  kBar

siesta: Temp_ion =       0.000 K

* Maximum dynamic memory allocated =   147 MB
Computing bands...

siesta: Program's energy decomposition (eV):
siesta: Ebs     =     -4930.783118
siesta: Eions   =     20814.213734
siesta: Ena     =      4875.118751
siesta: Ekin    =     10654.829244
siesta: Enl     =     -1464.228005
siesta: DEna    =      -770.921367
siesta: DUscf   =       107.785753
siesta: DUext   =         0.000000
siesta: Exc     =     -4708.264497
siesta: eta*DQ  =         0.000000
siesta: Emadel  =         0.000000
siesta: Emeta   =         0.000000
siesta: Emolmec =         0.000000
siesta: Ekinion =         0.000000
siesta: Eharris =    -12119.897405
siesta: Etot    =    -12119.893856
siesta: FreeEng =    -12119.963008

siesta: Final energy (eV):
siesta:  Band Struct. =   -4930.783118
siesta:       Kinetic =   10654.829244
siesta:       Hartree =   34392.834825
siesta:    Ext. field =       0.000000
siesta:   Exch.-corr. =   -4708.264497
siesta:  Ion-electron =  -79022.162726
siesta:       Ion-ion =   26562.869298
siesta:       Ekinion =       0.000000
siesta:         Total =  -12119.893856

siesta: Atomic forces (eV/Ang):
siesta:      1   36.597509  -16.907250    0.000000
siesta:      2    0.975761    1.548825    0.000000
siesta:      3    1.553114    1.653091    0.000000
siesta:      4    0.091544   -2.595992    0.000000
siesta:      5  -17.878621  683.085301    0.000000
siesta:      6   -0.856575   -2.143155    0.000000
siesta:      7    0.656038    1.264807    0.000000
siesta:      8   -1.124461   -1.701683    0.000000
siesta:      9   -0.138144   -2.095792    0.000000
siesta:     10   -1.797805   -1.214169    0.000000
siesta:     11    1.818115   -2.116805    0.000000
siesta:     12    0.471087    3.631052    0.000000
siesta:     13  -16.146307 -684.457188    0.000000
siesta:     14   -0.600581    1.561448    0.000000
siesta:     15   36.051851   17.250530    0.000000
siesta:     16    8.595022  640.807442    0.000000
siesta:     17    1.997863 -120.748432    0.000000
siesta:     18    0.590694  129.388103    0.000000
siesta:     19  -16.967090 -547.349662    0.000000
siesta:     20   -1.097236  128.810410    0.000000
siesta:     21   19.750995 -552.616754    0.000000
siesta:     22   26.167103    7.180447    0.000000
siesta:     23   33.616902 -550.367108    0.000000
siesta:     24    1.912828    0.327199    0.000000
siesta:     25   -2.697476    0.488803    0.000000
siesta:     26    1.861601    2.227049    0.000000
siesta:     27   -1.175776   -0.243626    0.000000
siesta:     28  -26.482830    6.262809    0.000000
siesta:     29  -33.123430 -550.718454    0.000000
siesta:     30   19.778849  552.685613    0.000000
siesta:     31   -1.170537 -128.839242    0.000000
siesta:     32   33.885636  550.366048    0.000000
siesta:     33   26.284429   -7.177885    0.000000
siesta:     34   -2.782636   -0.641125    0.000000
siesta:     35    2.174663    0.142297    0.000000
siesta:     36   -1.642003   -0.973288    0.000000
siesta:     37    1.197997   -1.308902    0.000000
siesta:     38   -0.312180    5.774976    0.000000
siesta:     39   -0.857124   -5.157747    0.000000
siesta:     40  -16.909936  548.260683    0.000000
siesta:     41    0.487657 -129.381728    0.000000
siesta:     42    0.650833  547.523129    0.000000
siesta:     43    1.754144 -128.421525    0.000000
siesta:     44   12.585353  560.716633    0.000000
siesta:     45   -1.335689    1.388044    0.000000
siesta:     46  -32.593361  550.488629    0.000000
siesta:     47  -26.578962   -5.635102    0.000000
siesta:     48  -24.776515  556.722435    0.000000
siesta:     49  -25.870517  -11.504323    0.000000
siesta:     50    1.501590   -0.078301    0.000000
siesta:     51    2.814814   -2.000948    0.000000
siesta:     52   -2.351612   -0.050306    0.000000
siesta:     53    1.478020    2.758910    0.000000
siesta:     54    0.412990    0.113501    0.000000
siesta:     55   -0.172552    0.293213    0.000000
siesta:     56    1.389894   -0.396821    0.000000
siesta:     57   -1.460897   -1.519699    0.000000
siesta:     58    0.372363    1.274917    0.000000
siesta:     59    0.124680    6.286883    0.000000
siesta:     60    0.747745   -5.668026    0.000000
siesta:     61   -1.241588    1.781888    0.000000
siesta:     62    0.808933    0.111621    0.000000
siesta:     63    2.057438   -3.229604    0.000000
siesta:     64   12.999493 -560.530900    0.000000
siesta:     65  -26.846907   10.924621    0.000000
siesta:     66  -23.965456 -557.902526    0.000000
siesta:     67   -2.068107   -0.087732    0.000000
siesta:     68    2.752558    1.612364    0.000000
siesta:     69    1.513091  128.753225    0.000000
siesta:     70    1.072555 -547.754041    0.000000
siesta:     71    2.400230  120.561893    0.000000
siesta:     72    9.010782 -640.532721    0.000000
siesta: ----------------------------------------
siesta:    Tot   -0.058149   -0.039723    0.000000

siesta: Stress tensor (static) (eV/Ang**3):
siesta:    -0.462931   -0.000063    0.000000
siesta:    -0.000063   -1.831549    0.000000
siesta:     0.000000    0.000000   -0.000063

siesta: Cell volume =       1893.226884 Ang**3

siesta: Pressure (static):
siesta:                Solid            Molecule  Units
siesta:           0.00833017          0.13156893  Ry/Bohr**3
siesta:           0.76484764         12.08021193  eV/Ang**3
siesta:        1225.43425572      19354.84249264  kBar
(Free)E+ p_basis*V_orbitals  =      -12091.369844
(Free)Eharris+ p_basis*V_orbitals  =      -12091.372703

siesta: Electric dipole (a.u.)  =    0.000000    0.000000    0.000000
siesta: Electric dipole (Debye) =    0.000000    0.000000    0.000000

* Maximum dynamic memory allocated : Node    0 =   147 MB
* Maximum dynamic memory allocated : Node    1 =    58 MB
* Maximum dynamic memory allocated : Node    2 =    60 MB
* Maximum dynamic memory allocated : Node    3 =   136 MB
* Maximum dynamic memory allocated : Node    4 =   146 MB
* Maximum dynamic memory allocated : Node    5 =    54 MB
* Maximum dynamic memory allocated : Node    6 =    55 MB
* Maximum dynamic memory allocated : Node    7 =   137 MB
* Maximum dynamic memory allocated : Node    8 =   124 MB
* Maximum dynamic memory allocated : Node    9 =    52 MB
* Maximum dynamic memory allocated : Node   10 =    54 MB
* Maximum dynamic memory allocated : Node   11 =   121 MB

* Maximum memory occured during matrixMtoO                    

timer: CPU execution times:
timer:  Routine       Calls   Time/call    Tot.time        %
timer:  siesta            1  111848.833  111848.833   100.00
timer:  Setup             1       3.371       3.371     0.00
timer:  bands             3     226.512     679.535     0.61
timer:  writewave         1       0.024       0.024     0.00
timer:  KSV_init          1       0.002       0.002     0.00
timer:  IterMD            1  111158.970  111158.970    99.38
timer:  hsparse           1       0.164       0.164     0.00
timer:  overlap           1       7.161       7.161     0.01
timer:  IterSCF          38    2921.972  111034.942    99.27
timer:  kinefsm           2       3.618       7.236     0.01
timer:  nlefsm            2      18.375      36.751     0.03
timer:  DHSCF            39      61.815    2410.770     2.16
timer:  DHSCF1            1       0.900       0.900     0.00
timer:  DHSCF2            1      24.712      24.712     0.02
timer:  REORD           314       0.002       0.681     0.00
timer:  POISON           40       0.448      17.919     0.02
timer:  DHSCF3           39      60.617    2364.082     2.11
timer:  rhoofd           39      12.424     484.542     0.43
timer:  cellXC           39       2.428      94.699     0.08
timer:  vmat             39      28.561    1113.885     1.00
timer:  MolMec            2       0.000       0.000     0.00
timer:  diagon           38    2858.980  108641.257    97.13
timer:  c-eigval       8899       5.584   49694.013    44.43
timer:  c-buildHS      8899       0.033     290.349     0.26
timer:  cdiag         17677       5.683  100455.243    89.81
timer:  cdiag1        17677       0.260    4597.221     4.11
timer:  cdiag2        17677       1.833   32399.338    28.97
timer:  cdiag3        17677       3.383   59805.129    53.47
timer:  cdiag4        17677       0.089    1572.968     1.41
timer:  c-eigvec       8778       5.843   51291.116    45.86
timer:  c-buildD       8778       0.944    8287.527     7.41
timer:  DHSCF4            1      20.835      20.835     0.02
timer:  dfscf             1      19.416      19.416     0.02
timer:  overfsm           1       0.286       0.286     0.00
timer:  optical           1       6.347       6.347     0.01
  

elaps: ELAPSED times:
elaps:  Routine       Calls   Time/call    Tot.time        %
elaps:  siesta            1    9342.693    9342.693   100.00
elaps:  Setup             1       0.281       0.281     0.00
elaps:  bands             3      18.936      56.807     0.61
elaps:  writewave         1       0.002       0.002     0.00
elaps:  KSV_init          1       0.000       0.000     0.00
elaps:  IterMD            1    9285.069    9285.069    99.38
elaps:  hsparse           1       0.016       0.016     0.00
elaps:  overlap           1       0.708       0.708     0.01
elaps:  IterSCF          38     244.071    9274.709    99.27
elaps:  kinefsm           2       0.362       0.723     0.01
elaps:  nlefsm            2       1.570       3.140     0.03
elaps:  DHSCF            39       5.209     203.142     2.17
elaps:  DHSCF1            1       0.077       0.077     0.00
elaps:  DHSCF2            1       2.062       2.062     0.02
elaps:  REORD           314       0.000       0.093     0.00
elaps:  POISON           40       0.038       1.507     0.02
elaps:  DHSCF3           39       5.064     197.494     2.11
elaps:  rhoofd           39       2.378      92.741     0.99
elaps:  cellXC           39       0.202       7.893     0.08
elaps:  vmat             39       2.386      93.064     1.00
elaps:  MolMec            2       0.000       0.000     0.00
elaps:  diagon           38     238.815    9074.981    97.13
elaps:  c-eigval       8899       0.466    4150.872    44.43
elaps:  c-buildHS      8899       0.003      30.458     0.33
elaps:  cdiag         17677       0.470    8314.414    88.99
elaps:  cdiag1        17677       0.021     375.904     4.02
elaps:  cdiag2        17677       0.153    2708.803    28.99
elaps:  cdiag3        17677       0.283    5003.098    53.55
elaps:  cdiag4        17677       0.007     125.436     1.34
elaps:  c-eigvec       8778       0.481    4219.624    45.16
elaps:  c-buildD       8778       0.086     756.750     8.10
elaps:  DHSCF4            1       3.467       3.467     0.04
elaps:  dfscf             1       3.278       3.278     0.04
elaps:  overfsm           1       0.029       0.029     0.00
elaps:  optical           1       0.000       0.000     0.00
  
>> End of run:   4-MAY-2016  22:55:07
