Siesta Version:                                        siesta-3.2-pl-3
Architecture  : x86_64-unknown-linux-gnu--unknown
Compiler flags: mpiifort -g -O2 -fPIC -xSSE4.1 -fp-model source -shared-intel 
PARALLEL version

* Running on   12 nodes in parallel
>> Start of run:   4-MAY-2016  10:22:45

                           ***********************       
                           *  WELCOME TO SIESTA  *       
                           ***********************       

reinit: Reading from standard input
************************** Dump of input data file ****************************
#(1) General system descriptors
SystemName            GRP_doping    # Descriptive name of the system
SystemLabel           GRP_doping    # Short name for naming files
%include STRUCT.fdf
%include KPT.fdf
%include BASIS.fdf
#%include TS.fdf # for transiesta calculation
#(4) DFT, Grid, SCF
XC.functional         GGA           # LDA or GGA (default = LDA)
XC.authors            PBE           # CA (Ceperley-Aldr) = PZ
                                    #    (Perdew-Zunger) - LDA - Default
                                    # PW92 (Perdew-Wang-92) - LDA
                                    # PBE (Perdew-Burke-Ernzerhof) - GGA
MeshCutoff            200.000000    Ry      # Default: 50.0 Ry ~ 0.444 Bohr
                                    #         100.0 Ry ~ 0.314 Bohr
MaxSCFIterations      500           # Default: 50
DM.MixingWeight       0.05          # Default: 0.25
DM.NumberPulay        10            # Default: 0
DM.PulayOnFile        F             # SystemLabel.P1, SystemLabel.P2
DM.Tolerance          1.d-4         # Default: 1.d-4
DM.UseSaveDM          .true.        # because of the bug
SCFMustConverge       .true.
NeglNonOverlapInt     F             # Default: F
#(5) Eigenvalue problem: order-N or diagonalization
SolutionMethod        Diagon        # or Transiesta
ElectronicTemperature 300.0 K       # Default: 300.0 K
#(6) Molecular dynamics and relaxations
#MD.TypeOfRun          CG            # Type of dynamics:
#MD.VariableCell       F
#MD.NumCGsteps         0           # 0 for single-point / 100 for gopt
#MD.MaxCGDispl         0.2 Bohr      # Default: 0.2 Bohr
#MD.MaxForceTol        0.02 eV/Ang   # Default: 0.04 eV/Ang
#MD.MaxStressTol       1.0 GPa       # Default: 1.0 GPa
# Geometry Constraints
#%block GeometryConstraints
#	position from 1 to 44
#%endblock GeometryConstraints
BandLinesScale   pi/a
%block BandLines
 1   0.00000000  0.00000000  0.00000000
50   0.00000000  0.07809418  0.00000000
50   0.04509075  0.07809242  0.00000000
20   0.00000000  0.00000000  0.00000000
%endblock BandLines
************************** End of input data file *****************************

reinit: -----------------------------------------------------------------------
reinit: System Name: GRP_doping
reinit: -----------------------------------------------------------------------
reinit: System Label: GRP_doping                                                  
reinit: -----------------------------------------------------------------------

initatom: Reading input for the pseudopotentials and atomic orbitals ----------
 Species number:            1  Label: B Atomic number:           5
 Species number:            2  Label: C Atomic number:           6
Ground state valence configuration:   2s02  2p01
Reading pseudopotential information in formatted form from B.psf

Valence configuration for pseudopotential generation:
2s( 2.00) rc: 1.74
2p( 1.00) rc: 1.74
3d( 0.00) rc: 1.74
4f( 0.00) rc: 1.74
Ground state valence configuration:   2s02  2p02
Reading pseudopotential information in formatted form from C.psf

Valence configuration for pseudopotential generation:
2s( 2.00) rc: 1.54
2p( 2.00) rc: 1.54
3d( 0.00) rc: 1.54
4f( 0.00) rc: 1.54
For B, standard SIESTA heuristics set lmxkb to 3
 (one more than the basis l, including polarization orbitals).
Use PS.lmax or PS.KBprojectors blocks to override.
For C, standard SIESTA heuristics set lmxkb to 3
 (one more than the basis l, including polarization orbitals).
Use PS.lmax or PS.KBprojectors blocks to override.

<basis_specs>
===============================================================================
B                    Z=   5    Mass=  10.810        Charge= 0.17977+309
Lmxo=1 Lmxkb= 3    BasisType=split      Semic=F
L=0  Nsemic=0  Cnfigmx=2
          n=1  nzeta=2  polorb=0
            splnorm:   0.15000    
               vcte:    0.0000    
               rinn:    0.0000    
                rcs:    0.0000      0.0000    
            lambdas:    1.0000      1.0000    
L=1  Nsemic=0  Cnfigmx=2
          n=1  nzeta=2  polorb=1
            splnorm:   0.15000    
               vcte:    0.0000    
               rinn:    0.0000    
                rcs:    0.0000      0.0000    
            lambdas:    1.0000      1.0000    
-------------------------------------------------------------------------------
L=0  Nkbl=1  erefs: 0.17977+309
L=1  Nkbl=1  erefs: 0.17977+309
L=2  Nkbl=1  erefs: 0.17977+309
L=3  Nkbl=1  erefs: 0.17977+309
===============================================================================
</basis_specs>

atom: Called for B                     (Z =   5)

read_vps: Pseudopotential generation method:
read_vps: ATM3      Troullier-Martins                       
Total valence charge:    3.00000

read_vps: Pseudopotential includes a core correction:
read_vps: Pseudo-core for xc-correction

xc_check: Exchange-correlation functional:
xc_check: GGA Perdew, Burke & Ernzerhof 1996
V l=0 = -2*Zval/r beyond r=  1.7165
V l=1 = -2*Zval/r beyond r=  1.7165
V l=2 = -2*Zval/r beyond r=  1.7165
V l=3 = -2*Zval/r beyond r=  1.6951
All V_l potentials equal beyond r=  1.7165
This should be close to max(r_c) in ps generation
All pots = -2*Zval/r beyond r=  1.7165

VLOCAL1: 99.0% of the norm of Vloc inside     14.733 Ry
VLOCAL1: 99.9% of the norm of Vloc inside     33.577 Ry
atom: Maximum radius for 4*pi*r*r*local-pseudopot. charge    2.04484
atom: Maximum radius for r*vlocal+2*Zval:    1.75994
GHOST: No ghost state for L =  0
GHOST: No ghost state for L =  1
GHOST: No ghost state for L =  2
GHOST: No ghost state for L =  3

KBgen: Kleinman-Bylander projectors: 
   l= 0   rc=  1.897051   el= -0.693730   Ekb=  4.595746   kbcos=  0.286105
   l= 1   rc=  1.920920   el= -0.265236   Ekb= -2.350715   kbcos= -0.315747
   l= 2   rc=  2.044840   el=  0.002055   Ekb= -0.690767   kbcos= -0.013822
   l= 3   rc=  2.149707   el=  0.003188   Ekb= -0.315358   kbcos= -0.002055

KBgen: Total number of  Kleinman-Bylander projectors:   16
atom: -------------------------------------------------------------------------

atom: SANKEY-TYPE ORBITALS:
atom: Selected multiple-zeta basis: split     

SPLIT: Orbitals with angular momentum L= 0

SPLIT: Basis orbitals for state 2s

SPLIT: PAO cut-off radius determined from an
SPLIT: energy shift=  0.007350 Ry

   izeta = 1
                 lambda =    1.000000
                     rc =    5.422032
                 energy =   -0.686029
                kinetic =    0.576707
    potential(screened) =   -1.262736
       potential(ionic) =   -3.271094

   izeta = 2
                 rmatch =    4.222573
              splitnorm =    0.150000
                 energy =   -0.602132
                kinetic =    0.858975
    potential(screened) =   -1.461107
       potential(ionic) =   -3.582536

SPLIT: Orbitals with angular momentum L= 1

SPLIT: Basis orbitals for state 2p

SPLIT: PAO cut-off radius determined from an
SPLIT: energy shift=  0.007350 Ry

   izeta = 1
                 lambda =    1.000000
                     rc =    6.790259
                 energy =   -0.258578
                kinetic =    1.481412
    potential(screened) =   -1.739989
       potential(ionic) =   -3.657461

   izeta = 2
                 rmatch =    4.608740
              splitnorm =    0.150000
                 energy =   -0.173757
                kinetic =    2.186690
    potential(screened) =   -2.360447
       potential(ionic) =   -4.464260

POLgen: Perturbative polarization orbital with L=  2

POLgen: Polarization orbital for state 2p

   izeta = 1
                     rc =    6.790259
                 energy =    0.684082
                kinetic =    1.471481
    potential(screened) =   -0.787399
       potential(ionic) =   -2.406985
atom: Total number of Sankey-type orbitals: 13

atm_pop: Valence configuration (for local Pseudopot. screening):
 2s( 2.00)                                                            
 2p( 1.00)                                                            
Vna: chval, zval:    3.00000   3.00000

Vna:  Cut-off radius for the neutral-atom potential:   6.790259
comcore: Pseudo-core radius Rcore=  2.122997

atom: _________________________________________________________________________

<basis_specs>
===============================================================================
C                    Z=   6    Mass=  12.010        Charge= 0.17977+309
Lmxo=1 Lmxkb= 3    BasisType=split      Semic=F
L=0  Nsemic=0  Cnfigmx=2
          n=1  nzeta=2  polorb=0
            splnorm:   0.15000    
               vcte:    0.0000    
               rinn:    0.0000    
                rcs:    0.0000      0.0000    
            lambdas:    1.0000      1.0000    
L=1  Nsemic=0  Cnfigmx=2
          n=1  nzeta=2  polorb=1
            splnorm:   0.15000    
               vcte:    0.0000    
               rinn:    0.0000    
                rcs:    0.0000      0.0000    
            lambdas:    1.0000      1.0000    
-------------------------------------------------------------------------------
L=0  Nkbl=1  erefs: 0.17977+309
L=1  Nkbl=1  erefs: 0.17977+309
L=2  Nkbl=1  erefs: 0.17977+309
L=3  Nkbl=1  erefs: 0.17977+309
===============================================================================
</basis_specs>

atom: Called for C                     (Z =   6)

read_vps: Pseudopotential generation method:
read_vps: ATM3      Troullier-Martins                       
Total valence charge:    4.00000

read_vps: Pseudopotential includes a core correction:
read_vps: Pseudo-core for xc-correction

xc_check: Exchange-correlation functional:
xc_check: GGA Perdew, Burke & Ernzerhof 1996
V l=0 = -2*Zval/r beyond r=  1.5227
V l=1 = -2*Zval/r beyond r=  1.5227
V l=2 = -2*Zval/r beyond r=  1.5227
V l=3 = -2*Zval/r beyond r=  1.5038
All V_l potentials equal beyond r=  1.5227
This should be close to max(r_c) in ps generation
All pots = -2*Zval/r beyond r=  1.5227

VLOCAL1: 99.0% of the norm of Vloc inside     18.722 Ry
VLOCAL1: 99.9% of the norm of Vloc inside     42.668 Ry
atom: Maximum radius for 4*pi*r*r*local-pseudopot. charge    1.83678
atom: Maximum radius for r*vlocal+2*Zval:    1.58088
GHOST: No ghost state for L =  0
GHOST: No ghost state for L =  1
GHOST: No ghost state for L =  2
GHOST: No ghost state for L =  3

KBgen: Kleinman-Bylander projectors: 
   l= 0   rc=  1.704034   el= -1.009801   Ekb=  5.335044   kbcos=  0.316824
   l= 1   rc=  1.704034   el= -0.388707   Ekb= -3.785862   kbcos= -0.366464
   l= 2   rc=  1.791422   el=  0.001971   Ekb= -0.970471   kbcos= -0.009212
   l= 3   rc=  1.859892   el=  0.003065   Ekb= -0.399525   kbcos= -0.001223

KBgen: Total number of  Kleinman-Bylander projectors:   16
atom: -------------------------------------------------------------------------

atom: SANKEY-TYPE ORBITALS:
atom: Selected multiple-zeta basis: split     

SPLIT: Orbitals with angular momentum L= 0

SPLIT: Basis orbitals for state 2s

SPLIT: PAO cut-off radius determined from an
SPLIT: energy shift=  0.007350 Ry

   izeta = 1
                 lambda =    1.000000
                     rc =    4.632753
                 energy =   -1.002270
                kinetic =    0.855760
    potential(screened) =   -1.858031
       potential(ionic) =   -5.417575

   izeta = 2
                 rmatch =    3.431921
              splitnorm =    0.150000
                 energy =   -0.867111
                kinetic =    1.300804
    potential(screened) =   -2.167915
       potential(ionic) =   -5.962684

SPLIT: Orbitals with angular momentum L= 1

SPLIT: Basis orbitals for state 2p

SPLIT: PAO cut-off radius determined from an
SPLIT: energy shift=  0.007350 Ry

   izeta = 1
                 lambda =    1.000000
                     rc =    5.658549
                 energy =   -0.381140
                kinetic =    2.399701
    potential(screened) =   -2.780841
       potential(ionic) =   -6.206085

   izeta = 2
                 rmatch =    3.653288
              splitnorm =    0.150000
                 energy =   -0.249149
                kinetic =    3.542762
    potential(screened) =   -3.791911
       potential(ionic) =   -7.581078

POLgen: Perturbative polarization orbital with L=  2

POLgen: Polarization orbital for state 2p

   izeta = 1
                     rc =    5.658549
                 energy =    1.109913
                kinetic =    2.304789
    potential(screened) =   -1.194876
       potential(ionic) =   -4.013592
atom: Total number of Sankey-type orbitals: 13

atm_pop: Valence configuration (for local Pseudopot. screening):
 2s( 2.00)                                                            
 2p( 2.00)                                                            
Vna: chval, zval:    4.00000   4.00000

Vna:  Cut-off radius for the neutral-atom potential:   5.658549
comcore: Pseudo-core radius Rcore=  1.791422

atom: _________________________________________________________________________

prinput: Basis input ----------------------------------------------------------

PAO.BasisType split     

%block ChemicalSpeciesLabel
    1    5 B                       # Species index, atomic number, species label
    2    6 C                       # Species index, atomic number, species label
%endblock ChemicalSpeciesLabel

%block PAO.Basis                 # Define Basis set
B                     2                    # Species label, number of l-shells
 n=2   0   2                         # n, l, Nzeta 
   5.422      4.223   
   1.000      1.000   
 n=2   1   2 P   1                   # n, l, Nzeta, Polarization, NzetaPol
   6.790      4.609   
   1.000      1.000   
C                     2                    # Species label, number of l-shells
 n=2   0   2                         # n, l, Nzeta 
   4.633      3.432   
   1.000      1.000   
 n=2   1   2 P   1                   # n, l, Nzeta, Polarization, NzetaPol
   5.659      3.653   
   1.000      1.000   
%endblock PAO.Basis

prinput: ----------------------------------------------------------------------

coor:   Atomic-coordinates input format  =     Fractional

siesta: Atomic coordinates (Bohr) and species
siesta:     -0.02582   5.28395   0.00000  1        1
siesta:      9.28770  26.79272   0.00000  1        2
siesta:      6.95932  14.69411   0.00000  1        3
siesta:     -0.02582  18.72698   0.00000  1        4
siesta:    -11.66772  25.44831   0.00000  1        5
siesta:     -4.68258  29.48119   0.00000  1        6
siesta:     -0.02582  34.85847   0.00000  1        7
siesta:     -0.02582   2.59549   0.00000  2        8
siesta:     -2.35420  38.89134   0.00000  2        9
siesta:     -2.35420  41.57980   0.00000  2       10
siesta:      2.30256  38.89134   0.00000  2       11
siesta:      2.30256  41.57980   0.00000  2       12
siesta:      4.63094  34.85847   0.00000  2       13
siesta:      4.63094  37.54693   0.00000  2       14
siesta:      6.95932  30.82560   0.00000  2       15
siesta:      6.95932  33.51406   0.00000  2       16
siesta:      9.28770  29.48119   0.00000  2       17
siesta:     -4.68258  34.85847   0.00000  2       18
siesta:     -4.68258  37.54693   0.00000  2       19
siesta:      2.30256   6.62836   0.00000  2       20
siesta:      2.30256   9.31683   0.00000  2       21
siesta:      4.63094  10.66124   0.00000  2       22
siesta:      4.63094  13.34970   0.00000  2       23
siesta:      6.95932  17.38257   0.00000  2       24
siesta:      9.28770  18.72698   0.00000  2       25
siesta:      9.28770  21.41544   0.00000  2       26
siesta:     11.61608  22.75985   0.00000  2       27
siesta:     11.61608  25.44831   0.00000  2       28
siesta:     -2.35420   6.62836   0.00000  2       29
siesta:     -2.35420   9.31683   0.00000  2       30
siesta:     -0.02582  10.66124   0.00000  2       31
siesta:     -0.02582  13.34970   0.00000  2       32
siesta:      2.30256  14.69411   0.00000  2       33
siesta:      2.30256  17.38257   0.00000  2       34
siesta:      4.63094  18.72698   0.00000  2       35
siesta:      4.63094  21.41544   0.00000  2       36
siesta:      6.95932  22.75985   0.00000  2       37
siesta:      6.95932  25.44831   0.00000  2       38
siesta:     -4.68258  10.66124   0.00000  2       39
siesta:     -4.68258  13.34970   0.00000  2       40
siesta:     -2.35420  14.69411   0.00000  2       41
siesta:     -2.35420  17.38257   0.00000  2       42
siesta:     -0.02582  21.41544   0.00000  2       43
siesta:      2.30256  22.75985   0.00000  2       44
siesta:      2.30256  25.44831   0.00000  2       45
siesta:     -7.01096  14.69411   0.00000  2       46
siesta:     -7.01096  17.38257   0.00000  2       47
siesta:     -4.68258  18.72698   0.00000  2       48
siesta:     -4.68258  21.41544   0.00000  2       49
siesta:     -2.35420  22.75985   0.00000  2       50
siesta:     -2.35420  25.44831   0.00000  2       51
siesta:     -9.33934  18.72698   0.00000  2       52
siesta:     -9.33934  21.41544   0.00000  2       53
siesta:     -7.01096  22.75985   0.00000  2       54
siesta:     -7.01096  25.44831   0.00000  2       55
siesta:    -11.66772  22.75985   0.00000  2       56
siesta:     -9.33934  26.79272   0.00000  2       57
siesta:     -9.33934  29.48119   0.00000  2       58
siesta:      4.63094  26.79272   0.00000  2       59
siesta:      4.63094  29.48119   0.00000  2       60
siesta:     -0.02582  26.79272   0.00000  2       61
siesta:     -0.02582  29.48119   0.00000  2       62
siesta:     -4.68258  26.79272   0.00000  2       63
siesta:      2.30256  30.82560   0.00000  2       64
siesta:      2.30256  33.51406   0.00000  2       65
siesta:     -2.35420  30.82560   0.00000  2       66
siesta:     -2.35420  33.51406   0.00000  2       67
siesta:     -7.01096  30.82560   0.00000  2       68
siesta:     -7.01096  33.51406   0.00000  2       69
siesta:     -0.02582  37.54693   0.00000  2       70
siesta:     -0.02582  42.92421   0.00000  2       71
siesta:     -0.02582  45.61267   0.00000  2       72

siesta: System type = slab      

initatomlists: Number of atoms, orbitals, and projectors:     72   936  1152

siesta: ******************** Simulation parameters ****************************
siesta:
siesta: The following are some of the parameters of the simulation.
siesta: A complete list of the parameters used, including default values,
siesta: can be found in file out.fdf
siesta:
redata: Non-Collinear-spin run           =     F
redata: SpinPolarized (Up/Down) run      =     F
redata: Number of spin components        =     1
redata: Long output                      =     F
redata: Number of Atomic Species         =        2
redata: Charge density info will appear in .RHO file
redata: Write Mulliken Pop.              =     NO
redata: Mesh Cutoff                      =   200.0000  Ry
redata: Net charge of the system         =     0.0000 |e|
redata: Max. number of SCF Iter          =      500
redata: SCF convergence failure will abort job
redata: Performing Pulay mixing using    =    10 iterations
redata: Mix DM in first SCF step ?       =     F
redata: Write Pulay info on disk?        =     F
redata: Discard 1st Pulay DM after  kick =     F
redata: New DM Mixing Weight             =     0.0500
redata: New DM Occupancy tolerance       = 0.000000000001
redata: No kicks to SCF
redata: DM Mixing Weight for Kicks       =     0.5000
redata: DM Tolerance for SCF             =     0.000100
redata: Require Energy convergence for SCF =     F
redata: DM Energy tolerance for SCF      =     0.000100 eV
redata: Require Harris convergence for SCF =     F
redata: DM Harris energy tolerance for SCF =     0.000100 eV
redata: Using Saved Data (generic)   =     F
redata: Use continuation files for DM    =     T
redata: Neglect nonoverlap interactions  =     F
redata: Method of Calculation            =     Diagonalization
redata: Divide and Conquer               =     T
redata: Electronic Temperature           =     0.0019  Ry
redata: Fix the spin of the system       =     F
redata: Dynamics option                  =     Verlet MD run
redata: Initial MD time step             =        1
redata:   Final MD time step             =        1
redata: Length of MD time step           =     1.0000  fs
redata: Initial Temperature of MD run    =     0.0000  K
redata: Perform a MD quench              =     F
redata: ***********************************************************************
Total number of electrons:   281.000000
Total ionic charge:   281.000000

* ProcessorY, Blocksize:    3  24

k-point displ. along   1 input, could be:     0.50    0.00
k-point displ. along   2 input, could be:     0.50    0.00
 Kpoints in:          231 . Kpoints trimmed:          231

siesta: k-grid: Number of k-points =   231
siesta: k-grid: Cutoff (effective) =     5.000 Ang
siesta: k-grid: Supercell and displacements
siesta: k-grid:   21   0   0      0.500
siesta: k-grid:    0  21   0      0.500
siesta: k-grid:    0   0   1      0.000
Naive supercell factors:     2    2    2

superc: Internal auxiliary supercell:     2 x     2 x     2  =       8
superc: Number of atoms, orbitals, and projectors:    576   7488   9216

* Maximum dynamic memory allocated =     4 MB

siesta:                 ==============================
                            Begin MD step =      1
                        ==============================

superc: Internal auxiliary supercell:     2 x     2 x     2  =       8
superc: Number of atoms, orbitals, and projectors:    576   7488   9216

outcell: Unit cell vectors (Ang):
       12.804619    7.392750    0.000000
        0.000000   14.785500    0.000000
        0.000000    0.000000   10.000000

outcell: Cell vector modules (Ang)   :   14.785500   14.785500   10.000000
outcell: Cell angles (23,13,12) (deg):     90.0000     90.0000     60.0000
outcell: Cell volume (Ang**3)        :   1893.2269
New_DM. Step:     1
Initializing Density Matrix...

InitMesh: MESH =   120 x   120 x    90 =     1296000
InitMesh: Mesh cutoff (required, used) =   200.000   223.865 Ry

* Maximum dynamic memory allocated =   150 MB

stepf: Fermi-Dirac step function

siesta: Program's energy decomposition (eV):
siesta: Ebs     =     -5761.097760
siesta: Eions   =     17506.614093
siesta: Ena     =      4554.393109
siesta: Ekin    =      6009.009694
siesta: Enl     =       688.467988
siesta: DEna    =        -0.000013
siesta: DUscf   =         0.000000
siesta: DUext   =         0.000000
siesta: Exc     =     -4175.770323
siesta: eta*DQ  =         0.000000
siesta: Emadel  =         0.000000
siesta: Emeta   =         0.000000
siesta: Emolmec =         0.000000
siesta: Ekinion =         0.000000
siesta: Eharris =    -10147.655620
siesta: Etot    =    -10430.513638
siesta: FreeEng =    -10430.513638

siesta: iscf   Eharris(eV)      E_KS(eV)   FreeEng(eV)   dDmax  Ef(eV)
siesta:    1   -10147.6556   -10430.5136   -10430.5136  6.1842 -7.9347
timer: Routine,Calls,Time,% = IterSCF        1    5372.802  99.71
elaps: Routine,Calls,Wall,% = IterSCF        1     468.301  99.71
siesta:    2   -14067.4520    -9504.2476    -9504.2931 16.5267 -2.9829
siesta:    3   -10157.3007   -10223.1077   -10223.1530  1.7982 -4.7101
siesta:    4   -10077.6691   -10159.7019   -10159.7292  1.4926 -5.2315
siesta:    5   -10056.1849   -10099.0868   -10099.1379  0.9655 -5.1287
siesta:    6   -10019.0581   -10055.0701   -10055.0913  0.8325 -4.6118
siesta:    7   -10008.4110   -10037.8748   -10037.9173  0.7558 -4.5214
siesta:    8   -10005.6826   -10032.9246   -10032.9634  0.7772 -4.4997
siesta:    9   -10005.1759   -10029.2079   -10029.2853  0.7197 -4.5684
siesta:   10   -10004.0973   -10026.2119   -10026.2560  0.6527 -4.5698
siesta:   11   -10004.0012   -10009.7995   -10009.8647  0.3908 -4.4870
siesta:   12   -10004.3089    -9996.8894    -9996.9451  0.2595 -4.4498
siesta:   13   -10003.4254    -9994.3044    -9994.3856  0.2053 -4.4657
siesta:   14   -10003.4212    -9995.9103    -9996.0038  0.3235 -4.4505
siesta:   15   -10002.5547    -9996.5153    -9996.5758  0.2694 -4.4642
siesta:   16   -10002.3509    -9997.2666    -9997.3480  0.1545 -4.4813
siesta:   17   -10002.2547    -9998.9329    -9999.0222  0.3240 -4.5780
siesta:   18   -10001.9982   -10000.5533   -10000.5984  0.1066 -4.5514
siesta:   19   -10001.9504   -10001.9672   -10002.0539  0.1837 -4.5590
siesta:   20   -10001.9107   -10002.3003   -10002.3841  0.1686 -4.5956
siesta:   21   -10001.8611   -10002.3584   -10002.4334  0.0523 -4.5746
siesta:   22   -10001.8710   -10002.0099   -10002.1018  0.1437 -4.5741
siesta:   23   -10001.8499   -10001.9984   -10002.0805  0.0433 -4.5583
siesta:   24   -10001.8517   -10001.9221   -10002.0167  0.0578 -4.5643
siesta:   25   -10001.8670   -10001.7949   -10001.8825  0.1365 -4.5669
siesta:   26   -10001.8392   -10002.0602   -10002.1396  0.0405 -4.5535
siesta:   27   -10001.8460   -10001.9542   -10002.0486  0.0472 -4.5604
siesta:   28   -10001.8388   -10001.9762   -10002.0646  0.0433 -4.5538
siesta:   29   -10001.8406   -10001.7261   -10001.8206  0.0102 -4.5577
siesta:   30   -10001.8407   -10001.6899   -10001.7818  0.0089 -4.5575
siesta:   31   -10001.8395   -10001.6314   -10001.7232  0.0049 -4.5558
siesta:   32   -10001.8390   -10001.6183   -10001.7111  0.0053 -4.5559
siesta:   33   -10001.8393   -10001.6212   -10001.7142  0.0024 -4.5572
siesta:   34   -10001.8395   -10001.6386   -10001.7312  0.0030 -4.5579
siesta:   35   -10001.8393   -10001.6880   -10001.7805  0.0016 -4.5577
siesta:   36   -10001.8394   -10001.7070   -10001.7997  0.0010 -4.5579
siesta:   37   -10001.8392   -10001.7375   -10001.8301  0.0020 -4.5575
siesta:   38   -10001.8393   -10001.7537   -10001.8465  0.0006 -4.5578
siesta:   39   -10001.8393   -10001.7693   -10001.8620  0.0006 -4.5579
siesta:   40   -10001.8393   -10001.7961   -10001.8888  0.0003 -4.5579
siesta:   41   -10001.8393   -10001.8055   -10001.8982  0.0002 -4.5580
siesta:   42   -10001.8393   -10001.8176   -10001.9102  0.0003 -4.5580
siesta:   43   -10001.8393   -10001.8219   -10001.9146  0.0001 -4.5580

siesta: E_KS(eV) =           -10001.8295

siesta: E_KS - E_eggbox =    -10001.8295

siesta: Atomic forces (eV/Ang):
----------------------------------------
   Tot   -0.125417    0.044474    0.000000
----------------------------------------
   Max  567.335572
   Res  157.476046    sqrt( Sum f_i^2 / 3N )
----------------------------------------
   Max  567.335572    constrained

Stress-tensor-Voigt (kbar):     -710.85    -2755.40       -0.34       -6.06        0.00        0.00
(Free)E + p*V (eV/cell)    -8636.4943
Target enthalpy (eV/cell)   -10001.9222

siesta: Stress tensor (static) (eV/Ang**3):
        -0.443672   -0.003780    0.000000
        -0.003780   -1.719765    0.000000
         0.000000    0.000000   -0.000214

siesta: Pressure (static):       1155.52995100  kBar

siesta: Stress tensor (total) (eV/Ang**3):
        -0.443672   -0.003780    0.000000
        -0.003780   -1.719765    0.000000
         0.000000    0.000000   -0.000214

siesta: Pressure (total):       1155.52995100  kBar

siesta: Temp_ion =       0.000 K

* Maximum dynamic memory allocated =   163 MB
Computing bands...

siesta: Program's energy decomposition (eV):
siesta: Ebs     =     -4471.342931
siesta: Eions   =     17506.614093
siesta: Ena     =      4554.393109
siesta: Ekin    =      8930.754820
siesta: Enl     =      -968.718125
siesta: DEna    =      -768.289333
siesta: DUscf   =       100.109171
siesta: DUext   =         0.000000
siesta: Exc     =     -4343.465065
siesta: eta*DQ  =         0.000000
siesta: Emadel  =         0.000000
siesta: Emeta   =         0.000000
siesta: Emolmec =         0.000000
siesta: Ekinion =         0.000000
siesta: Eharris =    -10001.839282
siesta: Etot    =    -10001.829516
siesta: FreeEng =    -10001.922197

siesta: Final energy (eV):
siesta:  Band Struct. =   -4471.342931
siesta:       Kinetic =    8930.754820
siesta:       Hartree =   29221.798594
siesta:    Ext. field =       0.000000
siesta:   Exch.-corr. =   -4343.465065
siesta:  Ion-electron =  -67099.111105
siesta:       Ion-ion =   23288.193241
siesta:       Ekinion =       0.000000
siesta:         Total =  -10001.829516

siesta: Atomic forces (eV/Ang):
siesta:      1   -0.223058 -112.658120    0.000000
siesta:      2    3.505527    1.835376    0.000000
siesta:      3    0.150332   -2.823136    0.000000
siesta:      4   -0.092510  411.702648    0.000000
siesta:      5   -3.071490   -1.918727    0.000000
siesta:      6    0.394361   -0.983467    0.000000
siesta:      7   -0.447447  113.462635    0.000000
siesta:      8    2.116840  552.617388    0.000000
siesta:      9    2.050938  128.385769    0.000000
siesta:     10  -16.649392 -549.145589    0.000000
siesta:     11   -1.792306  127.951437    0.000000
siesta:     12   17.378339 -549.031380    0.000000
siesta:     13   26.362076    4.615940    0.000000
siesta:     14   32.550969 -548.359214    0.000000
siesta:     15    2.145050    0.593328    0.000000
siesta:     16   -2.455979    2.053514    0.000000
siesta:     17   -2.236114    3.941826    0.000000
siesta:     18  -26.850943    5.025269    0.000000
siesta:     19  -32.752152 -548.515409    0.000000
siesta:     20   12.646374  548.487295    0.000000
siesta:     21   -3.007933 -129.934834    0.000000
siesta:     22   33.022163  547.967345    0.000000
siesta:     23   23.137864   -7.361429    0.000000
siesta:     24    2.874432    3.157132    0.000000
siesta:     25   -1.165908   -0.400330    0.000000
siesta:     26    2.882984   -1.688132    0.000000
siesta:     27   -0.259409    7.454639    0.000000
siesta:     28    2.634744   -9.845380    0.000000
siesta:     29  -13.187140  546.493438    0.000000
siesta:     30    3.283830 -130.416082    0.000000
siesta:     31    0.401166  554.338796    0.000000
siesta:     32    0.082151 -130.687756    0.000000
siesta:     33   22.718351  558.816967    0.000000
siesta:     34   22.079361   -3.415565    0.000000
siesta:     35   -0.670880    1.969968    0.000000
siesta:     36    1.185849   -0.816896    0.000000
siesta:     37   -1.095349    0.220961    0.000000
siesta:     38   -3.411404   -1.667052    0.000000
siesta:     39  -33.330847  548.363717    0.000000
siesta:     40  -26.714283   -4.716689    0.000000
siesta:     41  -23.051345  557.774337    0.000000
siesta:     42  -22.799839   -2.589799    0.000000
siesta:     43    0.066113    3.291729    0.000000
siesta:     44   -1.464853    0.123322    0.000000
siesta:     45   -1.099241    0.365534    0.000000
siesta:     46    2.626250   -2.228917    0.000000
siesta:     47   -2.022504   -0.055328    0.000000
siesta:     48    1.452852    1.477998    0.000000
siesta:     49   -1.095715    0.225412    0.000000
siesta:     50    1.347772   -0.213751    0.000000
siesta:     51    0.270353    0.448184    0.000000
siesta:     52    1.004502   -1.038978    0.000000
siesta:     53   -3.524405   -1.151794    0.000000
siesta:     54    1.096272    0.088548    0.000000
siesta:     55    1.331987   -0.084369    0.000000
siesta:     56    0.813538    0.194800    0.000000
siesta:     57    0.118338    3.660253    0.000000
siesta:     58    1.457779   -0.491624    0.000000
siesta:     59    0.720023    0.550958    0.000000
siesta:     60   -0.315881   -2.568724    0.000000
siesta:     61    0.157183   -2.070772    0.000000
siesta:     62   -1.089691 -567.335572    0.000000
siesta:     63   -0.593437   -3.271348    0.000000
siesta:     64   19.001700    8.451638    0.000000
siesta:     65   20.454545 -558.274131    0.000000
siesta:     66  -17.239807    8.193488    0.000000
siesta:     67  -18.423687 -555.232610    0.000000
siesta:     68   -5.519935    2.773471    0.000000
siesta:     69    2.667606    1.592975    0.000000
siesta:     70   -0.570108 -549.156035    0.000000
siesta:     71    0.056831  127.446935    0.000000
siesta:     72   -0.147770 -405.921556    0.000000
siesta: ----------------------------------------
siesta:    Tot   -0.125417    0.044474    0.000000

siesta: Stress tensor (static) (eV/Ang**3):
siesta:    -0.443672   -0.003780    0.000000
siesta:    -0.003780   -1.719765    0.000000
siesta:     0.000000    0.000000   -0.000214

siesta: Cell volume =       1893.226884 Ang**3

siesta: Pressure (static):
siesta:                Solid            Molecule  Units
siesta:           0.00785498          0.12214283  Ry/Bohr**3
siesta:           0.72121727         11.21473917  eV/Ang**3
siesta:        1155.52995100      17968.18727528  kBar
(Free)E+ p_basis*V_orbitals  =       -9968.972905
(Free)Eharris+ p_basis*V_orbitals  =       -9968.990245

siesta: Electric dipole (a.u.)  =    0.000000    0.000000    0.000000
siesta: Electric dipole (Debye) =    0.000000    0.000000    0.000000

* Maximum dynamic memory allocated : Node    0 =   163 MB
* Maximum dynamic memory allocated : Node    1 =    65 MB
* Maximum dynamic memory allocated : Node    2 =    67 MB
* Maximum dynamic memory allocated : Node    3 =   150 MB
* Maximum dynamic memory allocated : Node    4 =   158 MB
* Maximum dynamic memory allocated : Node    5 =    58 MB
* Maximum dynamic memory allocated : Node    6 =    60 MB
* Maximum dynamic memory allocated : Node    7 =   150 MB
* Maximum dynamic memory allocated : Node    8 =   142 MB
* Maximum dynamic memory allocated : Node    9 =    58 MB
* Maximum dynamic memory allocated : Node   10 =    60 MB
* Maximum dynamic memory allocated : Node   11 =   136 MB

* Maximum memory occured during matrixMtoO                    

timer: CPU execution times:
timer:  Routine       Calls   Time/call    Tot.time        %
timer:  siesta            1  228620.009  228620.009   100.00
timer:  Setup             1       3.380       3.380     0.00
timer:  bands             3     420.215    1260.646     0.55
timer:  writewave         1       0.004       0.004     0.00
timer:  KSV_init          1       0.001       0.001     0.00
timer:  IterMD            1  227348.094  227348.094    99.44
timer:  hsparse           1       0.281       0.281     0.00
timer:  overlap           1       5.759       5.759     0.00
timer:  IterSCF          43    5283.335  227183.394    99.37
timer:  kinefsm           2       2.945       5.890     0.00
timer:  nlefsm            2      19.969      39.938     0.02
timer:  DHSCF            44      77.632    3415.814     1.49
timer:  DHSCF1            1       1.184       1.184     0.00
timer:  DHSCF2            1      36.294      36.294     0.02
timer:  REORD           354       0.002       0.874     0.00
timer:  POISON           45       0.618      27.826     0.01
timer:  DHSCF3           44      76.150    3350.620     1.47
timer:  rhoofd           44      15.393     677.282     0.30
timer:  cellXC           44       2.991     131.604     0.06
timer:  vmat             44      36.120    1589.290     0.70
timer:  MolMec            2       0.000       0.000     0.00
timer:  diagon           43    5203.852  223765.649    97.88
timer:  c-eigval      10054      10.373  104287.611    45.62
timer:  c-buildHS     10054       0.033     336.289     0.15
timer:  cdiag         19987      10.616  212185.389    92.81
timer:  cdiag1        19987       0.479    9569.705     4.19
timer:  cdiag2        19987       3.381   67584.595    29.56
timer:  cdiag3        19987       6.322  126362.923    55.27
timer:  cdiag4        19987       0.164    3279.617     1.43
timer:  c-eigvec       9933      10.926  108525.059    47.47
timer:  c-buildD       9933       1.224   12159.129     5.32
timer:  DHSCF4            1      27.420      27.420     0.01
timer:  dfscf             1      25.371      25.371     0.01
timer:  overfsm           1       0.312       0.312     0.00
timer:  optical           1       7.299       7.299     0.00
  

elaps: ELAPSED times:
elaps:  Routine       Calls   Time/call    Tot.time        %
elaps:  siesta            1   19926.369   19926.369   100.00
elaps:  Setup             1       0.286       0.286     0.00
elaps:  bands             3      36.653     109.960     0.55
elaps:  writewave         1       0.002       0.002     0.00
elaps:  KSV_init          1       0.000       0.000     0.00
elaps:  IterMD            1   19815.515   19815.515    99.44
elaps:  hsparse           1       0.027       0.027     0.00
elaps:  overlap           1       0.985       0.985     0.00
elaps:  IterSCF          43     460.492   19801.159    99.37
elaps:  kinefsm           2       0.434       0.867     0.00
elaps:  nlefsm            2       2.172       4.345     0.02
elaps:  DHSCF            44       6.819     300.029     1.51
elaps:  DHSCF1            1       0.101       0.101     0.00
elaps:  DHSCF2            1       3.168       3.168     0.02
elaps:  REORD           354       0.000       0.110     0.00
elaps:  POISON           45       0.055       2.473     0.01
elaps:  DHSCF3           44       6.638     292.051     1.47
elaps:  rhoofd           44       2.902     127.674     0.64
elaps:  cellXC           44       0.260      11.457     0.06
elaps:  vmat             44       3.149     138.539     0.70
elaps:  MolMec            2       0.000       0.000     0.00
elaps:  diagon           43     453.571   19503.574    97.88
elaps:  c-eigval      10054       0.904    9089.729    45.62
elaps:  c-buildHS     10054       0.004      35.850     0.18
elaps:  cdiag         19987       0.920   18389.984    92.29
elaps:  cdiag1        19987       0.041     824.280     4.14
elaps:  cdiag2        19987       0.295    5898.794    29.60
elaps:  cdiag3        19987       0.552   11034.534    55.38
elaps:  cdiag4        19987       0.014     269.836     1.35
elaps:  c-eigvec       9933       0.944    9372.705    47.04
elaps:  c-buildD       9933       0.115    1144.699     5.74
elaps:  DHSCF4            1       4.666       4.666     0.02
elaps:  dfscf             1       4.228       4.228     0.02
elaps:  overfsm           1       0.032       0.032     0.00
elaps:  optical           1       0.000       0.000     0.00
  
>> End of run:   4-MAY-2016  15:54:52
