Siesta Version:                                        siesta-3.2-pl-3
Architecture  : x86_64-unknown-linux-gnu--unknown
Compiler flags: mpiifort -g -O2 -fPIC -xSSE4.1 -fp-model source -shared-intel 
PARALLEL version

* Running on   12 nodes in parallel
>> Start of run:   6-APR-2016  14:19:43

                           ***********************       
                           *  WELCOME TO SIESTA  *       
                           ***********************       

reinit: Reading from standard input
************************** Dump of input data file ****************************
#(1) General system descriptors
SystemName            GRP_doping    # Descriptive name of the system
SystemLabel           GRP_doping    # Short name for naming files
%include STRUCT.fdf
%include KPT.fdf
%include BASIS.fdf
#%include TS.fdf # for transiesta calculation
#(4) DFT, Grid, SCF
XC.functional         GGA           # LDA or GGA (default = LDA)
XC.authors            PBE           # CA (Ceperley-Aldr) = PZ
                                    #    (Perdew-Zunger) - LDA - Default
                                    # PW92 (Perdew-Wang-92) - LDA
                                    # PBE (Perdew-Burke-Ernzerhof) - GGA
MeshCutoff            200.000000    Ry      # Default: 50.0 Ry ~ 0.444 Bohr
                                    #         100.0 Ry ~ 0.314 Bohr
MaxSCFIterations      500           # Default: 50
DM.MixingWeight       0.05          # Default: 0.25
DM.NumberPulay        10            # Default: 0
DM.PulayOnFile        F             # SystemLabel.P1, SystemLabel.P2
DM.Tolerance          1.d-4         # Default: 1.d-4
DM.UseSaveDM          .true.        # because of the bug
SCFMustConverge       .true.
NeglNonOverlapInt     F             # Default: F
Diag.ParallelOverK    .true.
#(5) Eigenvalue problem: order-N or diagonalization
SolutionMethod        Diagon        # or Transiesta
ElectronicTemperature 300.0 K       # Default: 300.0 K
#(6) Molecular dynamics and relaxations
#MD.TypeOfRun          CG            # Type of dynamics:
#MD.VariableCell       F
#MD.NumCGsteps         0           # 0 for single-point / 100 for gopt
#MD.MaxCGDispl         0.2 Bohr      # Default: 0.2 Bohr
#MD.MaxForceTol        0.02 eV/Ang   # Default: 0.04 eV/Ang
#MD.MaxStressTol       1.0 GPa       # Default: 1.0 GPa
************************** End of input data file *****************************

reinit: -----------------------------------------------------------------------
reinit: System Name: GRP_doping
reinit: -----------------------------------------------------------------------
reinit: System Label: GRP_doping                                                  
reinit: -----------------------------------------------------------------------

initatom: Reading input for the pseudopotentials and atomic orbitals ----------
 Species number:            1  Label: B Atomic number:           5
 Species number:            2  Label: C Atomic number:           6
Ground state valence configuration:   2s02  2p01
Reading pseudopotential information in formatted form from B.psf

Valence configuration for pseudopotential generation:
2s( 2.00) rc: 1.74
2p( 1.00) rc: 1.74
3d( 0.00) rc: 1.74
4f( 0.00) rc: 1.74
Ground state valence configuration:   2s02  2p02
Reading pseudopotential information in formatted form from C.psf

Valence configuration for pseudopotential generation:
2s( 2.00) rc: 1.54
2p( 2.00) rc: 1.54
3d( 0.00) rc: 1.54
4f( 0.00) rc: 1.54
For B, standard SIESTA heuristics set lmxkb to 3
 (one more than the basis l, including polarization orbitals).
Use PS.lmax or PS.KBprojectors blocks to override.
For C, standard SIESTA heuristics set lmxkb to 3
 (one more than the basis l, including polarization orbitals).
Use PS.lmax or PS.KBprojectors blocks to override.

<basis_specs>
===============================================================================
B                    Z=   5    Mass=  10.810        Charge= 0.17977+309
Lmxo=1 Lmxkb= 3    BasisType=split      Semic=F
L=0  Nsemic=0  Cnfigmx=2
          n=1  nzeta=2  polorb=0
            splnorm:   0.15000    
               vcte:    0.0000    
               rinn:    0.0000    
                rcs:    0.0000      0.0000    
            lambdas:    1.0000      1.0000    
L=1  Nsemic=0  Cnfigmx=2
          n=1  nzeta=2  polorb=1
            splnorm:   0.15000    
               vcte:    0.0000    
               rinn:    0.0000    
                rcs:    0.0000      0.0000    
            lambdas:    1.0000      1.0000    
-------------------------------------------------------------------------------
L=0  Nkbl=1  erefs: 0.17977+309
L=1  Nkbl=1  erefs: 0.17977+309
L=2  Nkbl=1  erefs: 0.17977+309
L=3  Nkbl=1  erefs: 0.17977+309
===============================================================================
</basis_specs>

atom: Called for B                     (Z =   5)

read_vps: Pseudopotential generation method:
read_vps: ATM3      Troullier-Martins                       
Total valence charge:    3.00000

read_vps: Pseudopotential includes a core correction:
read_vps: Pseudo-core for xc-correction

xc_check: Exchange-correlation functional:
xc_check: GGA Perdew, Burke & Ernzerhof 1996
V l=0 = -2*Zval/r beyond r=  1.7165
V l=1 = -2*Zval/r beyond r=  1.7165
V l=2 = -2*Zval/r beyond r=  1.7165
V l=3 = -2*Zval/r beyond r=  1.6951
All V_l potentials equal beyond r=  1.7165
This should be close to max(r_c) in ps generation
All pots = -2*Zval/r beyond r=  1.7165

VLOCAL1: 99.0% of the norm of Vloc inside     14.733 Ry
VLOCAL1: 99.9% of the norm of Vloc inside     33.577 Ry
atom: Maximum radius for 4*pi*r*r*local-pseudopot. charge    2.04484
atom: Maximum radius for r*vlocal+2*Zval:    1.75994
GHOST: No ghost state for L =  0
GHOST: No ghost state for L =  1
GHOST: No ghost state for L =  2
GHOST: No ghost state for L =  3

KBgen: Kleinman-Bylander projectors: 
   l= 0   rc=  1.897051   el= -0.693730   Ekb=  4.595746   kbcos=  0.286105
   l= 1   rc=  1.920920   el= -0.265236   Ekb= -2.350715   kbcos= -0.315747
   l= 2   rc=  2.044840   el=  0.002055   Ekb= -0.690767   kbcos= -0.013822
   l= 3   rc=  2.149707   el=  0.003188   Ekb= -0.315358   kbcos= -0.002055

KBgen: Total number of  Kleinman-Bylander projectors:   16
atom: -------------------------------------------------------------------------

atom: SANKEY-TYPE ORBITALS:
atom: Selected multiple-zeta basis: split     

SPLIT: Orbitals with angular momentum L= 0

SPLIT: Basis orbitals for state 2s

SPLIT: PAO cut-off radius determined from an
SPLIT: energy shift=  0.007350 Ry

   izeta = 1
                 lambda =    1.000000
                     rc =    5.422032
                 energy =   -0.686029
                kinetic =    0.576707
    potential(screened) =   -1.262736
       potential(ionic) =   -3.271094

   izeta = 2
                 rmatch =    4.222573
              splitnorm =    0.150000
                 energy =   -0.602132
                kinetic =    0.858975
    potential(screened) =   -1.461107
       potential(ionic) =   -3.582536

SPLIT: Orbitals with angular momentum L= 1

SPLIT: Basis orbitals for state 2p

SPLIT: PAO cut-off radius determined from an
SPLIT: energy shift=  0.007350 Ry

   izeta = 1
                 lambda =    1.000000
                     rc =    6.790259
                 energy =   -0.258578
                kinetic =    1.481412
    potential(screened) =   -1.739989
       potential(ionic) =   -3.657461

   izeta = 2
                 rmatch =    4.608740
              splitnorm =    0.150000
                 energy =   -0.173757
                kinetic =    2.186690
    potential(screened) =   -2.360447
       potential(ionic) =   -4.464260

POLgen: Perturbative polarization orbital with L=  2

POLgen: Polarization orbital for state 2p

   izeta = 1
                     rc =    6.790259
                 energy =    0.684082
                kinetic =    1.471481
    potential(screened) =   -0.787399
       potential(ionic) =   -2.406985
atom: Total number of Sankey-type orbitals: 13

atm_pop: Valence configuration (for local Pseudopot. screening):
 2s( 2.00)                                                            
 2p( 1.00)                                                            
Vna: chval, zval:    3.00000   3.00000

Vna:  Cut-off radius for the neutral-atom potential:   6.790259
comcore: Pseudo-core radius Rcore=  2.122997

atom: _________________________________________________________________________

<basis_specs>
===============================================================================
C                    Z=   6    Mass=  12.010        Charge= 0.17977+309
Lmxo=1 Lmxkb= 3    BasisType=split      Semic=F
L=0  Nsemic=0  Cnfigmx=2
          n=1  nzeta=2  polorb=0
            splnorm:   0.15000    
               vcte:    0.0000    
               rinn:    0.0000    
                rcs:    0.0000      0.0000    
            lambdas:    1.0000      1.0000    
L=1  Nsemic=0  Cnfigmx=2
          n=1  nzeta=2  polorb=1
            splnorm:   0.15000    
               vcte:    0.0000    
               rinn:    0.0000    
                rcs:    0.0000      0.0000    
            lambdas:    1.0000      1.0000    
-------------------------------------------------------------------------------
L=0  Nkbl=1  erefs: 0.17977+309
L=1  Nkbl=1  erefs: 0.17977+309
L=2  Nkbl=1  erefs: 0.17977+309
L=3  Nkbl=1  erefs: 0.17977+309
===============================================================================
</basis_specs>

atom: Called for C                     (Z =   6)

read_vps: Pseudopotential generation method:
read_vps: ATM3      Troullier-Martins                       
Total valence charge:    4.00000

read_vps: Pseudopotential includes a core correction:
read_vps: Pseudo-core for xc-correction

xc_check: Exchange-correlation functional:
xc_check: GGA Perdew, Burke & Ernzerhof 1996
V l=0 = -2*Zval/r beyond r=  1.5227
V l=1 = -2*Zval/r beyond r=  1.5227
V l=2 = -2*Zval/r beyond r=  1.5227
V l=3 = -2*Zval/r beyond r=  1.5038
All V_l potentials equal beyond r=  1.5227
This should be close to max(r_c) in ps generation
All pots = -2*Zval/r beyond r=  1.5227

VLOCAL1: 99.0% of the norm of Vloc inside     18.722 Ry
VLOCAL1: 99.9% of the norm of Vloc inside     42.668 Ry
atom: Maximum radius for 4*pi*r*r*local-pseudopot. charge    1.83678
atom: Maximum radius for r*vlocal+2*Zval:    1.58088
GHOST: No ghost state for L =  0
GHOST: No ghost state for L =  1
GHOST: No ghost state for L =  2
GHOST: No ghost state for L =  3

KBgen: Kleinman-Bylander projectors: 
   l= 0   rc=  1.704034   el= -1.009801   Ekb=  5.335044   kbcos=  0.316824
   l= 1   rc=  1.704034   el= -0.388707   Ekb= -3.785862   kbcos= -0.366464
   l= 2   rc=  1.791422   el=  0.001971   Ekb= -0.970471   kbcos= -0.009212
   l= 3   rc=  1.859892   el=  0.003065   Ekb= -0.399525   kbcos= -0.001223

KBgen: Total number of  Kleinman-Bylander projectors:   16
atom: -------------------------------------------------------------------------

atom: SANKEY-TYPE ORBITALS:
atom: Selected multiple-zeta basis: split     

SPLIT: Orbitals with angular momentum L= 0

SPLIT: Basis orbitals for state 2s

SPLIT: PAO cut-off radius determined from an
SPLIT: energy shift=  0.007350 Ry

   izeta = 1
                 lambda =    1.000000
                     rc =    4.632753
                 energy =   -1.002270
                kinetic =    0.855760
    potential(screened) =   -1.858031
       potential(ionic) =   -5.417575

   izeta = 2
                 rmatch =    3.431921
              splitnorm =    0.150000
                 energy =   -0.867111
                kinetic =    1.300804
    potential(screened) =   -2.167915
       potential(ionic) =   -5.962684

SPLIT: Orbitals with angular momentum L= 1

SPLIT: Basis orbitals for state 2p

SPLIT: PAO cut-off radius determined from an
SPLIT: energy shift=  0.007350 Ry

   izeta = 1
                 lambda =    1.000000
                     rc =    5.658549
                 energy =   -0.381140
                kinetic =    2.399701
    potential(screened) =   -2.780841
       potential(ionic) =   -6.206085

   izeta = 2
                 rmatch =    3.653288
              splitnorm =    0.150000
                 energy =   -0.249149
                kinetic =    3.542762
    potential(screened) =   -3.791911
       potential(ionic) =   -7.581078

POLgen: Perturbative polarization orbital with L=  2

POLgen: Polarization orbital for state 2p

   izeta = 1
                     rc =    5.658549
                 energy =    1.109913
                kinetic =    2.304789
    potential(screened) =   -1.194876
       potential(ionic) =   -4.013592
atom: Total number of Sankey-type orbitals: 13

atm_pop: Valence configuration (for local Pseudopot. screening):
 2s( 2.00)                                                            
 2p( 2.00)                                                            
Vna: chval, zval:    4.00000   4.00000

Vna:  Cut-off radius for the neutral-atom potential:   5.658549
comcore: Pseudo-core radius Rcore=  1.791422

atom: _________________________________________________________________________

prinput: Basis input ----------------------------------------------------------

PAO.BasisType split     

%block ChemicalSpeciesLabel
    1    5 B                       # Species index, atomic number, species label
    2    6 C                       # Species index, atomic number, species label
%endblock ChemicalSpeciesLabel

%block PAO.Basis                 # Define Basis set
B                     2                    # Species label, number of l-shells
 n=2   0   2                         # n, l, Nzeta 
   5.422      4.223   
   1.000      1.000   
 n=2   1   2 P   1                   # n, l, Nzeta, Polarization, NzetaPol
   6.790      4.609   
   1.000      1.000   
C                     2                    # Species label, number of l-shells
 n=2   0   2                         # n, l, Nzeta 
   4.633      3.432   
   1.000      1.000   
 n=2   1   2 P   1                   # n, l, Nzeta, Polarization, NzetaPol
   5.659      3.653   
   1.000      1.000   
%endblock PAO.Basis

prinput: ----------------------------------------------------------------------

coor:   Atomic-coordinates input format  =     Cartesian coordinates
coor:                                          (in Angstroms)

siesta: Atomic coordinates (Bohr) and species
siesta:      2.23554   1.32097   0.00000  1        1
siesta:     11.54782   1.32097   0.00000  1        2
siesta:     20.86199   1.32097   0.00000  1        3
siesta:      6.89205   9.38661   0.00000  1        4
siesta:     16.20434   9.38661   0.00000  1        5
siesta:     11.54857  17.45226   0.00000  1        6
siesta:     25.51851   9.38661   0.00000  1        7
siesta:     20.86274  17.45226   0.00000  1        8
siesta:     39.48945  22.82873   0.00000  1        9
siesta:      4.56367   2.66461   0.00000  2       10
siesta:     32.50328  21.48508   0.00000  2       11
siesta:     34.83141  22.82873   0.00000  2       12
siesta:     34.83116  17.45226   0.00000  2       13
siesta:     37.15930  18.79590   0.00000  2       14
siesta:     32.50291  13.41944   0.00000  2       15
siesta:     34.83104  14.76308   0.00000  2       16
siesta:     30.17465   9.38661   0.00000  2       17
siesta:     32.50278  10.73026   0.00000  2       18
siesta:     27.84639   5.35379   0.00000  2       19
siesta:     30.17453   6.69743   0.00000  2       20
siesta:     27.84714  21.48508   0.00000  2       21
siesta:     30.17527  22.82873   0.00000  2       22
siesta:      6.89168   1.32097   0.00000  2       23
siesta:      9.21981   2.66461   0.00000  2       24
siesta:     13.87595   2.66461   0.00000  2       25
siesta:     16.20396   1.32097   0.00000  2       26
siesta:     18.53210   2.66461   0.00000  2       27
siesta:     23.19013   2.66461   0.00000  2       28
siesta:     25.51813   1.32097   0.00000  2       29
siesta:     27.84627   2.66461   0.00000  2       30
siesta:      4.56380   5.35379   0.00000  2       31
siesta:      6.89193   6.69743   0.00000  2       32
siesta:      9.21994   5.35379   0.00000  2       33
siesta:     11.54807   6.69743   0.00000  2       34
siesta:     13.87608   5.35379   0.00000  2       35
siesta:     16.20421   6.69743   0.00000  2       36
siesta:     18.53411   5.35379   0.00000  2       37
siesta:     20.86224   6.69743   0.00000  2       38
siesta:     23.19025   5.35379   0.00000  2       39
siesta:     25.51838   6.69743   0.00000  2       40
siesta:      9.22019  10.73026   0.00000  2       41
siesta:     11.54820   9.38661   0.00000  2       42
siesta:     13.87633  10.73026   0.00000  2       43
siesta:     18.53247  10.73026   0.00000  2       44
siesta:     20.86237   9.38661   0.00000  2       45
siesta:     23.19050  10.73026   0.00000  2       46
siesta:      9.22031  13.41944   0.00000  2       47
siesta:     11.54845  14.76308   0.00000  2       48
siesta:     13.87645  13.41944   0.00000  2       49
siesta:     16.20459  14.76308   0.00000  2       50
siesta:     18.53448  13.41944   0.00000  2       51
siesta:     20.86262  14.76308   0.00000  2       52
siesta:     13.87670  18.79590   0.00000  2       53
siesta:     16.20471  17.45226   0.00000  2       54
siesta:     18.53284  18.79590   0.00000  2       55
siesta:     13.87683  21.48508   0.00000  2       56
siesta:     16.20496  22.82873   0.00000  2       57
siesta:     18.53486  21.48508   0.00000  2       58
siesta:     20.86299  22.82873   0.00000  2       59
siesta:     27.84664  10.73026   0.00000  2       60
siesta:     23.19063  13.41944   0.00000  2       61
siesta:     25.51876  14.76308   0.00000  2       62
siesta:     23.19088  18.79590   0.00000  2       63
siesta:     27.84677  13.41944   0.00000  2       64
siesta:     30.17490  14.76308   0.00000  2       65
siesta:     25.51888  17.45226   0.00000  2       66
siesta:     27.84702  18.79590   0.00000  2       67
siesta:     23.19100  21.48508   0.00000  2       68
siesta:     25.51913  22.82873   0.00000  2       69
siesta:     30.17503  17.45226   0.00000  2       70
siesta:     32.50316  18.79590   0.00000  2       71
siesta:     37.16131  21.48508   0.00000  2       72

siesta: System type = slab      

initatomlists: Number of atoms, orbitals, and projectors:     72   936  1152

siesta: ******************** Simulation parameters ****************************
siesta:
siesta: The following are some of the parameters of the simulation.
siesta: A complete list of the parameters used, including default values,
siesta: can be found in file out.fdf
siesta:
redata: Non-Collinear-spin run           =     F
redata: SpinPolarized (Up/Down) run      =     F
redata: Number of spin components        =     1
redata: Long output                      =     F
redata: Number of Atomic Species         =        2
redata: Charge density info will appear in .RHO file
redata: Write Mulliken Pop.              =     NO
redata: Mesh Cutoff                      =   200.0000  Ry
redata: Net charge of the system         =     0.0000 |e|
redata: Max. number of SCF Iter          =      500
redata: SCF convergence failure will abort job
redata: Performing Pulay mixing using    =    10 iterations
redata: Mix DM in first SCF step ?       =     F
redata: Write Pulay info on disk?        =     F
redata: Discard 1st Pulay DM after  kick =     F
redata: New DM Mixing Weight             =     0.0500
redata: New DM Occupancy tolerance       = 0.000000000001
redata: No kicks to SCF
redata: DM Mixing Weight for Kicks       =     0.5000
redata: DM Tolerance for SCF             =     0.000100
redata: Require Energy convergence for SCF =     F
redata: DM Energy tolerance for SCF      =     0.000100 eV
redata: Require Harris convergence for SCF =     F
redata: DM Harris energy tolerance for SCF =     0.000100 eV
redata: Using Saved Data (generic)   =     F
redata: Use continuation files for DM    =     T
redata: Neglect nonoverlap interactions  =     F
redata: Method of Calculation            =     Diagonalization
redata: Divide and Conquer               =     T
redata: Electronic Temperature           =     0.0019  Ry
redata: Fix the spin of the system       =     F
redata: Dynamics option                  =     Verlet MD run
redata: Initial MD time step             =        1
redata:   Final MD time step             =        1
redata: Length of MD time step           =     1.0000  fs
redata: Initial Temperature of MD run    =     0.0000  K
redata: Perform a MD quench              =     F
redata: ***********************************************************************
Total number of electrons:   279.000000
Total ionic charge:   279.000000

* ProcessorY, Blocksize:    3  24

k-point displ. along   1 input, could be:     0.50    0.00
k-point displ. along   2 input, could be:     0.50    0.00
 Kpoints in:          231 . Kpoints trimmed:          231

siesta: k-grid: Number of k-points =   231
siesta: k-grid: Cutoff (effective) =     5.000 Ang
siesta: k-grid: Supercell and displacements
siesta: k-grid:   21   0   0      0.500
siesta: k-grid:    0  21   0      0.500
siesta: k-grid:    0   0   1      0.000
Naive supercell factors:     2    2    2

superc: Internal auxiliary supercell:     2 x     2 x     2  =       8
superc: Number of atoms, orbitals, and projectors:    576   7488   9216

* Maximum dynamic memory allocated =     4 MB

siesta:                 ==============================
                            Begin MD step =      1
                        ==============================

superc: Internal auxiliary supercell:     2 x     2 x     2  =       8
superc: Number of atoms, orbitals, and projectors:    576   7488   9216

outcell: Unit cell vectors (Ang):
       14.785000    0.000000    0.000000
        7.393000   12.805052    0.000000
        0.000000    0.000000   10.000000

outcell: Cell vector modules (Ang)   :   14.785000   14.786000   10.000000
outcell: Cell angles (23,13,12) (deg):     90.0000     90.0000     60.0000
outcell: Cell volume (Ang**3)        :   1893.2269
New_DM. Step:     1
Initializing Density Matrix...

iodm: Reading Density Matrix from files

InitMesh: MESH =   120 x   120 x    90 =     1296000
InitMesh: Mesh cutoff (required, used) =   200.000   223.865 Ry

* Maximum dynamic memory allocated =   150 MB

stepf: Fermi-Dirac step function

siesta: Program's energy decomposition (eV):
siesta: Ebs     =     -3689.493490
siesta: Eions   =     17250.500670
siesta: Ena     =      3769.671623
siesta: Ekin    =      7407.960404
siesta: Enl     =      -692.124839
siesta: DEna    =      -342.768521
siesta: DUscf   =        36.397271
siesta: DUext   =         0.000000
siesta: Exc     =     -4074.066976
siesta: eta*DQ  =         0.000000
siesta: Emadel  =         0.000000
siesta: Emeta   =         0.000000
siesta: Emolmec =         0.000000
siesta: Ekinion =         0.000000
siesta: Eharris =    -11145.422727
siesta: Etot    =    -11145.431709
siesta: FreeEng =    -11145.431709

siesta: iscf   Eharris(eV)      E_KS(eV)   FreeEng(eV)   dDmax  Ef(eV)
siesta:    1   -11145.4227   -11145.4317   -11145.4317  0.0001 -5.9177
timer: Routine,Calls,Time,% = IterSCF        1    1183.967  98.93
elaps: Routine,Calls,Wall,% = IterSCF        1      98.904  98.93

siesta: E_KS(eV) =           -11145.4227

siesta: E_KS - E_eggbox =    -11145.4227

siesta: Atomic forces (eV/Ang):
----------------------------------------
   Tot    0.193309   -0.137748    0.000000
----------------------------------------
   Max    5.124480
   Res    1.327512    sqrt( Sum f_i^2 / 3N )
----------------------------------------
   Max    5.124480    constrained

Stress-tensor-Voigt (kbar):     -119.30     -118.28       -0.25       -0.58        0.00        0.00
(Free)E + p*V (eV/cell)   -11051.7733
Target enthalpy (eV/cell)   -11145.4520

siesta: Stress tensor (static) (eV/Ang**3):
        -0.074463   -0.000363    0.000000
        -0.000363   -0.073822    0.000000
         0.000000    0.000000   -0.000158

siesta: Pressure (static):         79.27808272  kBar

siesta: Stress tensor (total) (eV/Ang**3):
        -0.074463   -0.000363    0.000000
        -0.000363   -0.073822    0.000000
         0.000000    0.000000   -0.000158

siesta: Pressure (total):         79.27808272  kBar

siesta: Temp_ion =       0.000 K

* Maximum dynamic memory allocated =   247 MB

siesta: Program's energy decomposition (eV):
siesta: Ebs     =     -3689.493490
siesta: Eions   =     17250.500670
siesta: Ena     =      3769.671623
siesta: Ekin    =      7407.967847
siesta: Enl     =      -692.128577
siesta: DEna    =      -342.764885
siesta: DUscf   =        36.397191
siesta: DUext   =         0.000000
siesta: Exc     =     -4074.065251
siesta: eta*DQ  =         0.000000
siesta: Emadel  =         0.000000
siesta: Emeta   =         0.000000
siesta: Emolmec =         0.000000
siesta: Ekinion =         0.000000
siesta: Eharris =    -11145.422727
siesta: Etot    =    -11145.422722
siesta: FreeEng =    -11145.451961

siesta: Final energy (eV):
siesta:  Band Struct. =   -3689.493490
siesta:       Kinetic =    7407.967847
siesta:       Hartree =   21697.169978
siesta:    Ext. field =       0.000000
siesta:   Exch.-corr. =   -4074.065251
siesta:  Ion-electron =  -50132.066821
siesta:       Ion-ion =   13955.571524
siesta:       Ekinion =       0.000000
siesta:         Total =  -11145.422722

siesta: Atomic forces (eV/Ang):
siesta:      1    0.133043    0.054870    0.000000
siesta:      2    0.091675   -0.028340    0.000000
siesta:      3   -0.202905   -0.002129    0.000000
siesta:      4    0.038582    0.064472    0.000000
siesta:      5   -0.049317   -0.045671    0.000000
siesta:      6   -0.075541   -0.163564    0.000000
siesta:      7    0.049591   -0.045412    0.000000
siesta:      8   -0.034472    0.055868    0.000000
siesta:      9    0.079056    0.111401    0.000000
siesta:     10    2.876977    1.661746    0.000000
siesta:     11    0.038381   -0.211138    0.000000
siesta:     12    0.188667   -3.995469    0.000000
siesta:     13   -0.152400    0.117619    0.000000
siesta:     14   -3.388052    2.149616    0.000000
siesta:     15   -0.334991   -0.082753    0.000000
siesta:     16   -0.481809    0.311370    0.000000
siesta:     17    0.014076    0.997988    0.000000
siesta:     18   -2.858994    1.537408    0.000000
siesta:     19   -0.720765   -0.343245    0.000000
siesta:     20   -0.127947    0.030583    0.000000
siesta:     21   -0.225852   -0.272625    0.000000
siesta:     22    0.015912   -0.558255    0.000000
siesta:     23   -0.089235    1.124140    0.000000
siesta:     24   -2.707875    1.563224    0.000000
siesta:     25    2.731173    1.465679    0.000000
siesta:     26    0.120053    1.453667    0.000000
siesta:     27   -2.943116    1.510612    0.000000
siesta:     28    3.435283    1.865156    0.000000
siesta:     29    0.005332    5.124480    0.000000
siesta:     30   -3.379284    1.882661    0.000000
siesta:     31    0.943117   -0.668211    0.000000
siesta:     32   -0.008434   -3.108165    0.000000
siesta:     33   -0.925744   -0.552474    0.000000
siesta:     34    0.029502    0.025049    0.000000
siesta:     35    0.969814   -0.449166    0.000000
siesta:     36    0.000821   -3.136557    0.000000
siesta:     37   -1.081365   -0.548858    0.000000
siesta:     38    0.083612    0.134654    0.000000
siesta:     39    0.843770   -0.367879    0.000000
siesta:     40   -0.003446   -3.040593    0.000000
siesta:     41    2.631946    1.638854    0.000000
siesta:     42    0.108871    1.038390    0.000000
siesta:     43   -2.736570    1.557971    0.000000
siesta:     44    2.810583    1.596465    0.000000
siesta:     45   -0.114703    1.010566    0.000000
siesta:     46   -2.684714    1.693431    0.000000
siesta:     47    1.331306   -0.655014    0.000000
siesta:     48   -0.182622   -3.328074    0.000000
siesta:     49   -0.985146   -0.652509    0.000000
siesta:     50    0.182962    0.011223    0.000000
siesta:     51    0.798214   -0.589796    0.000000
siesta:     52    0.115435   -3.149089    0.000000
siesta:     53    3.332366    2.050836    0.000000
siesta:     54    0.118743    0.893576    0.000000
siesta:     55   -2.602210    1.521066    0.000000
siesta:     56    4.505051   -2.604902    0.000000
siesta:     57   -0.038071   -3.847866    0.000000
siesta:     58   -0.676197   -0.472464    0.000000
siesta:     59   -0.053471   -0.111119    0.000000
siesta:     60    2.844788    1.569469    0.000000
siesta:     61   -1.152475   -0.683122    0.000000
siesta:     62    0.341090    0.205087    0.000000
siesta:     63    2.774853    1.686351    0.000000
siesta:     64    0.345355   -0.138967    0.000000
siesta:     65    0.019503    0.429822    0.000000
siesta:     66    0.061819    0.348514    0.000000
siesta:     67    0.378881   -0.192675    0.000000
siesta:     68    0.883594   -0.510620    0.000000
siesta:     69   -0.109606   -3.217886    0.000000
siesta:     70    0.042227    0.010130    0.000000
siesta:     71   -0.378728   -0.214350    0.000000
siesta:     72   -4.616657   -2.652807    0.000000
siesta: ----------------------------------------
siesta:    Tot    0.193309   -0.137748    0.000000

siesta: Stress tensor (static) (eV/Ang**3):
siesta:    -0.074463   -0.000363    0.000000
siesta:    -0.000363   -0.073822    0.000000
siesta:     0.000000    0.000000   -0.000158

siesta: Cell volume =       1893.226895 Ang**3

siesta: Pressure (static):
siesta:                Solid            Molecule  Units
siesta:           0.00053891          0.00111529  Ry/Bohr**3
siesta:           0.04948095          0.10240227  eV/Ang**3
siesta:          79.27808272        164.06830217  kBar
(Free)E+ p_basis*V_orbitals  =      -11111.870762
(Free)Eharris+ p_basis*V_orbitals  =      -11111.861781

siesta: Electric dipole (a.u.)  =    0.000000    0.000000    0.000000
siesta: Electric dipole (Debye) =    0.000000    0.000000    0.000000

* Maximum dynamic memory allocated : Node    0 =   247 MB
* Maximum dynamic memory allocated : Node    1 =   153 MB
* Maximum dynamic memory allocated : Node    2 =   155 MB
* Maximum dynamic memory allocated : Node    3 =   236 MB
* Maximum dynamic memory allocated : Node    4 =   241 MB
* Maximum dynamic memory allocated : Node    5 =   148 MB
* Maximum dynamic memory allocated : Node    6 =   149 MB
* Maximum dynamic memory allocated : Node    7 =   233 MB
* Maximum dynamic memory allocated : Node    8 =   241 MB
* Maximum dynamic memory allocated : Node    9 =   148 MB
* Maximum dynamic memory allocated : Node   10 =   149 MB
* Maximum dynamic memory allocated : Node   11 =   234 MB

* Maximum memory occured during cdiag                         

timer: CPU execution times:
timer:  Routine       Calls   Time/call    Tot.time        %
timer:  siesta            1    1328.858    1328.858   100.00
timer:  Setup             1       3.506       3.506     0.26
timer:  bands             1       0.008       0.008     0.00
timer:  writewave         1       0.023       0.023     0.00
timer:  KSV_init          1       0.004       0.004     0.00
timer:  IterMD            1    1318.942    1318.942    99.25
timer:  hsparse           1       0.282       0.282     0.02
timer:  overlap           1       6.077       6.077     0.46
timer:  IterSCF           1    1183.967    1183.967    89.10
timer:  kinefsm           2       3.088       6.176     0.46
timer:  nlefsm            2      19.883      39.766     2.99
timer:  DHSCF             2      98.218     196.435    14.78
timer:  DHSCF1            1       1.192       1.192     0.09
timer:  DHSCF2            1      31.427      31.427     2.36
timer:  REORD            18       0.003       0.058     0.00
timer:  POISON            3       0.471       1.413     0.11
timer:  DHSCF3            2      69.327     138.655    10.43
timer:  rhoofd            2      13.896      27.792     2.09
timer:  cellXC            2       2.447       4.893     0.37
timer:  vmat              2      35.898      71.795     5.40
timer:  MolMec            2       0.000       0.000     0.00
timer:  diagon            1    1037.903    1037.903    78.10
timer:  cdiag            40      17.901     689.098    51.86
timer:  cdiag1           40       0.876      33.695     2.54
timer:  cdiag2           40       3.041     117.019     8.81
timer:  cdiag3           40      13.787     530.776    39.94
timer:  cdiag4           40       0.194       7.481     0.56
timer:  DHSCF4            1      25.108      25.108     1.89
timer:  dfscf             1      23.081      23.081     1.74
timer:  overfsm           1       0.301       0.301     0.02
timer:  optical           1       5.869       5.869     0.44
  

elaps: ELAPSED times:
elaps:  Routine       Calls   Time/call    Tot.time        %
elaps:  siesta            1     111.006     111.006   100.00
elaps:  Setup             1       0.293       0.293     0.26
elaps:  bands             1       0.001       0.001     0.00
elaps:  writewave         1       0.002       0.002     0.00
elaps:  KSV_init          1       0.000       0.000     0.00
elaps:  IterMD            1     110.178     110.178    99.25
elaps:  hsparse           1       0.028       0.028     0.02
elaps:  overlap           1       0.713       0.713     0.64
elaps:  IterSCF           1      98.904      98.904    89.10
elaps:  kinefsm           2       0.366       0.731     0.66
elaps:  nlefsm            2       1.763       3.526     3.18
elaps:  DHSCF             2       9.062      18.125    16.33
elaps:  DHSCF1            1       0.101       0.101     0.09
elaps:  DHSCF2            1       2.624       2.624     2.36
elaps:  REORD            18       0.000       0.005     0.00
elaps:  POISON            3       0.040       0.120     0.11
elaps:  DHSCF3            2       5.791      11.581    10.43
elaps:  rhoofd            2       2.073       4.146     3.74
elaps:  cellXC            2       0.204       0.409     0.37
elaps:  vmat              2       2.998       5.997     5.40
elaps:  MolMec            2       0.000       0.000     0.00
elaps:  diagon            1      86.703      86.703    78.11
elaps:  cdiag            40       1.480      59.180    53.31
elaps:  cdiag1           40       0.070       2.798     2.52
elaps:  cdiag2           40       0.244       9.741     8.78
elaps:  cdiag3           40       1.148      45.929    41.38
elaps:  cdiag4           40       0.018       0.702     0.63
elaps:  DHSCF4            1       3.814       3.814     3.44
elaps:  dfscf             1       3.567       3.567     3.21
elaps:  overfsm           1       0.032       0.032     0.03
elaps:  optical           1       0.000       0.000     0.00
  
>> End of run:   6-APR-2016  14:21:34
