Siesta Version:                                        siesta-3.2-pl-3
Architecture  : x86_64-unknown-linux-gnu--unknown
Compiler flags: mpiifort -g -O2 -fPIC -xSSE4.1 -fp-model source -shared-intel 
PARALLEL version

* Running on   12 nodes in parallel
>> Start of run:   7-MAY-2016  11:24:21

                           ***********************       
                           *  WELCOME TO SIESTA  *       
                           ***********************       

reinit: Reading from standard input
************************** Dump of input data file ****************************
#(1) General system descriptors
SystemName            GRP_doping    # Descriptive name of the system
SystemLabel           GRP_doping    # Short name for naming files
%include STRUCT.fdf
%include KPT.fdf
%include BASIS.fdf
#%include TS.fdf # for transiesta calculation
#(4) DFT, Grid, SCF
XC.functional         GGA           # LDA or GGA (default = LDA)
XC.authors            PBE           # CA (Ceperley-Aldr) = PZ
                                    #    (Perdew-Zunger) - LDA - Default
                                    # PW92 (Perdew-Wang-92) - LDA
                                    # PBE (Perdew-Burke-Ernzerhof) - GGA
MeshCutoff            200.000000    Ry      # Default: 50.0 Ry ~ 0.444 Bohr
                                    #         100.0 Ry ~ 0.314 Bohr
MaxSCFIterations      500           # Default: 50
DM.MixingWeight       0.05          # Default: 0.25
DM.NumberPulay        10            # Default: 0
DM.PulayOnFile        F             # SystemLabel.P1, SystemLabel.P2
DM.Tolerance          1.d-4         # Default: 1.d-4
DM.UseSaveDM          .true.        # because of the bug
SCFMustConverge       .true.
NeglNonOverlapInt     F             # Default: F
#(5) Eigenvalue problem: order-N or diagonalization
SolutionMethod        Diagon        # or Transiesta
ElectronicTemperature 300.0 K       # Default: 300.0 K
#(6) Molecular dynamics and relaxations
#MD.TypeOfRun          CG            # Type of dynamics:
#MD.VariableCell       F
#MD.NumCGsteps         0           # 0 for single-point / 100 for gopt
#MD.MaxCGDispl         0.2 Bohr      # Default: 0.2 Bohr
#MD.MaxForceTol        0.02 eV/Ang   # Default: 0.04 eV/Ang
#MD.MaxStressTol       1.0 GPa       # Default: 1.0 GPa
# Geometry Constraints
#%block GeometryConstraints
#	position from 1 to 44
#%endblock GeometryConstraints
BandLinesScale   pi/a
%block BandLines
 1   0.00000000  0.00000000  0.00000000
50   0.00000000  0.07809418  0.00000000
50   0.04509075  0.07809242  0.00000000
20   0.00000000  0.00000000  0.00000000
%endblock BandLines
************************** End of input data file *****************************

reinit: -----------------------------------------------------------------------
reinit: System Name: GRP_doping
reinit: -----------------------------------------------------------------------
reinit: System Label: GRP_doping                                                  
reinit: -----------------------------------------------------------------------

initatom: Reading input for the pseudopotentials and atomic orbitals ----------
 Species number:            1  Label: N Atomic number:           7
 Species number:            2  Label: C Atomic number:           6
Ground state valence configuration:   2s02  2p03
Reading pseudopotential information in formatted form from N.psf

Valence configuration for pseudopotential generation:
2s( 2.00) rc: 1.48
2p( 3.00) rc: 1.48
3d( 0.00) rc: 1.48
4f( 0.00) rc: 1.48
Ground state valence configuration:   2s02  2p02
Reading pseudopotential information in formatted form from C.psf

Valence configuration for pseudopotential generation:
2s( 2.00) rc: 1.54
2p( 2.00) rc: 1.54
3d( 0.00) rc: 1.54
4f( 0.00) rc: 1.54
For N, standard SIESTA heuristics set lmxkb to 3
 (one more than the basis l, including polarization orbitals).
Use PS.lmax or PS.KBprojectors blocks to override.
For C, standard SIESTA heuristics set lmxkb to 3
 (one more than the basis l, including polarization orbitals).
Use PS.lmax or PS.KBprojectors blocks to override.

<basis_specs>
===============================================================================
N                    Z=   7    Mass=  14.010        Charge= 0.17977+309
Lmxo=1 Lmxkb= 3    BasisType=split      Semic=F
L=0  Nsemic=0  Cnfigmx=2
          n=1  nzeta=2  polorb=0
            splnorm:   0.15000    
               vcte:    0.0000    
               rinn:    0.0000    
                rcs:    0.0000      0.0000    
            lambdas:    1.0000      1.0000    
L=1  Nsemic=0  Cnfigmx=2
          n=1  nzeta=2  polorb=1
            splnorm:   0.15000    
               vcte:    0.0000    
               rinn:    0.0000    
                rcs:    0.0000      0.0000    
            lambdas:    1.0000      1.0000    
-------------------------------------------------------------------------------
L=0  Nkbl=1  erefs: 0.17977+309
L=1  Nkbl=1  erefs: 0.17977+309
L=2  Nkbl=1  erefs: 0.17977+309
L=3  Nkbl=1  erefs: 0.17977+309
===============================================================================
</basis_specs>

atom: Called for N                     (Z =   7)

read_vps: Pseudopotential generation method:
read_vps: ATM3      Troullier-Martins                       
Total valence charge:    5.00000

read_vps: Pseudopotential includes a core correction:
read_vps: Pseudo-core for xc-correction

xc_check: Exchange-correlation functional:
xc_check: GGA Perdew, Burke & Ernzerhof 1996
V l=0 = -2*Zval/r beyond r=  1.4606
V l=1 = -2*Zval/r beyond r=  1.4606
V l=2 = -2*Zval/r beyond r=  1.4606
V l=3 = -2*Zval/r beyond r=  1.4606
All V_l potentials equal beyond r=  1.4606
This should be close to max(r_c) in ps generation
All pots = -2*Zval/r beyond r=  1.4606

VLOCAL1: 99.0% of the norm of Vloc inside     20.347 Ry
VLOCAL1: 99.9% of the norm of Vloc inside     46.372 Ry
atom: Maximum radius for 4*pi*r*r*local-pseudopot. charge    1.76189
atom: Maximum radius for r*vlocal+2*Zval:    1.53550
GHOST: No ghost state for L =  0
GHOST: No ghost state for L =  1
GHOST: No ghost state for L =  2
GHOST: No ghost state for L =  3

KBgen: Kleinman-Bylander projectors: 
   l= 0   rc=  1.634559   el= -1.363963   Ekb=  5.296955   kbcos=  0.335621
   l= 1   rc=  1.614250   el= -0.521451   Ekb= -5.259161   kbcos= -0.433408
   l= 2   rc=  1.718383   el=  0.001991   Ekb= -1.271464   kbcos= -0.007566
   l= 3   rc=  1.761893   el=  0.003093   Ekb= -0.494769   kbcos= -0.001015

KBgen: Total number of  Kleinman-Bylander projectors:   16
atom: -------------------------------------------------------------------------

atom: SANKEY-TYPE ORBITALS:
atom: Selected multiple-zeta basis: split     

SPLIT: Orbitals with angular momentum L= 0

SPLIT: Basis orbitals for state 2s

SPLIT: PAO cut-off radius determined from an
SPLIT: energy shift=  0.007350 Ry

   izeta = 1
                 lambda =    1.000000
                     rc =    4.071465
                 energy =   -1.356470
                kinetic =    1.176977
    potential(screened) =   -2.533447
       potential(ionic) =   -8.057990

   izeta = 2
                 rmatch =    2.905100
              splitnorm =    0.150000
                 energy =   -1.158343
                kinetic =    1.813009
    potential(screened) =   -2.971352
       potential(ionic) =   -8.901931

SPLIT: Orbitals with angular momentum L= 1

SPLIT: Basis orbitals for state 2p

SPLIT: PAO cut-off radius determined from an
SPLIT: energy shift=  0.007350 Ry

   izeta = 1
                 lambda =    1.000000
                     rc =    4.972977
                 energy =   -0.513884
                kinetic =    3.441732
    potential(screened) =   -3.955616
       potential(ionic) =   -9.287901

   izeta = 2
                 rmatch =    3.054066
              splitnorm =    0.150000
                 energy =   -0.318226
                kinetic =    5.125348
    potential(screened) =   -5.443573
       potential(ionic) =  -11.380999

POLgen: Perturbative polarization orbital with L=  2

POLgen: Polarization orbital for state 2p

   izeta = 1
                     rc =    4.972977
                 energy =    1.607437
                kinetic =    3.268125
    potential(screened) =   -1.660688
       potential(ionic) =   -5.973652
atom: Total number of Sankey-type orbitals: 13

atm_pop: Valence configuration (for local Pseudopot. screening):
 2s( 2.00)                                                            
 2p( 3.00)                                                            
Vna: chval, zval:    5.00000   5.00000

Vna:  Cut-off radius for the neutral-atom potential:   4.972977
comcore: Pseudo-core radius Rcore=  1.554824

atom: _________________________________________________________________________

<basis_specs>
===============================================================================
C                    Z=   6    Mass=  12.010        Charge= 0.17977+309
Lmxo=1 Lmxkb= 3    BasisType=split      Semic=F
L=0  Nsemic=0  Cnfigmx=2
          n=1  nzeta=2  polorb=0
            splnorm:   0.15000    
               vcte:    0.0000    
               rinn:    0.0000    
                rcs:    0.0000      0.0000    
            lambdas:    1.0000      1.0000    
L=1  Nsemic=0  Cnfigmx=2
          n=1  nzeta=2  polorb=1
            splnorm:   0.15000    
               vcte:    0.0000    
               rinn:    0.0000    
                rcs:    0.0000      0.0000    
            lambdas:    1.0000      1.0000    
-------------------------------------------------------------------------------
L=0  Nkbl=1  erefs: 0.17977+309
L=1  Nkbl=1  erefs: 0.17977+309
L=2  Nkbl=1  erefs: 0.17977+309
L=3  Nkbl=1  erefs: 0.17977+309
===============================================================================
</basis_specs>

atom: Called for C                     (Z =   6)

read_vps: Pseudopotential generation method:
read_vps: ATM3      Troullier-Martins                       
Total valence charge:    4.00000

read_vps: Pseudopotential includes a core correction:
read_vps: Pseudo-core for xc-correction

xc_check: Exchange-correlation functional:
xc_check: GGA Perdew, Burke & Ernzerhof 1996
V l=0 = -2*Zval/r beyond r=  1.5227
V l=1 = -2*Zval/r beyond r=  1.5227
V l=2 = -2*Zval/r beyond r=  1.5227
V l=3 = -2*Zval/r beyond r=  1.5038
All V_l potentials equal beyond r=  1.5227
This should be close to max(r_c) in ps generation
All pots = -2*Zval/r beyond r=  1.5227

VLOCAL1: 99.0% of the norm of Vloc inside     18.722 Ry
VLOCAL1: 99.9% of the norm of Vloc inside     42.668 Ry
atom: Maximum radius for 4*pi*r*r*local-pseudopot. charge    1.83678
atom: Maximum radius for r*vlocal+2*Zval:    1.58088
GHOST: No ghost state for L =  0
GHOST: No ghost state for L =  1
GHOST: No ghost state for L =  2
GHOST: No ghost state for L =  3

KBgen: Kleinman-Bylander projectors: 
   l= 0   rc=  1.704034   el= -1.009801   Ekb=  5.335044   kbcos=  0.316824
   l= 1   rc=  1.704034   el= -0.388707   Ekb= -3.785862   kbcos= -0.366464
   l= 2   rc=  1.791422   el=  0.001971   Ekb= -0.970471   kbcos= -0.009212
   l= 3   rc=  1.859892   el=  0.003065   Ekb= -0.399525   kbcos= -0.001223

KBgen: Total number of  Kleinman-Bylander projectors:   16
atom: -------------------------------------------------------------------------

atom: SANKEY-TYPE ORBITALS:
atom: Selected multiple-zeta basis: split     

SPLIT: Orbitals with angular momentum L= 0

SPLIT: Basis orbitals for state 2s

SPLIT: PAO cut-off radius determined from an
SPLIT: energy shift=  0.007350 Ry

   izeta = 1
                 lambda =    1.000000
                     rc =    4.632753
                 energy =   -1.002270
                kinetic =    0.855760
    potential(screened) =   -1.858031
       potential(ionic) =   -5.417575

   izeta = 2
                 rmatch =    3.431921
              splitnorm =    0.150000
                 energy =   -0.867111
                kinetic =    1.300804
    potential(screened) =   -2.167915
       potential(ionic) =   -5.962684

SPLIT: Orbitals with angular momentum L= 1

SPLIT: Basis orbitals for state 2p

SPLIT: PAO cut-off radius determined from an
SPLIT: energy shift=  0.007350 Ry

   izeta = 1
                 lambda =    1.000000
                     rc =    5.658549
                 energy =   -0.381140
                kinetic =    2.399701
    potential(screened) =   -2.780841
       potential(ionic) =   -6.206085

   izeta = 2
                 rmatch =    3.653288
              splitnorm =    0.150000
                 energy =   -0.249149
                kinetic =    3.542762
    potential(screened) =   -3.791911
       potential(ionic) =   -7.581078

POLgen: Perturbative polarization orbital with L=  2

POLgen: Polarization orbital for state 2p

   izeta = 1
                     rc =    5.658549
                 energy =    1.109913
                kinetic =    2.304789
    potential(screened) =   -1.194876
       potential(ionic) =   -4.013592
atom: Total number of Sankey-type orbitals: 13

atm_pop: Valence configuration (for local Pseudopot. screening):
 2s( 2.00)                                                            
 2p( 2.00)                                                            
Vna: chval, zval:    4.00000   4.00000

Vna:  Cut-off radius for the neutral-atom potential:   5.658549
comcore: Pseudo-core radius Rcore=  1.791422

atom: _________________________________________________________________________

prinput: Basis input ----------------------------------------------------------

PAO.BasisType split     

%block ChemicalSpeciesLabel
    1    7 N                       # Species index, atomic number, species label
    2    6 C                       # Species index, atomic number, species label
%endblock ChemicalSpeciesLabel

%block PAO.Basis                 # Define Basis set
N                     2                    # Species label, number of l-shells
 n=2   0   2                         # n, l, Nzeta 
   4.071      2.905   
   1.000      1.000   
 n=2   1   2 P   1                   # n, l, Nzeta, Polarization, NzetaPol
   4.973      3.054   
   1.000      1.000   
C                     2                    # Species label, number of l-shells
 n=2   0   2                         # n, l, Nzeta 
   4.633      3.432   
   1.000      1.000   
 n=2   1   2 P   1                   # n, l, Nzeta, Polarization, NzetaPol
   5.659      3.653   
   1.000      1.000   
%endblock PAO.Basis

prinput: ----------------------------------------------------------------------

coor:   Atomic-coordinates input format  =     Fractional

siesta: Atomic coordinates (Bohr) and species
siesta:     -0.02582  18.72698   0.00000  1        1
siesta:     -0.02582  21.41544   0.00000  1        2
siesta:      2.30256  22.75985   0.00000  1        3
siesta:     -2.35420  22.75985   0.00000  1        4
siesta:     -2.35420  25.44831   0.00000  1        5
siesta:     -7.01096  22.75985   0.00000  1        6
siesta:     -7.01096  25.44831   0.00000  1        7
siesta:     -4.68258  26.79272   0.00000  1        8
siesta:     -4.68258  29.48119   0.00000  1        9
siesta:     -2.35420  30.82560   0.00000  1       10
siesta:     -0.02582   2.59549   0.00000  2       11
siesta:     -0.02582   5.28395   0.00000  2       12
siesta:     -2.35420  38.89134   0.00000  2       13
siesta:     -2.35420  41.57980   0.00000  2       14
siesta:      2.30256  38.89134   0.00000  2       15
siesta:      2.30256  41.57980   0.00000  2       16
siesta:      4.63094  34.85847   0.00000  2       17
siesta:      4.63094  37.54693   0.00000  2       18
siesta:      6.95932  30.82560   0.00000  2       19
siesta:      6.95932  33.51406   0.00000  2       20
siesta:      9.28770  26.79272   0.00000  2       21
siesta:      9.28770  29.48119   0.00000  2       22
siesta:     -4.68258  34.85847   0.00000  2       23
siesta:     -4.68258  37.54693   0.00000  2       24
siesta:      2.30256   6.62836   0.00000  2       25
siesta:      2.30256   9.31683   0.00000  2       26
siesta:      4.63094  10.66124   0.00000  2       27
siesta:      4.63094  13.34970   0.00000  2       28
siesta:      6.95932  14.69411   0.00000  2       29
siesta:      6.95932  17.38257   0.00000  2       30
siesta:      9.28770  18.72698   0.00000  2       31
siesta:      9.28770  21.41544   0.00000  2       32
siesta:     11.61608  22.75985   0.00000  2       33
siesta:     11.61608  25.44831   0.00000  2       34
siesta:     -2.35420   6.62836   0.00000  2       35
siesta:     -2.35420   9.31683   0.00000  2       36
siesta:     -0.02582  10.66124   0.00000  2       37
siesta:     -0.02582  13.34970   0.00000  2       38
siesta:      2.30256  14.69411   0.00000  2       39
siesta:      2.30256  17.38257   0.00000  2       40
siesta:      4.63094  18.72698   0.00000  2       41
siesta:      4.63094  21.41544   0.00000  2       42
siesta:      6.95932  22.75985   0.00000  2       43
siesta:      6.95932  25.44831   0.00000  2       44
siesta:     -4.68258  10.66124   0.00000  2       45
siesta:     -4.68258  13.34970   0.00000  2       46
siesta:     -2.35420  14.69411   0.00000  2       47
siesta:     -2.35420  17.38257   0.00000  2       48
siesta:      2.30256  25.44831   0.00000  2       49
siesta:     -7.01096  14.69411   0.00000  2       50
siesta:     -7.01096  17.38257   0.00000  2       51
siesta:     -4.68258  18.72698   0.00000  2       52
siesta:     -4.68258  21.41544   0.00000  2       53
siesta:     -9.33934  18.72698   0.00000  2       54
siesta:     -9.33934  21.41544   0.00000  2       55
siesta:    -11.66772  22.75985   0.00000  2       56
siesta:    -11.66772  25.44831   0.00000  2       57
siesta:     -9.33934  26.79272   0.00000  2       58
siesta:     -9.33934  29.48119   0.00000  2       59
siesta:      4.63094  26.79272   0.00000  2       60
siesta:      4.63094  29.48119   0.00000  2       61
siesta:     -0.02582  26.79272   0.00000  2       62
siesta:     -0.02582  29.48119   0.00000  2       63
siesta:      2.30256  30.82560   0.00000  2       64
siesta:      2.30256  33.51406   0.00000  2       65
siesta:     -2.35420  33.51406   0.00000  2       66
siesta:     -7.01096  30.82560   0.00000  2       67
siesta:     -7.01096  33.51406   0.00000  2       68
siesta:     -0.02582  34.85847   0.00000  2       69
siesta:     -0.02582  37.54693   0.00000  2       70
siesta:     -0.02582  42.92421   0.00000  2       71
siesta:     -0.02582  45.61267   0.00000  2       72

siesta: System type = slab      

initatomlists: Number of atoms, orbitals, and projectors:     72   936  1152

siesta: ******************** Simulation parameters ****************************
siesta:
siesta: The following are some of the parameters of the simulation.
siesta: A complete list of the parameters used, including default values,
siesta: can be found in file out.fdf
siesta:
redata: Non-Collinear-spin run           =     F
redata: SpinPolarized (Up/Down) run      =     F
redata: Number of spin components        =     1
redata: Long output                      =     F
redata: Number of Atomic Species         =        2
redata: Charge density info will appear in .RHO file
redata: Write Mulliken Pop.              =     NO
redata: Mesh Cutoff                      =   200.0000  Ry
redata: Net charge of the system         =     0.0000 |e|
redata: Max. number of SCF Iter          =      500
redata: SCF convergence failure will abort job
redata: Performing Pulay mixing using    =    10 iterations
redata: Mix DM in first SCF step ?       =     F
redata: Write Pulay info on disk?        =     F
redata: Discard 1st Pulay DM after  kick =     F
redata: New DM Mixing Weight             =     0.0500
redata: New DM Occupancy tolerance       = 0.000000000001
redata: No kicks to SCF
redata: DM Mixing Weight for Kicks       =     0.5000
redata: DM Tolerance for SCF             =     0.000100
redata: Require Energy convergence for SCF =     F
redata: DM Energy tolerance for SCF      =     0.000100 eV
redata: Require Harris convergence for SCF =     F
redata: DM Harris energy tolerance for SCF =     0.000100 eV
redata: Using Saved Data (generic)   =     F
redata: Use continuation files for DM    =     T
redata: Neglect nonoverlap interactions  =     F
redata: Method of Calculation            =     Diagonalization
redata: Divide and Conquer               =     T
redata: Electronic Temperature           =     0.0019  Ry
redata: Fix the spin of the system       =     F
redata: Dynamics option                  =     Verlet MD run
redata: Initial MD time step             =        1
redata:   Final MD time step             =        1
redata: Length of MD time step           =     1.0000  fs
redata: Initial Temperature of MD run    =     0.0000  K
redata: Perform a MD quench              =     F
redata: ***********************************************************************
Total number of electrons:   298.000000
Total ionic charge:   298.000000

* ProcessorY, Blocksize:    3  24

k-point displ. along   1 input, could be:     0.50    0.00
k-point displ. along   2 input, could be:     0.50    0.00
 Kpoints in:          231 . Kpoints trimmed:          231

siesta: k-grid: Number of k-points =   231
siesta: k-grid: Cutoff (effective) =     5.000 Ang
siesta: k-grid: Supercell and displacements
siesta: k-grid:   21   0   0      0.500
siesta: k-grid:    0  21   0      0.500
siesta: k-grid:    0   0   1      0.000
Naive supercell factors:     2    2    2

superc: Internal auxiliary supercell:     2 x     2 x     2  =       8
superc: Number of atoms, orbitals, and projectors:    576   7488   9216

* Maximum dynamic memory allocated =     4 MB

siesta:                 ==============================
                            Begin MD step =      1
                        ==============================

superc: Internal auxiliary supercell:     2 x     2 x     2  =       8
superc: Number of atoms, orbitals, and projectors:    576   7488   9216

outcell: Unit cell vectors (Ang):
       12.804619    7.392750    0.000000
        0.000000   14.785500    0.000000
        0.000000    0.000000   10.000000

outcell: Cell vector modules (Ang)   :   14.785500   14.785500   10.000000
outcell: Cell angles (23,13,12) (deg):     90.0000     90.0000     60.0000
outcell: Cell volume (Ang**3)        :   1893.2269
New_DM. Step:     1
Initializing Density Matrix...

InitMesh: MESH =   120 x   120 x    90 =     1296000
InitMesh: Mesh cutoff (required, used) =   200.000   223.865 Ry

* Maximum dynamic memory allocated =   136 MB

stepf: Fermi-Dirac step function

siesta: Program's energy decomposition (eV):
siesta: Ebs     =     -6041.347442
siesta: Eions   =     20010.479513
siesta: Ena     =      4819.064608
siesta: Ekin    =      7217.402668
siesta: Enl     =       345.787012
siesta: DEna    =        -0.000015
siesta: DUscf   =         0.000000
siesta: DUext   =         0.000000
siesta: Exc     =     -4414.247583
siesta: eta*DQ  =         0.000000
siesta: Emadel  =         0.000000
siesta: Emeta   =         0.000000
siesta: Emolmec =         0.000000
siesta: Ekinion =         0.000000
siesta: Eharris =    -11710.647803
siesta: Etot    =    -12042.472824
siesta: FreeEng =    -12042.472824

siesta: iscf   Eharris(eV)      E_KS(eV)   FreeEng(eV)   dDmax  Ef(eV)
siesta:    1   -11710.6478   -12042.4728   -12042.4728  6.3519 -7.1668
timer: Routine,Calls,Time,% = IterSCF        1    3016.604  99.60
elaps: Routine,Calls,Wall,% = IterSCF        1     251.980  99.60
siesta:    2   -17873.5389   -10880.2372   -10880.2848 16.1113 -6.9623
siesta:    3   -11672.9463   -11856.5978   -11856.6048  2.6459 -5.1974
siesta:    4   -11606.3268   -11741.7582   -11741.7930  1.4831 -4.8746
siesta:    5   -11583.2194   -11646.4367   -11646.4746  0.8877 -4.2689
siesta:    6   -11556.3976   -11606.2731   -11606.3323  0.7725 -4.0238
siesta:    7   -11548.9412   -11590.9582   -11591.0154  0.7533 -4.0279
siesta:    8   -11547.8509   -11583.3241   -11583.3805  0.7305 -4.0329
siesta:    9   -11544.8022   -11573.7390   -11573.8005  0.5650 -4.0334
siesta:   10   -11544.5831   -11550.8041   -11550.8804  0.3342 -4.0664
siesta:   11   -11544.3030   -11542.0534   -11542.1169  0.2467 -4.0584
siesta:   12   -11544.1961   -11536.6256   -11536.6917  0.3343 -4.0561
siesta:   13   -11543.7643   -11529.1216   -11529.1948  0.2953 -4.0164
siesta:   14   -11543.5518   -11533.1936   -11533.2673  0.1915 -4.0339
siesta:   15   -11543.1739   -11536.0175   -11536.0918  0.1406 -4.0592
siesta:   16   -11542.9430   -11538.3879   -11538.4540  0.1831 -4.0617
siesta:   17   -11542.8391   -11539.8785   -11539.9494  0.0719 -4.0644
siesta:   18   -11542.7066   -11538.3938   -11538.4671  0.0953 -4.0754
siesta:   19   -11542.6827   -11538.7720   -11538.8410  0.0729 -4.0815
siesta:   20   -11542.6703   -11540.8445   -11540.9125  0.0400 -4.0863
siesta:   21   -11542.6685   -11542.7056   -11542.7744  0.0389 -4.0871
siesta:   22   -11542.6676   -11543.1905   -11543.2582  0.0371 -4.0846
siesta:   23   -11542.6618   -11543.5219   -11543.5914  0.0269 -4.0821
siesta:   24   -11542.6607   -11542.9247   -11542.9947  0.0119 -4.0800
siesta:   25   -11542.6584   -11542.8503   -11542.9186  0.0095 -4.0766
siesta:   26   -11542.6585   -11542.9190   -11542.9884  0.0054 -4.0746
siesta:   27   -11542.6580   -11542.7671   -11542.8358  0.0041 -4.0744
siesta:   28   -11542.6577   -11542.8235   -11542.8922  0.0045 -4.0743
siesta:   29   -11542.6579   -11542.7668   -11542.8358  0.0025 -4.0756
siesta:   30   -11542.6578   -11542.7456   -11542.8144  0.0015 -4.0764
siesta:   31   -11542.6579   -11542.7554   -11542.8242  0.0012 -4.0766
siesta:   32   -11542.6579   -11542.7511   -11542.8199  0.0009 -4.0767
siesta:   33   -11542.6578   -11542.7230   -11542.7917  0.0010 -4.0769
siesta:   34   -11542.6578   -11542.6993   -11542.7681  0.0004 -4.0769
siesta:   35   -11542.6578   -11542.6938   -11542.7626  0.0003 -4.0768
siesta:   36   -11542.6578   -11542.6850   -11542.7537  0.0003 -4.0768
siesta:   37   -11542.6578   -11542.6728   -11542.7416  0.0002 -4.0768
siesta:   38   -11542.6578   -11542.6615   -11542.7303  0.0001 -4.0767
siesta:   39   -11542.6578   -11542.6595   -11542.7283  0.0001 -4.0767

siesta: E_KS(eV) =           -11542.6578

siesta: E_KS - E_eggbox =    -11542.6578

siesta: Atomic forces (eV/Ang):
----------------------------------------
   Tot   -0.064794    0.151269    0.000000
----------------------------------------
   Max  679.379460
   Res  165.425126    sqrt( Sum f_i^2 / 3N )
----------------------------------------
   Max  679.379460    constrained

Stress-tensor-Voigt (kbar):     -713.68    -2904.16       -0.12        6.19        0.00        0.00
(Free)E + p*V (eV/cell)   -10117.6740
Target enthalpy (eV/cell)   -11542.7266

siesta: Stress tensor (static) (eV/Ang**3):
        -0.445442    0.003866    0.000000
         0.003866   -1.812617    0.000000
         0.000000    0.000000   -0.000074

siesta: Pressure (static):       1205.98890675  kBar

siesta: Stress tensor (total) (eV/Ang**3):
        -0.445442    0.003866    0.000000
         0.003866   -1.812617    0.000000
         0.000000    0.000000   -0.000074

siesta: Pressure (total):       1205.98890675  kBar

siesta: Temp_ion =       0.000 K

* Maximum dynamic memory allocated =   148 MB
Computing bands...

siesta: Program's energy decomposition (eV):
siesta: Ebs     =     -4824.518219
siesta: Eions   =     20010.479513
siesta: Ena     =      4819.064608
siesta: Ekin    =     10198.661696
siesta: Enl     =     -1307.278136
siesta: DEna    =      -766.376351
siesta: DUscf   =       104.690650
siesta: DUext   =         0.000000
siesta: Exc     =     -4580.940759
siesta: eta*DQ  =         0.000000
siesta: Emadel  =         0.000000
siesta: Emeta   =         0.000000
siesta: Emolmec =         0.000000
siesta: Ekinion =         0.000000
siesta: Eharris =    -11542.657822
siesta: Etot    =    -11542.657806
siesta: FreeEng =    -11542.726576

siesta: Final energy (eV):
siesta:  Band Struct. =   -4824.518219
siesta:       Kinetic =   10198.661696
siesta:       Hartree =   33075.980644
siesta:    Ext. field =       0.000000
siesta:   Exch.-corr. =   -4580.940759
siesta:  Ion-electron =  -75975.105529
siesta:       Ion-ion =   25738.746142
siesta:       Ekinion =       0.000000
siesta:         Total =  -11542.657806

siesta: Atomic forces (eV/Ang):
siesta:      1    3.615097  679.379460    0.000000
siesta:      2    0.522586   -1.823657    0.000000
siesta:      3    1.151876    0.968952    0.000000
siesta:      4   -2.611547    1.212775    0.000000
siesta:      5   -0.200181    1.059322    0.000000
siesta:      6    2.162707    0.150100    0.000000
siesta:      7    0.271159   -0.449984    0.000000
siesta:      8   -0.766923   -1.705873    0.000000
siesta:      9   -1.138991   -2.514940    0.000000
siesta:     10  -27.349456    7.597270    0.000000
siesta:     11   -9.332698  552.465096    0.000000
siesta:     12   -3.452634 -126.016177    0.000000
siesta:     13    1.498782  128.048335    0.000000
siesta:     14  -17.047173 -549.587933    0.000000
siesta:     15   -1.750694  128.581576    0.000000
siesta:     16   16.567752 -548.282135    0.000000
siesta:     17   26.793200    5.981889    0.000000
siesta:     18   33.684822 -549.683536    0.000000
siesta:     19    1.933518    0.054996    0.000000
siesta:     20   -2.729733    1.982554    0.000000
siesta:     21    2.142895    2.092333    0.000000
siesta:     22   -1.251808    0.159197    0.000000
siesta:     23  -26.339195    7.018169    0.000000
siesta:     24  -34.056464 -550.000859    0.000000
siesta:     25   16.231719  548.886940    0.000000
siesta:     26   -1.002786 -128.208610    0.000000
siesta:     27   33.580395  549.523036    0.000000
siesta:     28   26.536313   -6.114422    0.000000
siesta:     29   -2.787375   -1.848639    0.000000
siesta:     30    2.326808   -0.086289    0.000000
siesta:     31   -1.450444   -0.000013    0.000000
siesta:     32    1.966646   -2.488853    0.000000
siesta:     33   -0.155559    7.508357    0.000000
siesta:     34   -0.233385   -7.485243    0.000000
siesta:     35  -20.085116  551.225272    0.000000
siesta:     36    0.908812 -126.726694    0.000000
siesta:     37    2.389950  545.389404    0.000000
siesta:     38    0.134667 -126.803774    0.000000
siesta:     39   19.901429  557.130352    0.000000
siesta:     40   25.350678   -9.056376    0.000000
siesta:     41   -1.312536    3.636107    0.000000
siesta:     42   -0.333087   -1.258535    0.000000
siesta:     43   -0.596876    1.047157    0.000000
siesta:     44   -0.256875   -0.614705    0.000000
siesta:     45  -33.911885  549.458959    0.000000
siesta:     46  -25.968161   -6.784004    0.000000
siesta:     47  -18.720578  558.750244    0.000000
siesta:     48  -26.461285   -8.657411    0.000000
siesta:     49   -2.123879   -0.764064    0.000000
siesta:     50    2.529847   -1.363361    0.000000
siesta:     51   -1.933981   -0.595095    0.000000
siesta:     52    1.305245    3.991384    0.000000
siesta:     53   -0.426372    0.186728    0.000000
siesta:     54    0.853198    0.453672    0.000000
siesta:     55   -2.257812   -1.823863    0.000000
siesta:     56    0.889037    4.975687    0.000000
siesta:     57    1.082189   -4.939482    0.000000
siesta:     58   -1.807044    1.245113    0.000000
siesta:     59    1.458337    0.352413    0.000000
siesta:     60    0.771946    0.066913    0.000000
siesta:     61   -1.523733   -2.491557    0.000000
siesta:     62    0.299303   -1.820957    0.000000
siesta:     63   12.036309 -575.972968    0.000000
siesta:     64   23.514679    6.565010    0.000000
siesta:     65   22.782163 -557.887077    0.000000
siesta:     66   -9.938280 -555.910494    0.000000
siesta:     67   -2.204229    0.615337    0.000000
siesta:     68    2.757865    0.276060    0.000000
siesta:     69   -1.990317  128.321052    0.000000
siesta:     70   -2.839416 -547.800198    0.000000
siesta:     71    0.006018  115.455801    0.000000
siesta:     72   -1.674234 -644.093972    0.000000
siesta: ----------------------------------------
siesta:    Tot   -0.064794    0.151269    0.000000

siesta: Stress tensor (static) (eV/Ang**3):
siesta:    -0.445442    0.003866    0.000000
siesta:     0.003866   -1.812617    0.000000
siesta:     0.000000    0.000000   -0.000074

siesta: Cell volume =       1893.226884 Ang**3

siesta: Pressure (static):
siesta:                Solid            Molecule  Units
siesta:           0.00819798          0.12912947  Ry/Bohr**3
siesta:           0.75271093         11.85622907  eV/Ang**3
siesta:        1205.98890675      18995.97851091  kBar
(Free)E+ p_basis*V_orbitals  =      -11513.418593
(Free)Eharris+ p_basis*V_orbitals  =      -11513.416920

siesta: Electric dipole (a.u.)  =    0.000000    0.000000    0.000000
siesta: Electric dipole (Debye) =    0.000000    0.000000    0.000000

* Maximum dynamic memory allocated : Node    0 =   148 MB
* Maximum dynamic memory allocated : Node    1 =    59 MB
* Maximum dynamic memory allocated : Node    2 =    61 MB
* Maximum dynamic memory allocated : Node    3 =   135 MB
* Maximum dynamic memory allocated : Node    4 =   148 MB
* Maximum dynamic memory allocated : Node    5 =    53 MB
* Maximum dynamic memory allocated : Node    6 =    55 MB
* Maximum dynamic memory allocated : Node    7 =   141 MB
* Maximum dynamic memory allocated : Node    8 =   130 MB
* Maximum dynamic memory allocated : Node    9 =    54 MB
* Maximum dynamic memory allocated : Node   10 =    54 MB
* Maximum dynamic memory allocated : Node   11 =   122 MB

* Maximum memory occured during matrixMtoO                    

timer: CPU execution times:
timer:  Routine       Calls   Time/call    Tot.time        %
timer:  siesta            1  115047.288  115047.288   100.00
timer:  Setup             1       3.333       3.333     0.00
timer:  bands             3     226.304     678.913     0.59
timer:  writewave         1       0.024       0.024     0.00
timer:  KSV_init          1       0.000       0.000     0.00
timer:  IterMD            1  114358.064  114358.064    99.40
timer:  hsparse           1       0.167       0.167     0.00
timer:  overlap           1       6.349       6.349     0.01
timer:  IterSCF          39    2928.975  114230.012    99.29
timer:  kinefsm           2       3.222       6.444     0.01
timer:  nlefsm            2      18.570      37.140     0.03
timer:  DHSCF            40      64.237    2569.489     2.23
timer:  DHSCF1            1       0.900       0.900     0.00
timer:  DHSCF2            1      25.053      25.053     0.02
timer:  REORD           322       0.002       0.751     0.00
timer:  POISON           41       0.451      18.494     0.02
timer:  DHSCF3           40      63.046    2521.834     2.19
timer:  rhoofd           40      12.868     514.720     0.45
timer:  cellXC           40       2.426      97.052     0.08
timer:  vmat             40      29.464    1178.579     1.02
timer:  MolMec            2       0.000       0.000     0.00
timer:  diagon           39    2863.546  111678.286    97.07
timer:  c-eigval       9130       5.601   51139.527    44.45
timer:  c-buildHS      9130       0.033     300.473     0.26
timer:  cdiag         18139       5.698  103356.741    89.84
timer:  cdiag1        18139       0.261    4731.582     4.11
timer:  cdiag2        18139       1.835   33282.088    28.93
timer:  cdiag3        18139       3.396   61594.104    53.54
timer:  cdiag4        18139       0.088    1592.688     1.38
timer:  c-eigvec       9009       5.857   52765.352    45.86
timer:  c-buildD       9009       0.933    8403.336     7.30
timer:  DHSCF4            1      21.417      21.417     0.02
timer:  dfscf             1      19.979      19.979     0.02
timer:  overfsm           1       0.289       0.289     0.00
timer:  optical           1       6.368       6.368     0.01
  

elaps: ELAPSED times:
elaps:  Routine       Calls   Time/call    Tot.time        %
elaps:  siesta            1    9609.845    9609.845   100.00
elaps:  Setup             1       0.279       0.279     0.00
elaps:  bands             3      18.918      56.755     0.59
elaps:  writewave         1       0.002       0.002     0.00
elaps:  KSV_init          1       0.000       0.000     0.00
elaps:  IterMD            1    9552.274    9552.274    99.40
elaps:  hsparse           1       0.016       0.016     0.00
elaps:  overlap           1       0.711       0.711     0.01
elaps:  IterSCF          39     244.656    9541.578    99.29
elaps:  kinefsm           2       0.363       0.727     0.01
elaps:  nlefsm            2       1.599       3.198     0.03
elaps:  DHSCF            40       5.410     216.395     2.25
elaps:  DHSCF1            1       0.077       0.077     0.00
elaps:  DHSCF2            1       2.092       2.092     0.02
elaps:  REORD           322       0.000       0.097     0.00
elaps:  POISON           41       0.038       1.556     0.02
elaps:  DHSCF3           40       5.267     210.688     2.19
elaps:  rhoofd           40       2.240      89.598     0.93
elaps:  cellXC           40       0.202       8.086     0.08
elaps:  vmat             40       2.462      98.486     1.02
elaps:  MolMec            2       0.000       0.000     0.00
elaps:  diagon           39     239.195    9328.619    97.07
elaps:  c-eigval       9130       0.468    4271.611    44.45
elaps:  c-buildHS      9130       0.004      32.461     0.34
elaps:  cdiag         18139       0.472    8562.932    89.11
elaps:  cdiag1        18139       0.021     386.476     4.02
elaps:  cdiag2        18139       0.153    2782.545    28.96
elaps:  cdiag3        18139       0.284    5152.260    53.61
elaps:  cdiag4        18139       0.007     128.177     1.33
elaps:  c-eigvec       9009       0.483    4351.443    45.28
elaps:  c-buildD       9009       0.084     757.746     7.89
elaps:  DHSCF4            1       3.497       3.497     0.04
elaps:  dfscf             1       3.307       3.307     0.03
elaps:  overfsm           1       0.031       0.031     0.00
elaps:  optical           1       0.000       0.000     0.00
  
>> End of run:   7-MAY-2016  14:04:31
