Siesta Version:                                        siesta-3.2-pl-3
Architecture  : x86_64-unknown-linux-gnu--unknown
Compiler flags: mpiifort -g -O2 -fPIC -xSSE4.1 -fp-model source -shared-intel 
PARALLEL version

* Running on   12 nodes in parallel
>> Start of run:   3-MAY-2016   2:02:30

                           ***********************       
                           *  WELCOME TO SIESTA  *       
                           ***********************       

reinit: Reading from standard input
************************** Dump of input data file ****************************
#(1) General system descriptors
SystemName            GRP_doping    # Descriptive name of the system
SystemLabel           GRP_doping    # Short name for naming files
%include STRUCT.fdf
%include KPT.fdf
%include BASIS.fdf
#%include TS.fdf # for transiesta calculation
#(4) DFT, Grid, SCF
XC.functional         GGA           # LDA or GGA (default = LDA)
XC.authors            PBE           # CA (Ceperley-Aldr) = PZ
                                    #    (Perdew-Zunger) - LDA - Default
                                    # PW92 (Perdew-Wang-92) - LDA
                                    # PBE (Perdew-Burke-Ernzerhof) - GGA
MeshCutoff            200.000000    Ry      # Default: 50.0 Ry ~ 0.444 Bohr
                                    #         100.0 Ry ~ 0.314 Bohr
MaxSCFIterations      500           # Default: 50
DM.MixingWeight       0.05          # Default: 0.25
DM.NumberPulay        10            # Default: 0
DM.PulayOnFile        F             # SystemLabel.P1, SystemLabel.P2
DM.Tolerance          1.d-4         # Default: 1.d-4
DM.UseSaveDM          .true.        # because of the bug
SCFMustConverge       .true.
NeglNonOverlapInt     F             # Default: F
#(5) Eigenvalue problem: order-N or diagonalization
SolutionMethod        Diagon        # or Transiesta
ElectronicTemperature 300.0 K       # Default: 300.0 K
#(6) Molecular dynamics and relaxations
#MD.TypeOfRun          CG            # Type of dynamics:
#MD.VariableCell       F
#MD.NumCGsteps         0           # 0 for single-point / 100 for gopt
#MD.MaxCGDispl         0.2 Bohr      # Default: 0.2 Bohr
#MD.MaxForceTol        0.02 eV/Ang   # Default: 0.04 eV/Ang
#MD.MaxStressTol       1.0 GPa       # Default: 1.0 GPa
# Geometry Constraints
#%block GeometryConstraints
#	position from 1 to 44
#%endblock GeometryConstraints
BandLinesScale   pi/a
%block BandLines
 1   0.00000000  0.00000000  0.00000000
50   0.00000000  0.07809418  0.00000000
50   0.04509075  0.07809242  0.00000000
20   0.00000000  0.00000000  0.00000000
%endblock BandLines
************************** End of input data file *****************************

reinit: -----------------------------------------------------------------------
reinit: System Name: GRP_doping
reinit: -----------------------------------------------------------------------
reinit: System Label: GRP_doping                                                  
reinit: -----------------------------------------------------------------------

initatom: Reading input for the pseudopotentials and atomic orbitals ----------
 Species number:            1  Label: B Atomic number:           5
 Species number:            2  Label: C Atomic number:           6
Ground state valence configuration:   2s02  2p01
Reading pseudopotential information in formatted form from B.psf

Valence configuration for pseudopotential generation:
2s( 2.00) rc: 1.74
2p( 1.00) rc: 1.74
3d( 0.00) rc: 1.74
4f( 0.00) rc: 1.74
Ground state valence configuration:   2s02  2p02
Reading pseudopotential information in formatted form from C.psf

Valence configuration for pseudopotential generation:
2s( 2.00) rc: 1.54
2p( 2.00) rc: 1.54
3d( 0.00) rc: 1.54
4f( 0.00) rc: 1.54
For B, standard SIESTA heuristics set lmxkb to 3
 (one more than the basis l, including polarization orbitals).
Use PS.lmax or PS.KBprojectors blocks to override.
For C, standard SIESTA heuristics set lmxkb to 3
 (one more than the basis l, including polarization orbitals).
Use PS.lmax or PS.KBprojectors blocks to override.

<basis_specs>
===============================================================================
B                    Z=   5    Mass=  10.810        Charge= 0.17977+309
Lmxo=1 Lmxkb= 3    BasisType=split      Semic=F
L=0  Nsemic=0  Cnfigmx=2
          n=1  nzeta=2  polorb=0
            splnorm:   0.15000    
               vcte:    0.0000    
               rinn:    0.0000    
                rcs:    0.0000      0.0000    
            lambdas:    1.0000      1.0000    
L=1  Nsemic=0  Cnfigmx=2
          n=1  nzeta=2  polorb=1
            splnorm:   0.15000    
               vcte:    0.0000    
               rinn:    0.0000    
                rcs:    0.0000      0.0000    
            lambdas:    1.0000      1.0000    
-------------------------------------------------------------------------------
L=0  Nkbl=1  erefs: 0.17977+309
L=1  Nkbl=1  erefs: 0.17977+309
L=2  Nkbl=1  erefs: 0.17977+309
L=3  Nkbl=1  erefs: 0.17977+309
===============================================================================
</basis_specs>

atom: Called for B                     (Z =   5)

read_vps: Pseudopotential generation method:
read_vps: ATM3      Troullier-Martins                       
Total valence charge:    3.00000

read_vps: Pseudopotential includes a core correction:
read_vps: Pseudo-core for xc-correction

xc_check: Exchange-correlation functional:
xc_check: GGA Perdew, Burke & Ernzerhof 1996
V l=0 = -2*Zval/r beyond r=  1.7165
V l=1 = -2*Zval/r beyond r=  1.7165
V l=2 = -2*Zval/r beyond r=  1.7165
V l=3 = -2*Zval/r beyond r=  1.6951
All V_l potentials equal beyond r=  1.7165
This should be close to max(r_c) in ps generation
All pots = -2*Zval/r beyond r=  1.7165

VLOCAL1: 99.0% of the norm of Vloc inside     14.733 Ry
VLOCAL1: 99.9% of the norm of Vloc inside     33.577 Ry
atom: Maximum radius for 4*pi*r*r*local-pseudopot. charge    2.04484
atom: Maximum radius for r*vlocal+2*Zval:    1.75994
GHOST: No ghost state for L =  0
GHOST: No ghost state for L =  1
GHOST: No ghost state for L =  2
GHOST: No ghost state for L =  3

KBgen: Kleinman-Bylander projectors: 
   l= 0   rc=  1.897051   el= -0.693730   Ekb=  4.595746   kbcos=  0.286105
   l= 1   rc=  1.920920   el= -0.265236   Ekb= -2.350715   kbcos= -0.315747
   l= 2   rc=  2.044840   el=  0.002055   Ekb= -0.690767   kbcos= -0.013822
   l= 3   rc=  2.149707   el=  0.003188   Ekb= -0.315358   kbcos= -0.002055

KBgen: Total number of  Kleinman-Bylander projectors:   16
atom: -------------------------------------------------------------------------

atom: SANKEY-TYPE ORBITALS:
atom: Selected multiple-zeta basis: split     

SPLIT: Orbitals with angular momentum L= 0

SPLIT: Basis orbitals for state 2s

SPLIT: PAO cut-off radius determined from an
SPLIT: energy shift=  0.007350 Ry

   izeta = 1
                 lambda =    1.000000
                     rc =    5.422032
                 energy =   -0.686029
                kinetic =    0.576707
    potential(screened) =   -1.262736
       potential(ionic) =   -3.271094

   izeta = 2
                 rmatch =    4.222573
              splitnorm =    0.150000
                 energy =   -0.602132
                kinetic =    0.858975
    potential(screened) =   -1.461107
       potential(ionic) =   -3.582536

SPLIT: Orbitals with angular momentum L= 1

SPLIT: Basis orbitals for state 2p

SPLIT: PAO cut-off radius determined from an
SPLIT: energy shift=  0.007350 Ry

   izeta = 1
                 lambda =    1.000000
                     rc =    6.790259
                 energy =   -0.258578
                kinetic =    1.481412
    potential(screened) =   -1.739989
       potential(ionic) =   -3.657461

   izeta = 2
                 rmatch =    4.608740
              splitnorm =    0.150000
                 energy =   -0.173757
                kinetic =    2.186690
    potential(screened) =   -2.360447
       potential(ionic) =   -4.464260

POLgen: Perturbative polarization orbital with L=  2

POLgen: Polarization orbital for state 2p

   izeta = 1
                     rc =    6.790259
                 energy =    0.684082
                kinetic =    1.471481
    potential(screened) =   -0.787399
       potential(ionic) =   -2.406985
atom: Total number of Sankey-type orbitals: 13

atm_pop: Valence configuration (for local Pseudopot. screening):
 2s( 2.00)                                                            
 2p( 1.00)                                                            
Vna: chval, zval:    3.00000   3.00000

Vna:  Cut-off radius for the neutral-atom potential:   6.790259
comcore: Pseudo-core radius Rcore=  2.122997

atom: _________________________________________________________________________

<basis_specs>
===============================================================================
C                    Z=   6    Mass=  12.010        Charge= 0.17977+309
Lmxo=1 Lmxkb= 3    BasisType=split      Semic=F
L=0  Nsemic=0  Cnfigmx=2
          n=1  nzeta=2  polorb=0
            splnorm:   0.15000    
               vcte:    0.0000    
               rinn:    0.0000    
                rcs:    0.0000      0.0000    
            lambdas:    1.0000      1.0000    
L=1  Nsemic=0  Cnfigmx=2
          n=1  nzeta=2  polorb=1
            splnorm:   0.15000    
               vcte:    0.0000    
               rinn:    0.0000    
                rcs:    0.0000      0.0000    
            lambdas:    1.0000      1.0000    
-------------------------------------------------------------------------------
L=0  Nkbl=1  erefs: 0.17977+309
L=1  Nkbl=1  erefs: 0.17977+309
L=2  Nkbl=1  erefs: 0.17977+309
L=3  Nkbl=1  erefs: 0.17977+309
===============================================================================
</basis_specs>

atom: Called for C                     (Z =   6)

read_vps: Pseudopotential generation method:
read_vps: ATM3      Troullier-Martins                       
Total valence charge:    4.00000

read_vps: Pseudopotential includes a core correction:
read_vps: Pseudo-core for xc-correction

xc_check: Exchange-correlation functional:
xc_check: GGA Perdew, Burke & Ernzerhof 1996
V l=0 = -2*Zval/r beyond r=  1.5227
V l=1 = -2*Zval/r beyond r=  1.5227
V l=2 = -2*Zval/r beyond r=  1.5227
V l=3 = -2*Zval/r beyond r=  1.5038
All V_l potentials equal beyond r=  1.5227
This should be close to max(r_c) in ps generation
All pots = -2*Zval/r beyond r=  1.5227

VLOCAL1: 99.0% of the norm of Vloc inside     18.722 Ry
VLOCAL1: 99.9% of the norm of Vloc inside     42.668 Ry
atom: Maximum radius for 4*pi*r*r*local-pseudopot. charge    1.83678
atom: Maximum radius for r*vlocal+2*Zval:    1.58088
GHOST: No ghost state for L =  0
GHOST: No ghost state for L =  1
GHOST: No ghost state for L =  2
GHOST: No ghost state for L =  3

KBgen: Kleinman-Bylander projectors: 
   l= 0   rc=  1.704034   el= -1.009801   Ekb=  5.335044   kbcos=  0.316824
   l= 1   rc=  1.704034   el= -0.388707   Ekb= -3.785862   kbcos= -0.366464
   l= 2   rc=  1.791422   el=  0.001971   Ekb= -0.970471   kbcos= -0.009212
   l= 3   rc=  1.859892   el=  0.003065   Ekb= -0.399525   kbcos= -0.001223

KBgen: Total number of  Kleinman-Bylander projectors:   16
atom: -------------------------------------------------------------------------

atom: SANKEY-TYPE ORBITALS:
atom: Selected multiple-zeta basis: split     

SPLIT: Orbitals with angular momentum L= 0

SPLIT: Basis orbitals for state 2s

SPLIT: PAO cut-off radius determined from an
SPLIT: energy shift=  0.007350 Ry

   izeta = 1
                 lambda =    1.000000
                     rc =    4.632753
                 energy =   -1.002270
                kinetic =    0.855760
    potential(screened) =   -1.858031
       potential(ionic) =   -5.417575

   izeta = 2
                 rmatch =    3.431921
              splitnorm =    0.150000
                 energy =   -0.867111
                kinetic =    1.300804
    potential(screened) =   -2.167915
       potential(ionic) =   -5.962684

SPLIT: Orbitals with angular momentum L= 1

SPLIT: Basis orbitals for state 2p

SPLIT: PAO cut-off radius determined from an
SPLIT: energy shift=  0.007350 Ry

   izeta = 1
                 lambda =    1.000000
                     rc =    5.658549
                 energy =   -0.381140
                kinetic =    2.399701
    potential(screened) =   -2.780841
       potential(ionic) =   -6.206085

   izeta = 2
                 rmatch =    3.653288
              splitnorm =    0.150000
                 energy =   -0.249149
                kinetic =    3.542762
    potential(screened) =   -3.791911
       potential(ionic) =   -7.581078

POLgen: Perturbative polarization orbital with L=  2

POLgen: Polarization orbital for state 2p

   izeta = 1
                     rc =    5.658549
                 energy =    1.109913
                kinetic =    2.304789
    potential(screened) =   -1.194876
       potential(ionic) =   -4.013592
atom: Total number of Sankey-type orbitals: 13

atm_pop: Valence configuration (for local Pseudopot. screening):
 2s( 2.00)                                                            
 2p( 2.00)                                                            
Vna: chval, zval:    4.00000   4.00000

Vna:  Cut-off radius for the neutral-atom potential:   5.658549
comcore: Pseudo-core radius Rcore=  1.791422

atom: _________________________________________________________________________

prinput: Basis input ----------------------------------------------------------

PAO.BasisType split     

%block ChemicalSpeciesLabel
    1    5 B                       # Species index, atomic number, species label
    2    6 C                       # Species index, atomic number, species label
%endblock ChemicalSpeciesLabel

%block PAO.Basis                 # Define Basis set
B                     2                    # Species label, number of l-shells
 n=2   0   2                         # n, l, Nzeta 
   5.422      4.223   
   1.000      1.000   
 n=2   1   2 P   1                   # n, l, Nzeta, Polarization, NzetaPol
   6.790      4.609   
   1.000      1.000   
C                     2                    # Species label, number of l-shells
 n=2   0   2                         # n, l, Nzeta 
   4.633      3.432   
   1.000      1.000   
 n=2   1   2 P   1                   # n, l, Nzeta, Polarization, NzetaPol
   5.659      3.653   
   1.000      1.000   
%endblock PAO.Basis

prinput: ----------------------------------------------------------------------

coor:   Atomic-coordinates input format  =     Fractional

siesta: Atomic coordinates (Bohr) and species
siesta:      6.95932  17.38257   0.00000  1        1
siesta:     -0.02582  10.66124   0.00000  1        2
siesta:     -0.02582  13.34970   0.00000  1        3
siesta:      4.63094  18.72698   0.00000  1        4
siesta:      4.63094  21.41544   0.00000  1        5
siesta:     -0.02582  18.72698   0.00000  1        6
siesta:     -0.02582  21.41544   0.00000  1        7
siesta:      2.30256  22.75985   0.00000  1        8
siesta:     -2.35420  22.75985   0.00000  1        9
siesta:     -2.35420  25.44831   0.00000  1       10
siesta:     -4.68258  26.79272   0.00000  1       11
siesta:     -4.68258  29.48119   0.00000  1       12
siesta:     -2.35420  30.82560   0.00000  1       13
siesta:     -2.35420  33.51406   0.00000  1       14
siesta:     -0.02582  34.85847   0.00000  1       15
siesta:     -0.02582  37.54693   0.00000  1       16
siesta:     -0.02582   2.59549   0.00000  2       17
siesta:     -0.02582   5.28395   0.00000  2       18
siesta:     -2.35420  38.89134   0.00000  2       19
siesta:     -2.35420  41.57980   0.00000  2       20
siesta:      2.30256  38.89134   0.00000  2       21
siesta:      2.30256  41.57980   0.00000  2       22
siesta:      4.63094  34.85847   0.00000  2       23
siesta:      4.63094  37.54693   0.00000  2       24
siesta:      6.95932  30.82560   0.00000  2       25
siesta:      6.95932  33.51406   0.00000  2       26
siesta:      9.28770  26.79272   0.00000  2       27
siesta:      9.28770  29.48119   0.00000  2       28
siesta:     -4.68258  34.85847   0.00000  2       29
siesta:     -4.68258  37.54693   0.00000  2       30
siesta:      2.30256   6.62836   0.00000  2       31
siesta:      2.30256   9.31683   0.00000  2       32
siesta:      4.63094  10.66124   0.00000  2       33
siesta:      4.63094  13.34970   0.00000  2       34
siesta:      6.95932  14.69411   0.00000  2       35
siesta:      9.28770  18.72698   0.00000  2       36
siesta:      9.28770  21.41544   0.00000  2       37
siesta:     11.61608  22.75985   0.00000  2       38
siesta:     11.61608  25.44831   0.00000  2       39
siesta:     -2.35420   6.62836   0.00000  2       40
siesta:     -2.35420   9.31683   0.00000  2       41
siesta:      2.30256  14.69411   0.00000  2       42
siesta:      2.30256  17.38257   0.00000  2       43
siesta:      6.95932  22.75985   0.00000  2       44
siesta:      6.95932  25.44831   0.00000  2       45
siesta:     -4.68258  10.66124   0.00000  2       46
siesta:     -4.68258  13.34970   0.00000  2       47
siesta:     -2.35420  14.69411   0.00000  2       48
siesta:     -2.35420  17.38257   0.00000  2       49
siesta:      2.30256  25.44831   0.00000  2       50
siesta:     -7.01096  14.69411   0.00000  2       51
siesta:     -7.01096  17.38257   0.00000  2       52
siesta:     -4.68258  18.72698   0.00000  2       53
siesta:     -4.68258  21.41544   0.00000  2       54
siesta:     -9.33934  18.72698   0.00000  2       55
siesta:     -9.33934  21.41544   0.00000  2       56
siesta:     -7.01096  22.75985   0.00000  2       57
siesta:     -7.01096  25.44831   0.00000  2       58
siesta:    -11.66772  22.75985   0.00000  2       59
siesta:    -11.66772  25.44831   0.00000  2       60
siesta:     -9.33934  26.79272   0.00000  2       61
siesta:     -9.33934  29.48119   0.00000  2       62
siesta:      4.63094  26.79272   0.00000  2       63
siesta:      4.63094  29.48119   0.00000  2       64
siesta:     -0.02582  26.79272   0.00000  2       65
siesta:     -0.02582  29.48119   0.00000  2       66
siesta:      2.30256  30.82560   0.00000  2       67
siesta:      2.30256  33.51406   0.00000  2       68
siesta:     -7.01096  30.82560   0.00000  2       69
siesta:     -7.01096  33.51406   0.00000  2       70
siesta:     -0.02582  42.92421   0.00000  2       71
siesta:     -0.02582  45.61267   0.00000  2       72

siesta: System type = slab      

initatomlists: Number of atoms, orbitals, and projectors:     72   936  1152

siesta: ******************** Simulation parameters ****************************
siesta:
siesta: The following are some of the parameters of the simulation.
siesta: A complete list of the parameters used, including default values,
siesta: can be found in file out.fdf
siesta:
redata: Non-Collinear-spin run           =     F
redata: SpinPolarized (Up/Down) run      =     F
redata: Number of spin components        =     1
redata: Long output                      =     F
redata: Number of Atomic Species         =        2
redata: Charge density info will appear in .RHO file
redata: Write Mulliken Pop.              =     NO
redata: Mesh Cutoff                      =   200.0000  Ry
redata: Net charge of the system         =     0.0000 |e|
redata: Max. number of SCF Iter          =      500
redata: SCF convergence failure will abort job
redata: Performing Pulay mixing using    =    10 iterations
redata: Mix DM in first SCF step ?       =     F
redata: Write Pulay info on disk?        =     F
redata: Discard 1st Pulay DM after  kick =     F
redata: New DM Mixing Weight             =     0.0500
redata: New DM Occupancy tolerance       = 0.000000000001
redata: No kicks to SCF
redata: DM Mixing Weight for Kicks       =     0.5000
redata: DM Tolerance for SCF             =     0.000100
redata: Require Energy convergence for SCF =     F
redata: DM Energy tolerance for SCF      =     0.000100 eV
redata: Require Harris convergence for SCF =     F
redata: DM Harris energy tolerance for SCF =     0.000100 eV
redata: Using Saved Data (generic)   =     F
redata: Use continuation files for DM    =     T
redata: Neglect nonoverlap interactions  =     F
redata: Method of Calculation            =     Diagonalization
redata: Divide and Conquer               =     T
redata: Electronic Temperature           =     0.0019  Ry
redata: Fix the spin of the system       =     F
redata: Dynamics option                  =     Verlet MD run
redata: Initial MD time step             =        1
redata:   Final MD time step             =        1
redata: Length of MD time step           =     1.0000  fs
redata: Initial Temperature of MD run    =     0.0000  K
redata: Perform a MD quench              =     F
redata: ***********************************************************************
Total number of electrons:   272.000000
Total ionic charge:   272.000000

* ProcessorY, Blocksize:    3  24

k-point displ. along   1 input, could be:     0.50    0.00
k-point displ. along   2 input, could be:     0.50    0.00
 Kpoints in:          231 . Kpoints trimmed:          231

siesta: k-grid: Number of k-points =   231
siesta: k-grid: Cutoff (effective) =     5.000 Ang
siesta: k-grid: Supercell and displacements
siesta: k-grid:   21   0   0      0.500
siesta: k-grid:    0  21   0      0.500
siesta: k-grid:    0   0   1      0.000
Naive supercell factors:     2    2    2

superc: Internal auxiliary supercell:     2 x     2 x     2  =       8
superc: Number of atoms, orbitals, and projectors:    576   7488   9216

* Maximum dynamic memory allocated =     4 MB

siesta:                 ==============================
                            Begin MD step =      1
                        ==============================

superc: Internal auxiliary supercell:     2 x     2 x     2  =       8
superc: Number of atoms, orbitals, and projectors:    576   7488   9216

outcell: Unit cell vectors (Ang):
       12.804619    7.392750    0.000000
        0.000000   14.785500    0.000000
        0.000000    0.000000   10.000000

outcell: Cell vector modules (Ang)   :   14.785500   14.785500   10.000000
outcell: Cell angles (23,13,12) (deg):     90.0000     90.0000     60.0000
outcell: Cell volume (Ang**3)        :   1893.2269
New_DM. Step:     1
Initializing Density Matrix...

InitMesh: MESH =   120 x   120 x    90 =     1296000
InitMesh: Mesh cutoff (required, used) =   200.000   223.865 Ry

* Maximum dynamic memory allocated =   156 MB

stepf: Fermi-Dirac step function

siesta: Program's energy decomposition (eV):
siesta: Ebs     =     -5588.683212
siesta: Eions   =     16354.103692
siesta: Ena     =      4330.880993
siesta: Ekin    =      5534.369168
siesta: Enl     =       771.520916
siesta: DEna    =        -0.000010
siesta: DUscf   =         0.000000
siesta: DUext   =         0.000000
siesta: Exc     =     -4188.849287
siesta: eta*DQ  =         0.000000
siesta: Emadel  =         0.000000
siesta: Emeta   =         0.000000
siesta: Emolmec =         0.000000
siesta: Ekinion =         0.000000
siesta: Eharris =     -9664.805406
siesta: Etot    =     -9906.181912
siesta: FreeEng =     -9906.181912

siesta: iscf   Eharris(eV)      E_KS(eV)   FreeEng(eV)   dDmax  Ef(eV)
siesta:    1    -9664.8054    -9906.1819    -9906.1819  7.2974 -8.3090
timer: Routine,Calls,Time,% = IterSCF        1    3059.045  99.59
elaps: Routine,Calls,Wall,% = IterSCF        1     255.526  99.59
siesta:    2   -14478.4948    -8904.5123    -8904.5396 17.0362 -3.7774
siesta:    3    -9621.6368    -9750.9372    -9750.9589  2.4680 -6.2373
siesta:    4    -9589.1777    -9652.5989    -9652.6491  1.3222 -5.6055
siesta:    5    -9535.1203    -9567.3790    -9567.3796  1.1808 -5.5006
siesta:    6    -9522.2873    -9526.8649    -9526.8911  1.1541 -5.3593
siesta:    7    -9515.1542    -9510.0337    -9510.0447  0.6100 -5.2472
siesta:    8    -9512.9616    -9504.8819    -9504.9383  0.6224 -5.3136
siesta:    9    -9511.0643    -9500.5202    -9500.5334  0.5141 -5.2875
siesta:   10    -9512.4999    -9486.5203    -9486.5372  0.4776 -5.1124
siesta:   11    -9510.9424    -9485.1430    -9485.1780  0.3463 -5.1406
siesta:   12    -9510.8072    -9483.3133    -9483.3541  0.2629 -5.1395
siesta:   13    -9510.2596    -9483.1136    -9483.1546  0.2470 -5.1455
siesta:   14    -9509.6555    -9486.6633    -9486.6864  0.2263 -5.1774
siesta:   15    -9509.0462    -9491.0225    -9491.0489  0.1906 -5.2037
siesta:   16    -9508.8124    -9497.0202    -9497.0551  0.1507 -5.2234
siesta:   17    -9508.7550    -9500.6305    -9500.6620  0.1090 -5.2449
siesta:   18    -9508.7171    -9503.5610    -9503.5954  0.0742 -5.2488
siesta:   19    -9508.6976    -9505.1152    -9505.1372  0.0479 -5.2540
siesta:   20    -9508.6821    -9506.8092    -9506.8366  0.0328 -5.2578
siesta:   21    -9508.6733    -9508.1824    -9508.2091  0.0319 -5.2599
siesta:   22    -9508.6687    -9509.0198    -9509.0474  0.0261 -5.2584
siesta:   23    -9508.6670    -9509.4527    -9509.4808  0.0205 -5.2542
siesta:   24    -9508.6672    -9509.2974    -9509.3254  0.0079 -5.2475
siesta:   25    -9508.6661    -9509.2346    -9509.2616  0.0060 -5.2473
siesta:   26    -9508.6661    -9509.1530    -9509.1809  0.0040 -5.2475
siesta:   27    -9508.6658    -9508.9360    -9508.9636  0.0021 -5.2467
siesta:   28    -9508.6660    -9508.8324    -9508.8602  0.0016 -5.2460
siesta:   29    -9508.6658    -9508.7778    -9508.8054  0.0011 -5.2457
siesta:   30    -9508.6658    -9508.7288    -9508.7565  0.0009 -5.2457
siesta:   31    -9508.6659    -9508.7111    -9508.7387  0.0009 -5.2458
siesta:   32    -9508.6659    -9508.6841    -9508.7116  0.0003 -5.2461
siesta:   33    -9508.6659    -9508.6688    -9508.6964  0.0002 -5.2462
siesta:   34    -9508.6658    -9508.6602    -9508.6878  0.0001 -5.2463
siesta:   35    -9508.6659    -9508.6606    -9508.6882  0.0001 -5.2464
siesta:   36    -9508.6659    -9508.6625    -9508.6901  0.0000 -5.2464

siesta: E_KS(eV) =            -9508.6626

siesta: E_KS - E_eggbox =     -9508.6626

siesta: Atomic forces (eV/Ang):
----------------------------------------
   Tot   -0.124368    0.086261    0.000000
----------------------------------------
   Max  559.042066
   Res  145.638269    sqrt( Sum f_i^2 / 3N )
----------------------------------------
   Max  559.042066    constrained

Stress-tensor-Voigt (kbar):     -748.65    -2589.58       -0.52      -10.44        0.00        0.00
(Free)E + p*V (eV/cell)    -8193.6124
Target enthalpy (eV/cell)    -9508.6902

siesta: Stress tensor (static) (eV/Ang**3):
        -0.467268   -0.006513    0.000000
        -0.006513   -1.616272    0.000000
         0.000000    0.000000   -0.000327

siesta: Pressure (static):       1112.91977570  kBar

siesta: Stress tensor (total) (eV/Ang**3):
        -0.467268   -0.006513    0.000000
        -0.006513   -1.616272    0.000000
         0.000000    0.000000   -0.000327

siesta: Pressure (total):       1112.91977570  kBar

siesta: Temp_ion =       0.000 K

* Maximum dynamic memory allocated =   169 MB
Computing bands...

siesta: Program's energy decomposition (eV):
siesta: Ebs     =     -4261.422735
siesta: Eions   =     16354.103692
siesta: Ena     =      4330.880993
siesta: Ekin    =      8368.272723
siesta: Enl     =      -854.004060
siesta: DEna    =      -748.044881
siesta: DUscf   =        99.111117
siesta: DUext   =         0.000000
siesta: Exc     =     -4350.774788
siesta: eta*DQ  =         0.000000
siesta: Emadel  =         0.000000
siesta: Emeta   =         0.000000
siesta: Emolmec =         0.000000
siesta: Ekinion =         0.000000
siesta: Eharris =     -9508.665857
siesta: Etot    =     -9508.662586
siesta: FreeEng =     -9508.690189

siesta: Final energy (eV):
siesta:  Band Struct. =   -4261.422735
siesta:       Kinetic =    8368.272723
siesta:       Hartree =   26816.103952
siesta:    Ext. field =       0.000000
siesta:   Exch.-corr. =   -4350.774788
siesta:  Ion-electron =  -61735.077638
siesta:       Ion-ion =   21392.813165
siesta:       Ekinion =       0.000000
siesta:         Total =   -9508.662586

siesta: Atomic forces (eV/Ang):
siesta:      1    9.232014   -3.246439    0.000000
siesta:      2   -0.385354  283.060969    0.000000
siesta:      3   -0.956388 -111.059983    0.000000
siesta:      4   -5.939655   -3.169878    0.000000
siesta:      5    4.527909    2.148714    0.000000
siesta:      6   -0.220144  411.188809    0.000000
siesta:      7    1.648145   -0.743003    0.000000
siesta:      8   -1.402750    3.227203    0.000000
siesta:      9   -6.142568   -3.234948    0.000000
siesta:     10    6.586553    5.136196    0.000000
siesta:     11   -5.169027   -3.798844    0.000000
siesta:     12    0.385037    3.165491    0.000000
siesta:     13  -15.272710    2.267436    0.000000
siesta:     14  -16.245023 -398.763929    0.000000
siesta:     15   -0.422138  104.807039    0.000000
siesta:     16   -0.289544 -282.929800    0.000000
siesta:     17    6.233292  549.111579    0.000000
siesta:     18   -9.620207 -132.371371    0.000000
siesta:     19    7.988634  124.790211    0.000000
siesta:     20  -21.644545 -548.250817    0.000000
siesta:     21   -7.754396  123.406964    0.000000
siesta:     22   21.695295 -550.465276    0.000000
siesta:     23   26.294536    4.603261    0.000000
siesta:     24   32.862086 -545.983324    0.000000
siesta:     25    1.840449    0.598235    0.000000
siesta:     26   -2.677818    2.047511    0.000000
siesta:     27    2.677175    2.030246    0.000000
siesta:     28   -1.109964    0.027549    0.000000
siesta:     29  -25.193993    0.299134    0.000000
siesta:     30  -30.837471 -548.579549    0.000000
siesta:     31   21.822429  550.537076    0.000000
siesta:     32   -8.181506 -124.949709    0.000000
siesta:     33   36.174008  547.535062    0.000000
siesta:     34   27.153464   -5.965518    0.000000
siesta:     35   -4.562985   -4.566427    0.000000
siesta:     36    0.370579    2.210606    0.000000
siesta:     37    3.160820   -1.619153    0.000000
siesta:     38   -0.309687    7.031917    0.000000
siesta:     39   -0.116191   -6.895279    0.000000
siesta:     40  -16.049671  406.145242    0.000000
siesta:     41    7.469486 -118.510526    0.000000
siesta:     42   13.868660  553.174511    0.000000
siesta:     43   19.165672   -3.053561    0.000000
siesta:     44    1.997040    3.333151    0.000000
siesta:     45    0.464501   -1.218410    0.000000
siesta:     46  -35.269765  547.953054    0.000000
siesta:     47  -26.779518   -5.071254    0.000000
siesta:     48  -15.643225  550.217743    0.000000
siesta:     49  -21.687123   -2.589665    0.000000
siesta:     50    1.044134    3.519484    0.000000
siesta:     51    2.856503   -1.985087    0.000000
siesta:     52   -2.908380   -0.508658    0.000000
siesta:     53    1.066055    1.553135    0.000000
siesta:     54   -1.918561   -1.840978    0.000000
siesta:     55    1.558661   -0.635152    0.000000
siesta:     56   -2.899368   -1.623445    0.000000
siesta:     57   -0.742987    0.802705    0.000000
siesta:     58   -2.459106   -2.176882    0.000000
siesta:     59    0.428510    7.408222    0.000000
siesta:     60    0.189345   -7.217099    0.000000
siesta:     61   -2.486447    1.146113    0.000000
siesta:     62    1.724633    0.980449    0.000000
siesta:     63   -0.300522    0.833591    0.000000
siesta:     64   -0.709536   -2.234513    0.000000
siesta:     65    2.334342    1.013040    0.000000
siesta:     66   -4.954757 -559.042066    0.000000
siesta:     67   22.153088    7.433352    0.000000
siesta:     68   15.834908 -549.203271    0.000000
siesta:     69   -7.805831    1.611460    0.000000
siesta:     70    2.726195    1.496740    0.000000
siesta:     71    2.442320  125.654789    0.000000
siesta:     72   -1.031986 -409.917914    0.000000
siesta: ----------------------------------------
siesta:    Tot   -0.124368    0.086261    0.000000

siesta: Stress tensor (static) (eV/Ang**3):
siesta:    -0.467268   -0.006513    0.000000
siesta:    -0.006513   -1.616272    0.000000
siesta:     0.000000    0.000000   -0.000327

siesta: Cell volume =       1893.226884 Ang**3

siesta: Pressure (static):
siesta:                Solid            Molecule  Units
siesta:           0.00756532          0.11060195  Ry/Bohr**3
siesta:           0.69462238         10.15509476  eV/Ang**3
siesta:        1112.91977570      16270.43140283  kBar
(Free)E+ p_basis*V_orbitals  =       -9472.897317
(Free)Eharris+ p_basis*V_orbitals  =       -9472.900696

siesta: Electric dipole (a.u.)  =    0.000000    0.000000    0.000000
siesta: Electric dipole (Debye) =    0.000000    0.000000    0.000000

* Maximum dynamic memory allocated : Node    0 =   169 MB
* Maximum dynamic memory allocated : Node    1 =    67 MB
* Maximum dynamic memory allocated : Node    2 =    68 MB
* Maximum dynamic memory allocated : Node    3 =   156 MB
* Maximum dynamic memory allocated : Node    4 =   168 MB
* Maximum dynamic memory allocated : Node    5 =    61 MB
* Maximum dynamic memory allocated : Node    6 =    63 MB
* Maximum dynamic memory allocated : Node    7 =   157 MB
* Maximum dynamic memory allocated : Node    8 =   149 MB
* Maximum dynamic memory allocated : Node    9 =    60 MB
* Maximum dynamic memory allocated : Node   10 =    62 MB
* Maximum dynamic memory allocated : Node   11 =   142 MB

* Maximum memory occured during matrixMtoO                    

timer: CPU execution times:
timer:  Routine       Calls   Time/call    Tot.time        %
timer:  siesta            1  107564.503  107564.503   100.00
timer:  Setup             1       3.332       3.332     0.00
timer:  bands             3     226.845     680.535     0.63
timer:  writewave         1       0.023       0.023     0.00
timer:  KSV_init          1       0.006       0.006     0.00
timer:  IterMD            1  106873.759  106873.759    99.36
timer:  hsparse           1       0.285       0.285     0.00
timer:  overlap           1       7.424       7.424     0.01
timer:  IterSCF          36    2964.314  106715.321    99.21
timer:  kinefsm           2       3.779       7.557     0.01
timer:  nlefsm            2      20.364      40.729     0.04
timer:  DHSCF            37      82.162    3039.999     2.83
timer:  DHSCF1            1       1.191       1.191     0.00
timer:  DHSCF2            1      33.030      33.030     0.03
timer:  REORD           298       0.002       0.680     0.00
timer:  POISON           38       0.455      17.272     0.02
timer:  DHSCF3           37      80.466    2977.233     2.77
timer:  rhoofd           37      17.445     645.452     0.60
timer:  cellXC           37       2.402      88.867     0.08
timer:  vmat             37      38.365    1419.494     1.32
timer:  MolMec            2       0.000       0.000     0.00
timer:  diagon           36    2881.018  103716.658    96.42
timer:  c-eigval       8437       5.602   47264.986    43.94
timer:  c-buildHS      8437       0.036     303.933     0.28
timer:  cdiag         16753       5.703   95535.947    88.82
timer:  cdiag1        16753       0.263    4411.752     4.10
timer:  cdiag2        16753       1.839   30805.854    28.64
timer:  cdiag3        16753       3.387   56738.084    52.75
timer:  cdiag4        16753       0.087    1455.279     1.35
timer:  c-eigvec       8316       5.872   48831.198    45.40
timer:  c-buildD       8316       0.993    8256.943     7.68
timer:  DHSCF4            1      28.311      28.311     0.03
timer:  dfscf             1      26.205      26.205     0.02
timer:  overfsm           1       0.329       0.329     0.00
timer:  optical           1       6.273       6.273     0.01
  

elaps: ELAPSED times:
elaps:  Routine       Calls   Time/call    Tot.time        %
elaps:  siesta            1    8984.784    8984.784   100.00
elaps:  Setup             1       0.279       0.279     0.00
elaps:  bands             3      18.963      56.890     0.63
elaps:  writewave         1       0.002       0.002     0.00
elaps:  KSV_init          1       0.000       0.000     0.00
elaps:  IterMD            1    8927.086    8927.086    99.36
elaps:  hsparse           1       0.028       0.028     0.00
elaps:  overlap           1       0.720       0.720     0.01
elaps:  IterSCF          36     247.607    8913.852    99.21
elaps:  kinefsm           2       0.368       0.736     0.01
elaps:  nlefsm            2       1.814       3.628     0.04
elaps:  DHSCF            37       6.924     256.185     2.85
elaps:  DHSCF1            1       0.103       0.103     0.00
elaps:  DHSCF2            1       2.756       2.756     0.03
elaps:  REORD           298       0.000       0.089     0.00
elaps:  POISON           38       0.038       1.459     0.02
elaps:  DHSCF3           37       6.723     248.750     2.77
elaps:  rhoofd           37       3.030     112.098     1.25
elaps:  cellXC           37       0.200       7.405     0.08
elaps:  vmat             37       3.206     118.622     1.32
elaps:  MolMec            2       0.000       0.000     0.00
elaps:  diagon           36     240.656    8663.621    96.43
elaps:  c-eigval       8437       0.468    3947.941    43.94
elaps:  c-buildHS      8437       0.004      32.708     0.36
elaps:  cdiag         16753       0.471    7890.910    87.83
elaps:  cdiag1        16753       0.022     360.885     4.02
elaps:  cdiag2        16753       0.154    2575.507    28.67
elaps:  cdiag3        16753       0.283    4746.030    52.82
elaps:  cdiag4        16753       0.007     117.645     1.31
elaps:  c-eigvec       8316       0.481    4003.079    44.55
elaps:  c-buildD       8316       0.092     765.341     8.52
elaps:  DHSCF4            1       4.538       4.538     0.05
elaps:  dfscf             1       4.279       4.279     0.05
elaps:  overfsm           1       0.035       0.035     0.00
elaps:  optical           1       0.000       0.000     0.00
  
>> End of run:   3-MAY-2016   4:32:15
