Siesta Version:                                        siesta-3.2-pl-3
Architecture  : x86_64-unknown-linux-gnu--unknown
Compiler flags: mpiifort -g -O2 -fPIC -xSSE4.1 -fp-model source -shared-intel 
PARALLEL version

* Running on    8 nodes in parallel
>> Start of run:  20-APR-2016   1:46:50

                           ***********************       
                           *  WELCOME TO SIESTA  *       
                           ***********************       

reinit: Reading from standard input
************************** Dump of input data file ****************************
#(1) General system descriptors
SystemName            GRP_doping    # Descriptive name of the system
SystemLabel           GRP_doping    # Short name for naming files
%include STRUCT.fdf
%include KPT.fdf
%include BASIS.fdf
#%include TS.fdf # for transiesta calculation
#(4) DFT, Grid, SCF
XC.functional         GGA           # LDA or GGA (default = LDA)
XC.authors            PBE           # CA (Ceperley-Aldr) = PZ
                                    #    (Perdew-Zunger) - LDA - Default
                                    # PW92 (Perdew-Wang-92) - LDA
                                    # PBE (Perdew-Burke-Ernzerhof) - GGA
MeshCutoff            200.000000    Ry      # Default: 50.0 Ry ~ 0.444 Bohr
                                    #         100.0 Ry ~ 0.314 Bohr
MaxSCFIterations      500           # Default: 50
DM.MixingWeight       0.05          # Default: 0.25
DM.NumberPulay        10            # Default: 0
DM.PulayOnFile        F             # SystemLabel.P1, SystemLabel.P2
DM.Tolerance          1.d-4         # Default: 1.d-4
DM.UseSaveDM          .true.        # because of the bug
SCFMustConverge       .true.
NeglNonOverlapInt     F             # Default: F
#(5) Eigenvalue problem: order-N or diagonalization
SolutionMethod        Diagon        # or Transiesta
ElectronicTemperature 300.0 K       # Default: 300.0 K
#(6) Molecular dynamics and relaxations
#MD.TypeOfRun          CG            # Type of dynamics:
#MD.VariableCell       F
#MD.NumCGsteps         0           # 0 for single-point / 100 for gopt
#MD.MaxCGDispl         0.2 Bohr      # Default: 0.2 Bohr
#MD.MaxForceTol        0.02 eV/Ang   # Default: 0.04 eV/Ang
#MD.MaxStressTol       1.0 GPa       # Default: 1.0 GPa
# Geometry Constraints
#%block GeometryConstraints
#	position from 1 to 44
#%endblock GeometryConstraints
BandLinesScale   pi/a
%block BandLines
 1   0.00000000  0.00000000  0.00000000
50   0.00000000  0.07809418  0.00000000
50   0.04509075  0.07809242  0.00000000
20   0.00000000  0.00000000  0.00000000
%endblock BandLines
************************** End of input data file *****************************

reinit: -----------------------------------------------------------------------
reinit: System Name: GRP_doping
reinit: -----------------------------------------------------------------------
reinit: System Label: GRP_doping                                                  
reinit: -----------------------------------------------------------------------

initatom: Reading input for the pseudopotentials and atomic orbitals ----------
 Species number:            1  Label: N Atomic number:           7
 Species number:            2  Label: C Atomic number:           6
Ground state valence configuration:   2s02  2p03
Reading pseudopotential information in formatted form from N.psf

Valence configuration for pseudopotential generation:
2s( 2.00) rc: 1.48
2p( 3.00) rc: 1.48
3d( 0.00) rc: 1.48
4f( 0.00) rc: 1.48
Ground state valence configuration:   2s02  2p02
Reading pseudopotential information in formatted form from C.psf

Valence configuration for pseudopotential generation:
2s( 2.00) rc: 1.54
2p( 2.00) rc: 1.54
3d( 0.00) rc: 1.54
4f( 0.00) rc: 1.54
For N, standard SIESTA heuristics set lmxkb to 3
 (one more than the basis l, including polarization orbitals).
Use PS.lmax or PS.KBprojectors blocks to override.
For C, standard SIESTA heuristics set lmxkb to 3
 (one more than the basis l, including polarization orbitals).
Use PS.lmax or PS.KBprojectors blocks to override.

<basis_specs>
===============================================================================
N                    Z=   7    Mass=  14.010        Charge= 0.17977+309
Lmxo=1 Lmxkb= 3    BasisType=split      Semic=F
L=0  Nsemic=0  Cnfigmx=2
          n=1  nzeta=2  polorb=0
            splnorm:   0.15000    
               vcte:    0.0000    
               rinn:    0.0000    
                rcs:    0.0000      0.0000    
            lambdas:    1.0000      1.0000    
L=1  Nsemic=0  Cnfigmx=2
          n=1  nzeta=2  polorb=1
            splnorm:   0.15000    
               vcte:    0.0000    
               rinn:    0.0000    
                rcs:    0.0000      0.0000    
            lambdas:    1.0000      1.0000    
-------------------------------------------------------------------------------
L=0  Nkbl=1  erefs: 0.17977+309
L=1  Nkbl=1  erefs: 0.17977+309
L=2  Nkbl=1  erefs: 0.17977+309
L=3  Nkbl=1  erefs: 0.17977+309
===============================================================================
</basis_specs>

atom: Called for N                     (Z =   7)

read_vps: Pseudopotential generation method:
read_vps: ATM3      Troullier-Martins                       
Total valence charge:    5.00000

read_vps: Pseudopotential includes a core correction:
read_vps: Pseudo-core for xc-correction

xc_check: Exchange-correlation functional:
xc_check: GGA Perdew, Burke & Ernzerhof 1996
V l=0 = -2*Zval/r beyond r=  1.4606
V l=1 = -2*Zval/r beyond r=  1.4606
V l=2 = -2*Zval/r beyond r=  1.4606
V l=3 = -2*Zval/r beyond r=  1.4606
All V_l potentials equal beyond r=  1.4606
This should be close to max(r_c) in ps generation
All pots = -2*Zval/r beyond r=  1.4606

VLOCAL1: 99.0% of the norm of Vloc inside     20.347 Ry
VLOCAL1: 99.9% of the norm of Vloc inside     46.372 Ry
atom: Maximum radius for 4*pi*r*r*local-pseudopot. charge    1.76189
atom: Maximum radius for r*vlocal+2*Zval:    1.53550
GHOST: No ghost state for L =  0
GHOST: No ghost state for L =  1
GHOST: No ghost state for L =  2
GHOST: No ghost state for L =  3

KBgen: Kleinman-Bylander projectors: 
   l= 0   rc=  1.634559   el= -1.363963   Ekb=  5.296955   kbcos=  0.335621
   l= 1   rc=  1.614250   el= -0.521451   Ekb= -5.259161   kbcos= -0.433408
   l= 2   rc=  1.718383   el=  0.001991   Ekb= -1.271464   kbcos= -0.007566
   l= 3   rc=  1.761893   el=  0.003093   Ekb= -0.494769   kbcos= -0.001015

KBgen: Total number of  Kleinman-Bylander projectors:   16
atom: -------------------------------------------------------------------------

atom: SANKEY-TYPE ORBITALS:
atom: Selected multiple-zeta basis: split     

SPLIT: Orbitals with angular momentum L= 0

SPLIT: Basis orbitals for state 2s

SPLIT: PAO cut-off radius determined from an
SPLIT: energy shift=  0.007350 Ry

   izeta = 1
                 lambda =    1.000000
                     rc =    4.071465
                 energy =   -1.356470
                kinetic =    1.176977
    potential(screened) =   -2.533447
       potential(ionic) =   -8.057990

   izeta = 2
                 rmatch =    2.905100
              splitnorm =    0.150000
                 energy =   -1.158343
                kinetic =    1.813009
    potential(screened) =   -2.971352
       potential(ionic) =   -8.901931

SPLIT: Orbitals with angular momentum L= 1

SPLIT: Basis orbitals for state 2p

SPLIT: PAO cut-off radius determined from an
SPLIT: energy shift=  0.007350 Ry

   izeta = 1
                 lambda =    1.000000
                     rc =    4.972977
                 energy =   -0.513884
                kinetic =    3.441732
    potential(screened) =   -3.955616
       potential(ionic) =   -9.287901

   izeta = 2
                 rmatch =    3.054066
              splitnorm =    0.150000
                 energy =   -0.318226
                kinetic =    5.125348
    potential(screened) =   -5.443573
       potential(ionic) =  -11.380999

POLgen: Perturbative polarization orbital with L=  2

POLgen: Polarization orbital for state 2p

   izeta = 1
                     rc =    4.972977
                 energy =    1.607437
                kinetic =    3.268125
    potential(screened) =   -1.660688
       potential(ionic) =   -5.973652
atom: Total number of Sankey-type orbitals: 13

atm_pop: Valence configuration (for local Pseudopot. screening):
 2s( 2.00)                                                            
 2p( 3.00)                                                            
Vna: chval, zval:    5.00000   5.00000

Vna:  Cut-off radius for the neutral-atom potential:   4.972977
comcore: Pseudo-core radius Rcore=  1.554824

atom: _________________________________________________________________________

<basis_specs>
===============================================================================
C                    Z=   6    Mass=  12.010        Charge= 0.17977+309
Lmxo=1 Lmxkb= 3    BasisType=split      Semic=F
L=0  Nsemic=0  Cnfigmx=2
          n=1  nzeta=2  polorb=0
            splnorm:   0.15000    
               vcte:    0.0000    
               rinn:    0.0000    
                rcs:    0.0000      0.0000    
            lambdas:    1.0000      1.0000    
L=1  Nsemic=0  Cnfigmx=2
          n=1  nzeta=2  polorb=1
            splnorm:   0.15000    
               vcte:    0.0000    
               rinn:    0.0000    
                rcs:    0.0000      0.0000    
            lambdas:    1.0000      1.0000    
-------------------------------------------------------------------------------
L=0  Nkbl=1  erefs: 0.17977+309
L=1  Nkbl=1  erefs: 0.17977+309
L=2  Nkbl=1  erefs: 0.17977+309
L=3  Nkbl=1  erefs: 0.17977+309
===============================================================================
</basis_specs>

atom: Called for C                     (Z =   6)

read_vps: Pseudopotential generation method:
read_vps: ATM3      Troullier-Martins                       
Total valence charge:    4.00000

read_vps: Pseudopotential includes a core correction:
read_vps: Pseudo-core for xc-correction

xc_check: Exchange-correlation functional:
xc_check: GGA Perdew, Burke & Ernzerhof 1996
V l=0 = -2*Zval/r beyond r=  1.5227
V l=1 = -2*Zval/r beyond r=  1.5227
V l=2 = -2*Zval/r beyond r=  1.5227
V l=3 = -2*Zval/r beyond r=  1.5038
All V_l potentials equal beyond r=  1.5227
This should be close to max(r_c) in ps generation
All pots = -2*Zval/r beyond r=  1.5227

VLOCAL1: 99.0% of the norm of Vloc inside     18.722 Ry
VLOCAL1: 99.9% of the norm of Vloc inside     42.668 Ry
atom: Maximum radius for 4*pi*r*r*local-pseudopot. charge    1.83678
atom: Maximum radius for r*vlocal+2*Zval:    1.58088
GHOST: No ghost state for L =  0
GHOST: No ghost state for L =  1
GHOST: No ghost state for L =  2
GHOST: No ghost state for L =  3

KBgen: Kleinman-Bylander projectors: 
   l= 0   rc=  1.704034   el= -1.009801   Ekb=  5.335044   kbcos=  0.316824
   l= 1   rc=  1.704034   el= -0.388707   Ekb= -3.785862   kbcos= -0.366464
   l= 2   rc=  1.791422   el=  0.001971   Ekb= -0.970471   kbcos= -0.009212
   l= 3   rc=  1.859892   el=  0.003065   Ekb= -0.399525   kbcos= -0.001223

KBgen: Total number of  Kleinman-Bylander projectors:   16
atom: -------------------------------------------------------------------------

atom: SANKEY-TYPE ORBITALS:
atom: Selected multiple-zeta basis: split     

SPLIT: Orbitals with angular momentum L= 0

SPLIT: Basis orbitals for state 2s

SPLIT: PAO cut-off radius determined from an
SPLIT: energy shift=  0.007350 Ry

   izeta = 1
                 lambda =    1.000000
                     rc =    4.632753
                 energy =   -1.002270
                kinetic =    0.855760
    potential(screened) =   -1.858031
       potential(ionic) =   -5.417575

   izeta = 2
                 rmatch =    3.431921
              splitnorm =    0.150000
                 energy =   -0.867111
                kinetic =    1.300804
    potential(screened) =   -2.167915
       potential(ionic) =   -5.962684

SPLIT: Orbitals with angular momentum L= 1

SPLIT: Basis orbitals for state 2p

SPLIT: PAO cut-off radius determined from an
SPLIT: energy shift=  0.007350 Ry

   izeta = 1
                 lambda =    1.000000
                     rc =    5.658549
                 energy =   -0.381140
                kinetic =    2.399701
    potential(screened) =   -2.780841
       potential(ionic) =   -6.206085

   izeta = 2
                 rmatch =    3.653288
              splitnorm =    0.150000
                 energy =   -0.249149
                kinetic =    3.542762
    potential(screened) =   -3.791911
       potential(ionic) =   -7.581078

POLgen: Perturbative polarization orbital with L=  2

POLgen: Polarization orbital for state 2p

   izeta = 1
                     rc =    5.658549
                 energy =    1.109913
                kinetic =    2.304789
    potential(screened) =   -1.194876
       potential(ionic) =   -4.013592
atom: Total number of Sankey-type orbitals: 13

atm_pop: Valence configuration (for local Pseudopot. screening):
 2s( 2.00)                                                            
 2p( 2.00)                                                            
Vna: chval, zval:    4.00000   4.00000

Vna:  Cut-off radius for the neutral-atom potential:   5.658549
comcore: Pseudo-core radius Rcore=  1.791422

atom: _________________________________________________________________________

prinput: Basis input ----------------------------------------------------------

PAO.BasisType split     

%block ChemicalSpeciesLabel
    1    7 N                       # Species index, atomic number, species label
    2    6 C                       # Species index, atomic number, species label
%endblock ChemicalSpeciesLabel

%block PAO.Basis                 # Define Basis set
N                     2                    # Species label, number of l-shells
 n=2   0   2                         # n, l, Nzeta 
   4.071      2.905   
   1.000      1.000   
 n=2   1   2 P   1                   # n, l, Nzeta, Polarization, NzetaPol
   4.973      3.054   
   1.000      1.000   
C                     2                    # Species label, number of l-shells
 n=2   0   2                         # n, l, Nzeta 
   4.633      3.432   
   1.000      1.000   
 n=2   1   2 P   1                   # n, l, Nzeta, Polarization, NzetaPol
   5.659      3.653   
   1.000      1.000   
%endblock PAO.Basis

prinput: ----------------------------------------------------------------------

coor:   Atomic-coordinates input format  =     Fractional

siesta: Atomic coordinates (Bohr) and species
siesta:     -0.02582   2.59549   0.00000  1        1
siesta:     -0.02582   5.28395   0.00000  1        2
siesta:     -4.68258  34.85847   0.00000  1        3
siesta:     -4.68258  37.54693   0.00000  1        4
siesta:      2.30256   6.62836   0.00000  1        5
siesta:      2.30256   9.31683   0.00000  1        6
siesta:     11.61608  22.75985   0.00000  1        7
siesta:     -2.35420   6.62836   0.00000  1        8
siesta:     -2.35420   9.31683   0.00000  1        9
siesta:     -0.02582  10.66124   0.00000  1       10
siesta:     -0.02582  13.34970   0.00000  1       11
siesta:     -2.35420  14.69411   0.00000  1       12
siesta:     -2.35420  17.38257   0.00000  1       13
siesta:     -0.02582  18.72698   0.00000  1       14
siesta:     -0.02582  21.41544   0.00000  1       15
siesta:     -4.68258  18.72698   0.00000  1       16
siesta:     -4.68258  21.41544   0.00000  1       17
siesta:     -2.35420  22.75985   0.00000  1       18
siesta:     -2.35420  25.44831   0.00000  1       19
siesta:     -4.68258  26.79272   0.00000  1       20
siesta:     -4.68258  29.48119   0.00000  1       21
siesta:     -2.35420  30.82560   0.00000  1       22
siesta:     -2.35420  33.51406   0.00000  1       23
siesta:     -7.01096  30.82560   0.00000  1       24
siesta:     -7.01096  33.51406   0.00000  1       25
siesta:     -0.02582  45.61267   0.00000  1       26
siesta:     -2.35420  38.89134   0.00000  2       27
siesta:     -2.35420  41.57980   0.00000  2       28
siesta:      2.30256  38.89134   0.00000  2       29
siesta:      2.30256  41.57980   0.00000  2       30
siesta:      4.63094  34.85847   0.00000  2       31
siesta:      4.63094  37.54693   0.00000  2       32
siesta:      6.95932  30.82560   0.00000  2       33
siesta:      6.95932  33.51406   0.00000  2       34
siesta:      9.28770  26.79272   0.00000  2       35
siesta:      9.28770  29.48119   0.00000  2       36
siesta:      4.63094  10.66124   0.00000  2       37
siesta:      4.63094  13.34970   0.00000  2       38
siesta:      6.95932  14.69411   0.00000  2       39
siesta:      6.95932  17.38257   0.00000  2       40
siesta:      9.28770  18.72698   0.00000  2       41
siesta:      9.28770  21.41544   0.00000  2       42
siesta:     11.61608  25.44831   0.00000  2       43
siesta:      2.30256  14.69411   0.00000  2       44
siesta:      2.30256  17.38257   0.00000  2       45
siesta:      4.63094  18.72698   0.00000  2       46
siesta:      4.63094  21.41544   0.00000  2       47
siesta:      6.95932  22.75985   0.00000  2       48
siesta:      6.95932  25.44831   0.00000  2       49
siesta:     -4.68258  10.66124   0.00000  2       50
siesta:     -4.68258  13.34970   0.00000  2       51
siesta:      2.30256  22.75985   0.00000  2       52
siesta:      2.30256  25.44831   0.00000  2       53
siesta:     -7.01096  14.69411   0.00000  2       54
siesta:     -7.01096  17.38257   0.00000  2       55
siesta:     -9.33934  18.72698   0.00000  2       56
siesta:     -9.33934  21.41544   0.00000  2       57
siesta:     -7.01096  22.75985   0.00000  2       58
siesta:     -7.01096  25.44831   0.00000  2       59
siesta:    -11.66772  22.75985   0.00000  2       60
siesta:    -11.66772  25.44831   0.00000  2       61
siesta:     -9.33934  26.79272   0.00000  2       62
siesta:     -9.33934  29.48119   0.00000  2       63
siesta:      4.63094  26.79272   0.00000  2       64
siesta:      4.63094  29.48119   0.00000  2       65
siesta:     -0.02582  26.79272   0.00000  2       66
siesta:     -0.02582  29.48119   0.00000  2       67
siesta:      2.30256  30.82560   0.00000  2       68
siesta:      2.30256  33.51406   0.00000  2       69
siesta:     -0.02582  34.85847   0.00000  2       70
siesta:     -0.02582  37.54693   0.00000  2       71
siesta:     -0.02582  42.92421   0.00000  2       72

siesta: System type = slab      

initatomlists: Number of atoms, orbitals, and projectors:     72   936  1152

siesta: ******************** Simulation parameters ****************************
siesta:
siesta: The following are some of the parameters of the simulation.
siesta: A complete list of the parameters used, including default values,
siesta: can be found in file out.fdf
siesta:
redata: Non-Collinear-spin run           =     F
redata: SpinPolarized (Up/Down) run      =     F
redata: Number of spin components        =     1
redata: Long output                      =     F
redata: Number of Atomic Species         =        2
redata: Charge density info will appear in .RHO file
redata: Write Mulliken Pop.              =     NO
redata: Mesh Cutoff                      =   200.0000  Ry
redata: Net charge of the system         =     0.0000 |e|
redata: Max. number of SCF Iter          =      500
redata: SCF convergence failure will abort job
redata: Performing Pulay mixing using    =    10 iterations
redata: Mix DM in first SCF step ?       =     F
redata: Write Pulay info on disk?        =     F
redata: Discard 1st Pulay DM after  kick =     F
redata: New DM Mixing Weight             =     0.0500
redata: New DM Occupancy tolerance       = 0.000000000001
redata: No kicks to SCF
redata: DM Mixing Weight for Kicks       =     0.5000
redata: DM Tolerance for SCF             =     0.000100
redata: Require Energy convergence for SCF =     F
redata: DM Energy tolerance for SCF      =     0.000100 eV
redata: Require Harris convergence for SCF =     F
redata: DM Harris energy tolerance for SCF =     0.000100 eV
redata: Using Saved Data (generic)   =     F
redata: Use continuation files for DM    =     T
redata: Neglect nonoverlap interactions  =     F
redata: Method of Calculation            =     Diagonalization
redata: Divide and Conquer               =     T
redata: Electronic Temperature           =     0.0019  Ry
redata: Fix the spin of the system       =     F
redata: Dynamics option                  =     Verlet MD run
redata: Initial MD time step             =        1
redata:   Final MD time step             =        1
redata: Length of MD time step           =     1.0000  fs
redata: Initial Temperature of MD run    =     0.0000  K
redata: Perform a MD quench              =     F
redata: ***********************************************************************
Total number of electrons:   314.000000
Total ionic charge:   314.000000

* ProcessorY, Blocksize:    2  24

k-point displ. along   1 input, could be:     0.50    0.00
k-point displ. along   2 input, could be:     0.50    0.00
 Kpoints in:          231 . Kpoints trimmed:          231

siesta: k-grid: Number of k-points =   231
siesta: k-grid: Cutoff (effective) =     5.000 Ang
siesta: k-grid: Supercell and displacements
siesta: k-grid:   21   0   0      0.500
siesta: k-grid:    0  21   0      0.500
siesta: k-grid:    0   0   1      0.000
Naive supercell factors:     2    2    2

superc: Internal auxiliary supercell:     2 x     2 x     2  =       8
superc: Number of atoms, orbitals, and projectors:    576   7488   9216

* Maximum dynamic memory allocated =     4 MB

siesta:                 ==============================
                            Begin MD step =      1
                        ==============================

superc: Internal auxiliary supercell:     2 x     2 x     2  =       8
superc: Number of atoms, orbitals, and projectors:    576   7488   9216

outcell: Unit cell vectors (Ang):
       12.804619    7.392750    0.000000
        0.000000   14.785500    0.000000
        0.000000    0.000000   10.000000

outcell: Cell vector modules (Ang)   :   14.785500   14.785500   10.000000
outcell: Cell angles (23,13,12) (deg):     90.0000     90.0000     60.0000
outcell: Cell volume (Ang**3)        :   1893.2269
New_DM. Step:     1
Initializing Density Matrix...

InitMesh: MESH =   120 x   120 x    90 =     1296000
InitMesh: Mesh cutoff (required, used) =   200.000   223.865 Ry

* Maximum dynamic memory allocated =   178 MB

stepf: Fermi-Dirac step function

siesta: Program's energy decomposition (eV):
siesta: Ebs     =     -6461.065852
siesta: Eions   =     22582.429020
siesta: Ena     =      5018.476705
siesta: Ekin    =      8560.167659
siesta: Enl     =      -148.946889
siesta: DEna    =        -0.000015
siesta: DUscf   =         0.000000
siesta: DUext   =         0.000000
siesta: Exc     =     -4838.773038
siesta: eta*DQ  =         0.000000
siesta: Emadel  =         0.000000
siesta: Emeta   =         0.000000
siesta: Emolmec =         0.000000
siesta: Ekinion =         0.000000
siesta: Eharris =    -13551.312560
siesta: Etot    =    -13991.504598
siesta: FreeEng =    -13991.504598

siesta: iscf   Eharris(eV)      E_KS(eV)   FreeEng(eV)   dDmax  Ef(eV)
siesta:    1   -13551.3126   -13991.5046   -13991.5046  6.2152 -6.5270
timer: Routine,Calls,Time,% = IterSCF        1    4078.229  99.72
elaps: Routine,Calls,Wall,% = IterSCF        1     510.351  99.72
siesta:    2   -17309.1953   -12982.2712   -12982.3120 15.1394 -3.6484
siesta:    3   -13456.7659   -13794.5483   -13794.5834  2.5179 -5.0380
siesta:    4   -13431.9175   -13612.9847   -13613.0576  0.9959 -4.3760
siesta:    5   -13399.8173   -13517.7440   -13517.8030  0.8910 -3.8639
siesta:    6   -13397.0480   -13502.3495   -13502.3912  0.8089 -3.7692
siesta:    7   -13395.3130   -13491.9910   -13492.0464  0.7985 -3.7715
siesta:    8   -13393.9274   -13438.6303   -13438.6974  0.5119 -3.7452
siesta:    9   -13392.7393   -13428.7937   -13428.8364  0.4767 -3.7669
siesta:   10   -13391.5475   -13409.6688   -13409.7386  0.3055 -3.7350
siesta:   11   -13391.6109   -13390.8867   -13390.9665  0.2285 -3.6941
siesta:   12   -13391.5642   -13382.2749   -13382.3195  0.3148 -3.6955
siesta:   13   -13391.0980   -13378.9930   -13379.0583  0.1197 -3.7000
siesta:   14   -13390.9254   -13380.6410   -13380.7111  0.1071 -3.7264
siesta:   15   -13390.8307   -13381.2773   -13381.3420  0.0888 -3.7396
siesta:   16   -13390.7589   -13383.0636   -13383.1245  0.0685 -3.7544
siesta:   17   -13390.7289   -13383.7649   -13383.8322  0.0391 -3.7488
siesta:   18   -13390.7227   -13384.9260   -13384.9949  0.0309 -3.7463
siesta:   19   -13390.7204   -13386.6610   -13386.7300  0.0244 -3.7462
siesta:   20   -13390.7190   -13388.5991   -13388.6674  0.0128 -3.7478
siesta:   21   -13390.7164   -13389.6544   -13389.7218  0.0097 -3.7507
siesta:   22   -13390.7152   -13389.8630   -13389.9312  0.0066 -3.7506
siesta:   23   -13390.7142   -13390.1188   -13390.1871  0.0050 -3.7496
siesta:   24   -13390.7143   -13390.3884   -13390.4572  0.0045 -3.7492
siesta:   25   -13390.7143   -13390.4947   -13390.5632  0.0028 -3.7480
siesta:   26   -13390.7144   -13390.5916   -13390.6600  0.0022 -3.7477
siesta:   27   -13390.7144   -13390.5898   -13390.6581  0.0015 -3.7474
siesta:   28   -13390.7144   -13390.5953   -13390.6635  0.0008 -3.7473
siesta:   29   -13390.7144   -13390.5936   -13390.6618  0.0006 -3.7474
siesta:   30   -13390.7143   -13390.6260   -13390.6943  0.0005 -3.7475
siesta:   31   -13390.7143   -13390.6446   -13390.7130  0.0003 -3.7477
siesta:   32   -13390.7143   -13390.6628   -13390.7311  0.0003 -3.7477
siesta:   33   -13390.7144   -13390.6889   -13390.7572  0.0003 -3.7478
siesta:   34   -13390.7144   -13390.6895   -13390.7578  0.0002 -3.7478
siesta:   35   -13390.7144   -13390.7154   -13390.7836  0.0001 -3.7478

siesta: E_KS(eV) =           -13390.7136

siesta: E_KS - E_eggbox =    -13390.7136

siesta: Atomic forces (eV/Ang):
----------------------------------------
   Tot   -0.162361   -0.103346    0.000000
----------------------------------------
   Max  783.931616
   Res  193.840307    sqrt( Sum f_i^2 / 3N )
----------------------------------------
   Max  783.931616    constrained

Stress-tensor-Voigt (kbar):     -656.23    -3522.88       -0.10       10.57        0.00        0.00
(Free)E + p*V (eV/cell)   -11744.6668
Target enthalpy (eV/cell)   -13390.7818

siesta: Stress tensor (static) (eV/Ang**3):
        -0.409583    0.006599    0.000000
         0.006599   -2.198783    0.000000
         0.000000    0.000000   -0.000061

siesta: Pressure (static):       1393.06892080  kBar

siesta: Stress tensor (total) (eV/Ang**3):
        -0.409583    0.006599    0.000000
         0.006599   -2.198783    0.000000
         0.000000    0.000000   -0.000061

siesta: Pressure (total):       1393.06892080  kBar

siesta: Temp_ion =       0.000 K

* Maximum dynamic memory allocated =   194 MB
Computing bands...

siesta: Program's energy decomposition (eV):
siesta: Ebs     =     -5217.408386
siesta: Eions   =     22582.429020
siesta: Ena     =      5018.476705
siesta: Ekin    =     11868.074924
siesta: Enl     =     -1936.379452
siesta: DEna    =      -849.006158
siesta: DUscf   =       116.708958
siesta: DUext   =         0.000000
siesta: Exc     =     -5026.159517
siesta: eta*DQ  =         0.000000
siesta: Emadel  =         0.000000
siesta: Emeta   =         0.000000
siesta: Emolmec =         0.000000
siesta: Ekinion =         0.000000
siesta: Eharris =    -13390.714358
siesta: Etot    =    -13390.713561
siesta: FreeEng =    -13390.781846

siesta: Final energy (eV):
siesta:  Band Struct. =   -5217.408386
siesta:       Kinetic =   11868.074924
siesta:       Hartree =   38961.570181
siesta:    Ext. field =       0.000000
siesta:   Exch.-corr. =   -5026.159517
siesta:  Ion-electron =  -89281.572321
siesta:       Ion-ion =   30087.373173
siesta:       Ekinion =       0.000000
siesta:         Total =  -13390.713561

siesta: Atomic forces (eV/Ang):
siesta:      1    0.289077  646.010892    0.000000
siesta:      2    0.624742 -114.598280    0.000000
siesta:      3  -32.363157    6.848372    0.000000
siesta:      4  -15.783105 -652.510404    0.000000
siesta:      5   21.437218  660.599216    0.000000
siesta:      6    1.129625 -105.070556    0.000000
siesta:      7   -0.448263    5.427850    0.000000
siesta:      8  -26.582352  747.798058    0.000000
siesta:      9    3.585376 -111.921135    0.000000
siesta:     10   -4.002758  667.568743    0.000000
siesta:     11    3.588115 -108.401444    0.000000
siesta:     12   -5.072307  677.519088    0.000000
siesta:     13  -41.221324  -10.068989    0.000000
siesta:     14   11.425146  783.931616    0.000000
siesta:     15    1.256997   -2.103751    0.000000
siesta:     16   -1.636488    1.588889    0.000000
siesta:     17   -0.829877    0.800046    0.000000
siesta:     18   -2.041882    0.903280    0.000000
siesta:     19   -1.317558    2.077198    0.000000
siesta:     20    0.213799    0.074887    0.000000
siesta:     21   -0.373172   -2.105212    0.000000
siesta:     22  -32.518547    0.892638    0.000000
siesta:     23    4.026727 -775.242827    0.000000
siesta:     24   -5.167529    0.274644    0.000000
siesta:     25   -0.227612   -3.193354    0.000000
siesta:     26    4.926662 -742.568190    0.000000
siesta:     27    2.541000  117.340167    0.000000
siesta:     28  -17.730163 -656.215772    0.000000
siesta:     29    0.850124  120.857006    0.000000
siesta:     30   -2.061654 -549.254508    0.000000
siesta:     31   27.272444    2.941995    0.000000
siesta:     32   18.172914 -551.526673    0.000000
siesta:     33    1.921943    0.173287    0.000000
siesta:     34   -3.065658    1.253973    0.000000
siesta:     35    1.625558    2.833050    0.000000
siesta:     36   -1.330491   -0.361156    0.000000
siesta:     37   32.687146  555.069196    0.000000
siesta:     38   27.825413   -4.142978    0.000000
siesta:     39   -2.714850   -1.752449    0.000000
siesta:     40    1.990755    0.092362    0.000000
siesta:     41   -0.980360    0.695647    0.000000
siesta:     42    1.785487   -0.948653    0.000000
siesta:     43    0.042880   -7.370402    0.000000
siesta:     44   21.790922  561.049989    0.000000
siesta:     45   26.421625  -10.001254    0.000000
siesta:     46   -0.949629    3.172493    0.000000
siesta:     47   -0.617059   -0.765605    0.000000
siesta:     48    0.204999    0.772485    0.000000
siesta:     49   -0.283083   -0.657649    0.000000
siesta:     50  -36.793173  660.328388    0.000000
siesta:     51  -27.291748   -8.553269    0.000000
siesta:     52    0.760576    0.999813    0.000000
siesta:     53   -0.942715   -1.325042    0.000000
siesta:     54    2.034089   -0.094570    0.000000
siesta:     55   -1.673035   -0.613987    0.000000
siesta:     56    0.801213   -0.357608    0.000000
siesta:     57   -1.412000   -1.960787    0.000000
siesta:     58    1.596693    1.124761    0.000000
siesta:     59    0.547960   -1.287234    0.000000
siesta:     60    0.233022    6.695426    0.000000
siesta:     61    0.181847   -6.104065    0.000000
siesta:     62   -0.649572    1.723257    0.000000
siesta:     63    2.147292    2.695724    0.000000
siesta:     64    0.690253    0.162929    0.000000
siesta:     65   -1.515635   -3.007655    0.000000
siesta:     66   -0.464018    0.588565    0.000000
siesta:     67   12.703908 -685.718285    0.000000
siesta:     68   23.684113    1.130348    0.000000
siesta:     69    0.166199 -684.525525    0.000000
siesta:     70    7.600115  116.940536    0.000000
siesta:     71   -2.783504 -673.685525    0.000000
siesta:     72    1.897944  116.954633    0.000000
siesta: ----------------------------------------
siesta:    Tot   -0.162361   -0.103346    0.000000

siesta: Stress tensor (static) (eV/Ang**3):
siesta:    -0.409583    0.006599    0.000000
siesta:     0.006599   -2.198783    0.000000
siesta:     0.000000    0.000000   -0.000061

siesta: Cell volume =       1893.226884 Ang**3

siesta: Pressure (static):
siesta:                Solid            Molecule  Units
siesta:           0.00946970          0.15563014  Ry/Bohr**3
siesta:           0.86947583         14.28942997  eV/Ang**3
siesta:        1393.06892080      22894.43826915  kBar
(Free)E+ p_basis*V_orbitals  =      -13363.761282
(Free)Eharris+ p_basis*V_orbitals  =      -13363.760289

siesta: Electric dipole (a.u.)  =    0.000000    0.000000    0.000000
siesta: Electric dipole (Debye) =    0.000000    0.000000    0.000000

* Maximum dynamic memory allocated : Node    0 =   194 MB
* Maximum dynamic memory allocated : Node    1 =    69 MB
* Maximum dynamic memory allocated : Node    2 =    71 MB
* Maximum dynamic memory allocated : Node    3 =   185 MB
* Maximum dynamic memory allocated : Node    4 =   185 MB
* Maximum dynamic memory allocated : Node    5 =    70 MB
* Maximum dynamic memory allocated : Node    6 =    71 MB
* Maximum dynamic memory allocated : Node    7 =   170 MB

* Maximum memory occured during matrixMtoO                    

timer: CPU execution times:
timer:  Routine       Calls   Time/call    Tot.time        %
timer:  siesta            1  141090.450  141090.450   100.00
timer:  Setup             1       3.058       3.058     0.00
timer:  bands             3     268.561     805.684     0.57
timer:  writewave         1       0.019       0.019     0.00
timer:  KSV_init          1       0.003       0.003     0.00
timer:  IterMD            1  140275.823  140275.823    99.42
timer:  hsparse           1       0.237       0.237     0.00
timer:  overlap           1       7.702       7.702     0.01
timer:  IterSCF          35    4003.386  140118.520    99.31
timer:  kinefsm           2       3.947       7.894     0.01
timer:  nlefsm            2      18.368      36.737     0.03
timer:  DHSCF            36      80.525    2898.883     2.05
timer:  DHSCF1            1       0.769       0.769     0.00
timer:  DHSCF2            1      32.489      32.489     0.02
timer:  REORD           290       0.010       2.880     0.00
timer:  POISON           37       2.254      83.400     0.06
timer:  DHSCF3           36      78.759    2835.327     2.01
timer:  rhoofd           36      15.652     563.468     0.40
timer:  cellXC           36       3.473     125.025     0.09
timer:  vmat             36      37.607    1353.868     0.96
timer:  MolMec            2       0.000       0.000     0.00
timer:  diagon           35    3921.669  137258.417    97.28
timer:  c-eigval       8206       6.661   54664.070    38.74
timer:  c-buildHS      8206       0.114     932.980     0.66
timer:  cdiag         16291       6.818  111069.148    78.72
timer:  cdiag1        16291       0.426    6939.885     4.92
timer:  cdiag2        16291       1.907   31067.897    22.02
timer:  cdiag3        16291       3.939   64177.883    45.49
timer:  cdiag4        16291       0.204    3327.893     2.36
timer:  c-eigvec       8085       7.162   57905.323    41.04
timer:  c-buildD       8085       3.148   25450.127    18.04
timer:  DHSCF4            1      28.389      28.389     0.02
timer:  dfscf             1      26.598      26.598     0.02
timer:  overfsm           1       0.400       0.400     0.00
timer:  optical           1       5.143       5.143     0.00
  

elaps: ELAPSED times:
elaps:  Routine       Calls   Time/call    Tot.time        %
elaps:  siesta            1   17654.969   17654.969   100.00
elaps:  Setup             1       0.382       0.382     0.00
elaps:  bands             3      33.621     100.863     0.57
elaps:  writewave         1       0.002       0.002     0.00
elaps:  KSV_init          1       0.000       0.000     0.00
elaps:  IterMD            1   17553.046   17553.046    99.42
elaps:  hsparse           1       0.028       0.028     0.00
elaps:  overlap           1       0.967       0.967     0.01
elaps:  IterSCF          35     500.953   17533.369    99.31
elaps:  kinefsm           2       0.497       0.994     0.01
elaps:  nlefsm            2       2.352       4.705     0.03
elaps:  DHSCF            36      10.177     366.387     2.08
elaps:  DHSCF1            1       0.097       0.097     0.00
elaps:  DHSCF2            1       4.065       4.065     0.02
elaps:  REORD           290       0.001       0.393     0.00
elaps:  POISON           37       0.282      10.435     0.06
elaps:  DHSCF3           36       9.853     354.722     2.01
elaps:  rhoofd           36       4.306     155.011     0.88
elaps:  cellXC           36       0.434      15.612     0.09
elaps:  vmat             36       4.705     169.367     0.96
elaps:  MolMec            2       0.000       0.000     0.00
elaps:  diagon           35     490.740   17175.917    97.29
elaps:  c-eigval       8206       0.833    6839.438    38.74
elaps:  c-buildHS      8206       0.015     126.180     0.71
elaps:  cdiag         16291       0.846   13779.453    78.05
elaps:  cdiag1        16291       0.053     860.593     4.87
elaps:  cdiag2        16291       0.239    3887.427    22.02
elaps:  cdiag3        16291       0.494    8040.627    45.54
elaps:  cdiag4        16291       0.026     422.684     2.39
elaps:  c-eigvec       8085       0.887    7171.130    40.62
elaps:  c-buildD       8085       0.403    3259.371    18.46
elaps:  DHSCF4            1       7.240       7.240     0.04
elaps:  dfscf             1       6.862       6.862     0.04
elaps:  overfsm           1       0.051       0.051     0.00
elaps:  optical           1       0.000       0.000     0.00
  
>> End of run:  20-APR-2016   6:41:05
