Siesta Version:                                        siesta-3.2-pl-3
Architecture  : x86_64-unknown-linux-gnu--unknown
Compiler flags: mpiifort -g -O2 -fPIC -xSSE4.1 -fp-model source -shared-intel 
PARALLEL version

* Running on   12 nodes in parallel
>> Start of run:   6-MAY-2016  15:59:28

                           ***********************       
                           *  WELCOME TO SIESTA  *       
                           ***********************       

reinit: Reading from standard input
************************** Dump of input data file ****************************
#(1) General system descriptors
SystemName            GRP_doping    # Descriptive name of the system
SystemLabel           GRP_doping    # Short name for naming files
%include STRUCT.fdf
%include KPT.fdf
%include BASIS.fdf
#%include TS.fdf # for transiesta calculation
#(4) DFT, Grid, SCF
XC.functional         GGA           # LDA or GGA (default = LDA)
XC.authors            PBE           # CA (Ceperley-Aldr) = PZ
                                    #    (Perdew-Zunger) - LDA - Default
                                    # PW92 (Perdew-Wang-92) - LDA
                                    # PBE (Perdew-Burke-Ernzerhof) - GGA
MeshCutoff            200.000000    Ry      # Default: 50.0 Ry ~ 0.444 Bohr
                                    #         100.0 Ry ~ 0.314 Bohr
MaxSCFIterations      500           # Default: 50
DM.MixingWeight       0.05          # Default: 0.25
DM.NumberPulay        10            # Default: 0
DM.PulayOnFile        F             # SystemLabel.P1, SystemLabel.P2
DM.Tolerance          1.d-4         # Default: 1.d-4
DM.UseSaveDM          .true.        # because of the bug
SCFMustConverge       .true.
NeglNonOverlapInt     F             # Default: F
#(5) Eigenvalue problem: order-N or diagonalization
SolutionMethod        Diagon        # or Transiesta
ElectronicTemperature 300.0 K       # Default: 300.0 K
#(6) Molecular dynamics and relaxations
#MD.TypeOfRun          CG            # Type of dynamics:
#MD.VariableCell       F
#MD.NumCGsteps         0           # 0 for single-point / 100 for gopt
#MD.MaxCGDispl         0.2 Bohr      # Default: 0.2 Bohr
#MD.MaxForceTol        0.02 eV/Ang   # Default: 0.04 eV/Ang
#MD.MaxStressTol       1.0 GPa       # Default: 1.0 GPa
# Geometry Constraints
#%block GeometryConstraints
#	position from 1 to 44
#%endblock GeometryConstraints
BandLinesScale   pi/a
%block BandLines
 1   0.00000000  0.00000000  0.00000000
50   0.00000000  0.07809418  0.00000000
50   0.04509075  0.07809242  0.00000000
20   0.00000000  0.00000000  0.00000000
%endblock BandLines
************************** End of input data file *****************************

reinit: -----------------------------------------------------------------------
reinit: System Name: GRP_doping
reinit: -----------------------------------------------------------------------
reinit: System Label: GRP_doping                                                  
reinit: -----------------------------------------------------------------------

initatom: Reading input for the pseudopotentials and atomic orbitals ----------
 Species number:            1  Label: N Atomic number:           7
 Species number:            2  Label: C Atomic number:           6
Ground state valence configuration:   2s02  2p03
Reading pseudopotential information in formatted form from N.psf

Valence configuration for pseudopotential generation:
2s( 2.00) rc: 1.48
2p( 3.00) rc: 1.48
3d( 0.00) rc: 1.48
4f( 0.00) rc: 1.48
Ground state valence configuration:   2s02  2p02
Reading pseudopotential information in formatted form from C.psf

Valence configuration for pseudopotential generation:
2s( 2.00) rc: 1.54
2p( 2.00) rc: 1.54
3d( 0.00) rc: 1.54
4f( 0.00) rc: 1.54
For N, standard SIESTA heuristics set lmxkb to 3
 (one more than the basis l, including polarization orbitals).
Use PS.lmax or PS.KBprojectors blocks to override.
For C, standard SIESTA heuristics set lmxkb to 3
 (one more than the basis l, including polarization orbitals).
Use PS.lmax or PS.KBprojectors blocks to override.

<basis_specs>
===============================================================================
N                    Z=   7    Mass=  14.010        Charge= 0.17977+309
Lmxo=1 Lmxkb= 3    BasisType=split      Semic=F
L=0  Nsemic=0  Cnfigmx=2
          n=1  nzeta=2  polorb=0
            splnorm:   0.15000    
               vcte:    0.0000    
               rinn:    0.0000    
                rcs:    0.0000      0.0000    
            lambdas:    1.0000      1.0000    
L=1  Nsemic=0  Cnfigmx=2
          n=1  nzeta=2  polorb=1
            splnorm:   0.15000    
               vcte:    0.0000    
               rinn:    0.0000    
                rcs:    0.0000      0.0000    
            lambdas:    1.0000      1.0000    
-------------------------------------------------------------------------------
L=0  Nkbl=1  erefs: 0.17977+309
L=1  Nkbl=1  erefs: 0.17977+309
L=2  Nkbl=1  erefs: 0.17977+309
L=3  Nkbl=1  erefs: 0.17977+309
===============================================================================
</basis_specs>

atom: Called for N                     (Z =   7)

read_vps: Pseudopotential generation method:
read_vps: ATM3      Troullier-Martins                       
Total valence charge:    5.00000

read_vps: Pseudopotential includes a core correction:
read_vps: Pseudo-core for xc-correction

xc_check: Exchange-correlation functional:
xc_check: GGA Perdew, Burke & Ernzerhof 1996
V l=0 = -2*Zval/r beyond r=  1.4606
V l=1 = -2*Zval/r beyond r=  1.4606
V l=2 = -2*Zval/r beyond r=  1.4606
V l=3 = -2*Zval/r beyond r=  1.4606
All V_l potentials equal beyond r=  1.4606
This should be close to max(r_c) in ps generation
All pots = -2*Zval/r beyond r=  1.4606

VLOCAL1: 99.0% of the norm of Vloc inside     20.347 Ry
VLOCAL1: 99.9% of the norm of Vloc inside     46.372 Ry
atom: Maximum radius for 4*pi*r*r*local-pseudopot. charge    1.76189
atom: Maximum radius for r*vlocal+2*Zval:    1.53550
GHOST: No ghost state for L =  0
GHOST: No ghost state for L =  1
GHOST: No ghost state for L =  2
GHOST: No ghost state for L =  3

KBgen: Kleinman-Bylander projectors: 
   l= 0   rc=  1.634559   el= -1.363963   Ekb=  5.296955   kbcos=  0.335621
   l= 1   rc=  1.614250   el= -0.521451   Ekb= -5.259161   kbcos= -0.433408
   l= 2   rc=  1.718383   el=  0.001991   Ekb= -1.271464   kbcos= -0.007566
   l= 3   rc=  1.761893   el=  0.003093   Ekb= -0.494769   kbcos= -0.001015

KBgen: Total number of  Kleinman-Bylander projectors:   16
atom: -------------------------------------------------------------------------

atom: SANKEY-TYPE ORBITALS:
atom: Selected multiple-zeta basis: split     

SPLIT: Orbitals with angular momentum L= 0

SPLIT: Basis orbitals for state 2s

SPLIT: PAO cut-off radius determined from an
SPLIT: energy shift=  0.007350 Ry

   izeta = 1
                 lambda =    1.000000
                     rc =    4.071465
                 energy =   -1.356470
                kinetic =    1.176977
    potential(screened) =   -2.533447
       potential(ionic) =   -8.057990

   izeta = 2
                 rmatch =    2.905100
              splitnorm =    0.150000
                 energy =   -1.158343
                kinetic =    1.813009
    potential(screened) =   -2.971352
       potential(ionic) =   -8.901931

SPLIT: Orbitals with angular momentum L= 1

SPLIT: Basis orbitals for state 2p

SPLIT: PAO cut-off radius determined from an
SPLIT: energy shift=  0.007350 Ry

   izeta = 1
                 lambda =    1.000000
                     rc =    4.972977
                 energy =   -0.513884
                kinetic =    3.441732
    potential(screened) =   -3.955616
       potential(ionic) =   -9.287901

   izeta = 2
                 rmatch =    3.054066
              splitnorm =    0.150000
                 energy =   -0.318226
                kinetic =    5.125348
    potential(screened) =   -5.443573
       potential(ionic) =  -11.380999

POLgen: Perturbative polarization orbital with L=  2

POLgen: Polarization orbital for state 2p

   izeta = 1
                     rc =    4.972977
                 energy =    1.607437
                kinetic =    3.268125
    potential(screened) =   -1.660688
       potential(ionic) =   -5.973652
atom: Total number of Sankey-type orbitals: 13

atm_pop: Valence configuration (for local Pseudopot. screening):
 2s( 2.00)                                                            
 2p( 3.00)                                                            
Vna: chval, zval:    5.00000   5.00000

Vna:  Cut-off radius for the neutral-atom potential:   4.972977
comcore: Pseudo-core radius Rcore=  1.554824

atom: _________________________________________________________________________

<basis_specs>
===============================================================================
C                    Z=   6    Mass=  12.010        Charge= 0.17977+309
Lmxo=1 Lmxkb= 3    BasisType=split      Semic=F
L=0  Nsemic=0  Cnfigmx=2
          n=1  nzeta=2  polorb=0
            splnorm:   0.15000    
               vcte:    0.0000    
               rinn:    0.0000    
                rcs:    0.0000      0.0000    
            lambdas:    1.0000      1.0000    
L=1  Nsemic=0  Cnfigmx=2
          n=1  nzeta=2  polorb=1
            splnorm:   0.15000    
               vcte:    0.0000    
               rinn:    0.0000    
                rcs:    0.0000      0.0000    
            lambdas:    1.0000      1.0000    
-------------------------------------------------------------------------------
L=0  Nkbl=1  erefs: 0.17977+309
L=1  Nkbl=1  erefs: 0.17977+309
L=2  Nkbl=1  erefs: 0.17977+309
L=3  Nkbl=1  erefs: 0.17977+309
===============================================================================
</basis_specs>

atom: Called for C                     (Z =   6)

read_vps: Pseudopotential generation method:
read_vps: ATM3      Troullier-Martins                       
Total valence charge:    4.00000

read_vps: Pseudopotential includes a core correction:
read_vps: Pseudo-core for xc-correction

xc_check: Exchange-correlation functional:
xc_check: GGA Perdew, Burke & Ernzerhof 1996
V l=0 = -2*Zval/r beyond r=  1.5227
V l=1 = -2*Zval/r beyond r=  1.5227
V l=2 = -2*Zval/r beyond r=  1.5227
V l=3 = -2*Zval/r beyond r=  1.5038
All V_l potentials equal beyond r=  1.5227
This should be close to max(r_c) in ps generation
All pots = -2*Zval/r beyond r=  1.5227

VLOCAL1: 99.0% of the norm of Vloc inside     18.722 Ry
VLOCAL1: 99.9% of the norm of Vloc inside     42.668 Ry
atom: Maximum radius for 4*pi*r*r*local-pseudopot. charge    1.83678
atom: Maximum radius for r*vlocal+2*Zval:    1.58088
GHOST: No ghost state for L =  0
GHOST: No ghost state for L =  1
GHOST: No ghost state for L =  2
GHOST: No ghost state for L =  3

KBgen: Kleinman-Bylander projectors: 
   l= 0   rc=  1.704034   el= -1.009801   Ekb=  5.335044   kbcos=  0.316824
   l= 1   rc=  1.704034   el= -0.388707   Ekb= -3.785862   kbcos= -0.366464
   l= 2   rc=  1.791422   el=  0.001971   Ekb= -0.970471   kbcos= -0.009212
   l= 3   rc=  1.859892   el=  0.003065   Ekb= -0.399525   kbcos= -0.001223

KBgen: Total number of  Kleinman-Bylander projectors:   16
atom: -------------------------------------------------------------------------

atom: SANKEY-TYPE ORBITALS:
atom: Selected multiple-zeta basis: split     

SPLIT: Orbitals with angular momentum L= 0

SPLIT: Basis orbitals for state 2s

SPLIT: PAO cut-off radius determined from an
SPLIT: energy shift=  0.007350 Ry

   izeta = 1
                 lambda =    1.000000
                     rc =    4.632753
                 energy =   -1.002270
                kinetic =    0.855760
    potential(screened) =   -1.858031
       potential(ionic) =   -5.417575

   izeta = 2
                 rmatch =    3.431921
              splitnorm =    0.150000
                 energy =   -0.867111
                kinetic =    1.300804
    potential(screened) =   -2.167915
       potential(ionic) =   -5.962684

SPLIT: Orbitals with angular momentum L= 1

SPLIT: Basis orbitals for state 2p

SPLIT: PAO cut-off radius determined from an
SPLIT: energy shift=  0.007350 Ry

   izeta = 1
                 lambda =    1.000000
                     rc =    5.658549
                 energy =   -0.381140
                kinetic =    2.399701
    potential(screened) =   -2.780841
       potential(ionic) =   -6.206085

   izeta = 2
                 rmatch =    3.653288
              splitnorm =    0.150000
                 energy =   -0.249149
                kinetic =    3.542762
    potential(screened) =   -3.791911
       potential(ionic) =   -7.581078

POLgen: Perturbative polarization orbital with L=  2

POLgen: Polarization orbital for state 2p

   izeta = 1
                     rc =    5.658549
                 energy =    1.109913
                kinetic =    2.304789
    potential(screened) =   -1.194876
       potential(ionic) =   -4.013592
atom: Total number of Sankey-type orbitals: 13

atm_pop: Valence configuration (for local Pseudopot. screening):
 2s( 2.00)                                                            
 2p( 2.00)                                                            
Vna: chval, zval:    4.00000   4.00000

Vna:  Cut-off radius for the neutral-atom potential:   5.658549
comcore: Pseudo-core radius Rcore=  1.791422

atom: _________________________________________________________________________

prinput: Basis input ----------------------------------------------------------

PAO.BasisType split     

%block ChemicalSpeciesLabel
    1    7 N                       # Species index, atomic number, species label
    2    6 C                       # Species index, atomic number, species label
%endblock ChemicalSpeciesLabel

%block PAO.Basis                 # Define Basis set
N                     2                    # Species label, number of l-shells
 n=2   0   2                         # n, l, Nzeta 
   4.071      2.905   
   1.000      1.000   
 n=2   1   2 P   1                   # n, l, Nzeta, Polarization, NzetaPol
   4.973      3.054   
   1.000      1.000   
C                     2                    # Species label, number of l-shells
 n=2   0   2                         # n, l, Nzeta 
   4.633      3.432   
   1.000      1.000   
 n=2   1   2 P   1                   # n, l, Nzeta, Polarization, NzetaPol
   5.659      3.653   
   1.000      1.000   
%endblock PAO.Basis

prinput: ----------------------------------------------------------------------

coor:   Atomic-coordinates input format  =     Fractional

siesta: Atomic coordinates (Bohr) and species
siesta:     -2.35420  38.89134   0.00000  1        1
siesta:     -2.35420  41.57980   0.00000  1        2
siesta:      4.63094  21.41544   0.00000  1        3
siesta:     -2.35420  17.38257   0.00000  1        4
siesta:     -0.02582  18.72698   0.00000  1        5
siesta:     -0.02582  21.41544   0.00000  1        6
siesta:      2.30256  22.75985   0.00000  1        7
siesta:     -7.01096  17.38257   0.00000  1        8
siesta:     -4.68258  18.72698   0.00000  1        9
siesta:     -9.33934  18.72698   0.00000  1       10
siesta:     -9.33934  21.41544   0.00000  1       11
siesta:     -0.02582  26.79272   0.00000  1       12
siesta:     -0.02582  29.48119   0.00000  1       13
siesta:     -0.02582  34.85847   0.00000  1       14
siesta:     -0.02582  37.54693   0.00000  1       15
siesta:     -0.02582  42.92421   0.00000  1       16
siesta:     -0.02582   2.59549   0.00000  2       17
siesta:     -0.02582   5.28395   0.00000  2       18
siesta:      2.30256  38.89134   0.00000  2       19
siesta:      2.30256  41.57980   0.00000  2       20
siesta:      4.63094  34.85847   0.00000  2       21
siesta:      4.63094  37.54693   0.00000  2       22
siesta:      6.95932  30.82560   0.00000  2       23
siesta:      6.95932  33.51406   0.00000  2       24
siesta:      9.28770  26.79272   0.00000  2       25
siesta:      9.28770  29.48119   0.00000  2       26
siesta:     -4.68258  34.85847   0.00000  2       27
siesta:     -4.68258  37.54693   0.00000  2       28
siesta:      2.30256   6.62836   0.00000  2       29
siesta:      2.30256   9.31683   0.00000  2       30
siesta:      4.63094  10.66124   0.00000  2       31
siesta:      4.63094  13.34970   0.00000  2       32
siesta:      6.95932  14.69411   0.00000  2       33
siesta:      6.95932  17.38257   0.00000  2       34
siesta:      9.28770  18.72698   0.00000  2       35
siesta:      9.28770  21.41544   0.00000  2       36
siesta:     11.61608  22.75985   0.00000  2       37
siesta:     11.61608  25.44831   0.00000  2       38
siesta:     -2.35420   6.62836   0.00000  2       39
siesta:     -2.35420   9.31683   0.00000  2       40
siesta:     -0.02582  10.66124   0.00000  2       41
siesta:     -0.02582  13.34970   0.00000  2       42
siesta:      2.30256  14.69411   0.00000  2       43
siesta:      2.30256  17.38257   0.00000  2       44
siesta:      4.63094  18.72698   0.00000  2       45
siesta:      6.95932  22.75985   0.00000  2       46
siesta:      6.95932  25.44831   0.00000  2       47
siesta:     -4.68258  10.66124   0.00000  2       48
siesta:     -4.68258  13.34970   0.00000  2       49
siesta:     -2.35420  14.69411   0.00000  2       50
siesta:      2.30256  25.44831   0.00000  2       51
siesta:     -7.01096  14.69411   0.00000  2       52
siesta:     -4.68258  21.41544   0.00000  2       53
siesta:     -2.35420  22.75985   0.00000  2       54
siesta:     -2.35420  25.44831   0.00000  2       55
siesta:     -7.01096  22.75985   0.00000  2       56
siesta:     -7.01096  25.44831   0.00000  2       57
siesta:    -11.66772  22.75985   0.00000  2       58
siesta:    -11.66772  25.44831   0.00000  2       59
siesta:     -9.33934  26.79272   0.00000  2       60
siesta:     -9.33934  29.48119   0.00000  2       61
siesta:      4.63094  26.79272   0.00000  2       62
siesta:      4.63094  29.48119   0.00000  2       63
siesta:     -4.68258  26.79272   0.00000  2       64
siesta:     -4.68258  29.48119   0.00000  2       65
siesta:      2.30256  30.82560   0.00000  2       66
siesta:      2.30256  33.51406   0.00000  2       67
siesta:     -2.35420  30.82560   0.00000  2       68
siesta:     -2.35420  33.51406   0.00000  2       69
siesta:     -7.01096  30.82560   0.00000  2       70
siesta:     -7.01096  33.51406   0.00000  2       71
siesta:     -0.02582  45.61267   0.00000  2       72

siesta: System type = slab      

initatomlists: Number of atoms, orbitals, and projectors:     72   936  1152

siesta: ******************** Simulation parameters ****************************
siesta:
siesta: The following are some of the parameters of the simulation.
siesta: A complete list of the parameters used, including default values,
siesta: can be found in file out.fdf
siesta:
redata: Non-Collinear-spin run           =     F
redata: SpinPolarized (Up/Down) run      =     F
redata: Number of spin components        =     1
redata: Long output                      =     F
redata: Number of Atomic Species         =        2
redata: Charge density info will appear in .RHO file
redata: Write Mulliken Pop.              =     NO
redata: Mesh Cutoff                      =   200.0000  Ry
redata: Net charge of the system         =     0.0000 |e|
redata: Max. number of SCF Iter          =      500
redata: SCF convergence failure will abort job
redata: Performing Pulay mixing using    =    10 iterations
redata: Mix DM in first SCF step ?       =     F
redata: Write Pulay info on disk?        =     F
redata: Discard 1st Pulay DM after  kick =     F
redata: New DM Mixing Weight             =     0.0500
redata: New DM Occupancy tolerance       = 0.000000000001
redata: No kicks to SCF
redata: DM Mixing Weight for Kicks       =     0.5000
redata: DM Tolerance for SCF             =     0.000100
redata: Require Energy convergence for SCF =     F
redata: DM Energy tolerance for SCF      =     0.000100 eV
redata: Require Harris convergence for SCF =     F
redata: DM Harris energy tolerance for SCF =     0.000100 eV
redata: Using Saved Data (generic)   =     F
redata: Use continuation files for DM    =     T
redata: Neglect nonoverlap interactions  =     F
redata: Method of Calculation            =     Diagonalization
redata: Divide and Conquer               =     T
redata: Electronic Temperature           =     0.0019  Ry
redata: Fix the spin of the system       =     F
redata: Dynamics option                  =     Verlet MD run
redata: Initial MD time step             =        1
redata:   Final MD time step             =        1
redata: Length of MD time step           =     1.0000  fs
redata: Initial Temperature of MD run    =     0.0000  K
redata: Perform a MD quench              =     F
redata: ***********************************************************************
Total number of electrons:   304.000000
Total ionic charge:   304.000000

* ProcessorY, Blocksize:    3  24

k-point displ. along   1 input, could be:     0.50    0.00
k-point displ. along   2 input, could be:     0.50    0.00
 Kpoints in:          231 . Kpoints trimmed:          231

siesta: k-grid: Number of k-points =   231
siesta: k-grid: Cutoff (effective) =     5.000 Ang
siesta: k-grid: Supercell and displacements
siesta: k-grid:   21   0   0      0.500
siesta: k-grid:    0  21   0      0.500
siesta: k-grid:    0   0   1      0.000
Naive supercell factors:     2    2    2

superc: Internal auxiliary supercell:     2 x     2 x     2  =       8
superc: Number of atoms, orbitals, and projectors:    576   7488   9216

* Maximum dynamic memory allocated =     4 MB

siesta:                 ==============================
                            Begin MD step =      1
                        ==============================

superc: Internal auxiliary supercell:     2 x     2 x     2  =       8
superc: Number of atoms, orbitals, and projectors:    576   7488   9216

outcell: Unit cell vectors (Ang):
       12.804619    7.392750    0.000000
        0.000000   14.785500    0.000000
        0.000000    0.000000   10.000000

outcell: Cell vector modules (Ang)   :   14.785500   14.785500   10.000000
outcell: Cell angles (23,13,12) (deg):     90.0000     90.0000     60.0000
outcell: Cell volume (Ang**3)        :   1893.2269
New_DM. Step:     1
Initializing Density Matrix...

InitMesh: MESH =   120 x   120 x    90 =     1296000
InitMesh: Mesh cutoff (required, used) =   200.000   223.865 Ry

* Maximum dynamic memory allocated =   135 MB

stepf: Fermi-Dirac step function

siesta: Program's energy decomposition (eV):
siesta: Ebs     =     -6218.604766
siesta: Eions   =     20974.960578
siesta: Ena     =      4890.021051
siesta: Ekin    =      7720.939539
siesta: Enl     =       156.033137
siesta: DEna    =        -0.000015
siesta: DUscf   =         0.000000
siesta: DUext   =         0.000000
siesta: Exc     =     -4574.851222
siesta: eta*DQ  =         0.000000
siesta: Emadel  =         0.000000
siesta: Emeta   =         0.000000
siesta: Emolmec =         0.000000
siesta: Ekinion =         0.000000
siesta: Eharris =    -12409.295972
siesta: Etot    =    -12782.818088
siesta: FreeEng =    -12782.818088

siesta: iscf   Eharris(eV)      E_KS(eV)   FreeEng(eV)   dDmax  Ef(eV)
siesta:    1   -12409.2960   -12782.8181   -12782.8181  8.6409 -7.0078
timer: Routine,Calls,Time,% = IterSCF        1    5354.093  99.77
elaps: Routine,Calls,Wall,% = IterSCF        1     466.712  99.78
siesta:    2   -16331.5731   -11823.1412   -11823.1479 15.7754 -3.4656
siesta:    3   -12326.0693   -12560.1508   -12560.2004  2.7805 -4.8080
siesta:    4   -12295.8754   -12423.6921   -12423.6978  1.1120 -4.1181
siesta:    5   -12263.7407   -12358.3060   -12358.3082  0.8186 -3.9197
siesta:    6   -12258.7782   -12339.9318   -12339.9548  0.7530 -3.8914
siesta:    7   -12253.9355   -12321.3532   -12321.3918  0.6959 -3.9008
siesta:    8   -12252.2893   -12298.7888   -12298.8371  0.5902 -3.9118
siesta:    9   -12251.3385   -12283.4777   -12283.5278  0.5684 -3.9263
siesta:   10   -12251.1714   -12261.5163   -12261.5807  0.4158 -3.9089
siesta:   11   -12251.2802   -12248.8680   -12248.9327  0.3726 -3.9103
siesta:   12   -12251.1757   -12241.5872   -12241.6511  0.2431 -3.8734
siesta:   13   -12250.8357   -12238.6398   -12238.6924  0.1921 -3.9121
siesta:   14   -12250.3387   -12240.0234   -12240.0859  0.1238 -3.8840
siesta:   15   -12250.2139   -12238.7972   -12238.8696  0.0926 -3.9336
siesta:   16   -12250.0884   -12240.2053   -12240.2762  0.0831 -3.9405
siesta:   17   -12250.0126   -12241.4120   -12241.4963  0.0435 -3.9409
siesta:   18   -12249.9968   -12242.8731   -12242.9625  0.0309 -3.9426
siesta:   19   -12249.9901   -12245.1879   -12245.2777  0.0206 -3.9446
siesta:   20   -12249.9875   -12246.4035   -12246.4940  0.0236 -3.9438
siesta:   21   -12249.9816   -12247.9042   -12247.9956  0.0166 -3.9479
siesta:   22   -12249.9799   -12248.8431   -12248.9352  0.0104 -3.9474
siesta:   23   -12249.9800   -12249.3992   -12249.4909  0.0060 -3.9480
siesta:   24   -12249.9793   -12249.6804   -12249.7713  0.0053 -3.9464
siesta:   25   -12249.9791   -12249.6868   -12249.7780  0.0028 -3.9469
siesta:   26   -12249.9790   -12249.7709   -12249.8620  0.0031 -3.9461
siesta:   27   -12249.9788   -12249.8251   -12249.9163  0.0016 -3.9452
siesta:   28   -12249.9788   -12249.8740   -12249.9652  0.0014 -3.9447
siesta:   29   -12249.9789   -12249.9078   -12249.9990  0.0012 -3.9448
siesta:   30   -12249.9789   -12249.8956   -12249.9867  0.0008 -3.9448
siesta:   31   -12249.9789   -12249.9130   -12250.0041  0.0004 -3.9448
siesta:   32   -12249.9788   -12249.9429   -12250.0340  0.0003 -3.9448
siesta:   33   -12249.9789   -12249.9584   -12250.0495  0.0002 -3.9449
siesta:   34   -12249.9788   -12249.9627   -12250.0538  0.0002 -3.9449
siesta:   35   -12249.9789   -12249.9680   -12250.0592  0.0002 -3.9449
siesta:   36   -12249.9789   -12249.9804   -12250.0715  0.0001 -3.9449

siesta: E_KS(eV) =           -12249.9793

siesta: E_KS - E_eggbox =    -12249.9793

siesta: Atomic forces (eV/Ang):
----------------------------------------
   Tot   -0.149052    0.056882    0.000000
----------------------------------------
   Max  689.304730
   Res  176.514899    sqrt( Sum f_i^2 / 3N )
----------------------------------------
   Max  689.304730    constrained

Stress-tensor-Voigt (kbar):     -649.07    -3152.94       -0.12      -16.43        0.00        0.00
(Free)E + p*V (eV/cell)   -10752.4787
Target enthalpy (eV/cell)   -12250.0704

siesta: Stress tensor (static) (eV/Ang**3):
        -0.405116   -0.010258    0.000000
        -0.010258   -1.967888    0.000000
         0.000000    0.000000   -0.000074

siesta: Pressure (static):       1267.37703748  kBar

siesta: Stress tensor (total) (eV/Ang**3):
        -0.405116   -0.010258    0.000000
        -0.010258   -1.967888    0.000000
         0.000000    0.000000   -0.000074

siesta: Pressure (total):       1267.37703748  kBar

siesta: Temp_ion =       0.000 K

* Maximum dynamic memory allocated =   148 MB
Computing bands...

siesta: Program's energy decomposition (eV):
siesta: Ebs     =     -4967.563243
siesta: Eions   =     20974.960578
siesta: Ena     =      4890.021051
siesta: Ekin    =     10858.257847
siesta: Enl     =     -1573.588099
siesta: DEna    =      -807.470156
siesta: DUscf   =       110.078526
siesta: DUext   =         0.000000
siesta: Exc     =     -4752.317873
siesta: eta*DQ  =         0.000000
siesta: Emadel  =         0.000000
siesta: Emeta   =         0.000000
siesta: Emolmec =         0.000000
siesta: Ekinion =         0.000000
siesta: Eharris =    -12249.978855
siesta: Etot    =    -12249.979283
siesta: FreeEng =    -12250.070381

siesta: Final energy (eV):
siesta:  Band Struct. =   -4967.563243
siesta:       Kinetic =   10858.257847
siesta:       Hartree =   35427.707661
siesta:    Ext. field =       0.000000
siesta:   Exch.-corr. =   -4752.317873
siesta:  Ion-electron =  -81277.491463
siesta:       Ion-ion =   27493.864545
siesta:       Ekinion =       0.000000
siesta:         Total =  -12249.979283

siesta: Atomic forces (eV/Ang):
siesta:      1   -1.031125  105.999970    0.000000
siesta:      2  -23.668256 -657.179139    0.000000
siesta:      3    0.397616   -1.028222    0.000000
siesta:      4  -37.409445  -15.160479    0.000000
siesta:      5   14.134254  689.304730    0.000000
siesta:      6    0.449324   -4.114959    0.000000
siesta:      7    1.116015    1.806029    0.000000
siesta:      8   -0.891563   -2.272131    0.000000
siesta:      9    1.063719    4.514036    0.000000
siesta:     10   -0.201163    0.638888    0.000000
siesta:     11   -0.243985   -1.050695    0.000000
siesta:     12   -0.052732   -0.335455    0.000000
siesta:     13    0.358723 -673.208320    0.000000
siesta:     14   -0.167617  113.566473    0.000000
siesta:     15    4.491415 -659.357657    0.000000
siesta:     16   -0.884057  119.815469    0.000000
siesta:     17   -0.235275  642.317982    0.000000
siesta:     18   -0.077146 -120.593522    0.000000
siesta:     19    0.719225  129.272687    0.000000
siesta:     20   18.638435 -551.456054    0.000000
siesta:     21   26.952782    5.922301    0.000000
siesta:     22   32.774766 -551.279580    0.000000
siesta:     23    1.942402   -0.006549    0.000000
siesta:     24   -2.680999    1.845244    0.000000
siesta:     25    1.825881    1.641618    0.000000
siesta:     26   -1.494555    0.417585    0.000000
siesta:     27  -27.806100    4.598274    0.000000
siesta:     28  -32.009855 -556.026075    0.000000
siesta:     29   -0.722850  548.760738    0.000000
siesta:     30   -3.396854 -125.046514    0.000000
siesta:     31   31.669053  550.780809    0.000000
siesta:     32   25.710639   -6.569892    0.000000
siesta:     33   -2.690761   -1.550926    0.000000
siesta:     34    2.007351    0.277941    0.000000
siesta:     35   -0.772482   -0.714998    0.000000
siesta:     36    1.464689   -1.930670    0.000000
siesta:     37   -0.260292    6.809320    0.000000
siesta:     38   -0.191085   -6.977078    0.000000
siesta:     39    0.433438  548.884206    0.000000
siesta:     40   -2.220196 -122.087561    0.000000
siesta:     41  -10.705457  667.215550    0.000000
siesta:     42    4.690351 -118.611290    0.000000
siesta:     43    6.978131  555.127169    0.000000
siesta:     44   26.766089   -6.489639    0.000000
siesta:     45   -2.649610    3.487373    0.000000
siesta:     46   -0.590698    1.261728    0.000000
siesta:     47   -0.253963   -1.293879    0.000000
siesta:     48  -18.375769  552.256780    0.000000
siesta:     49  -25.346734   -4.093415    0.000000
siesta:     50   -4.626698  683.704037    0.000000
siesta:     51    1.239724    0.442106    0.000000
siesta:     52    1.209140    3.034621    0.000000
siesta:     53    0.542608   -1.180689    0.000000
siesta:     54   -0.422530   -0.045969    0.000000
siesta:     55   -0.627052    0.218396    0.000000
siesta:     56   -0.717504    0.365148    0.000000
siesta:     57    0.025733   -1.236242    0.000000
siesta:     58    1.536203    3.365012    0.000000
siesta:     59    0.373970   -6.348131    0.000000
siesta:     60   -2.160140    2.363134    0.000000
siesta:     61    1.351557    0.017465    0.000000
siesta:     62   -0.656962    0.258566    0.000000
siesta:     63   -1.353076   -3.297560    0.000000
siesta:     64    0.377936    0.374574    0.000000
siesta:     65    1.093203   -3.174575    0.000000
siesta:     66   27.208268    9.800131    0.000000
siesta:     67   24.483570 -563.839266    0.000000
siesta:     68  -27.351909    9.800150    0.000000
siesta:     69  -24.578645 -563.708501    0.000000
siesta:     70   -1.707267    0.343607    0.000000
siesta:     71    2.471866    1.297566    0.000000
siesta:     72   -5.414722 -640.584903    0.000000
siesta: ----------------------------------------
siesta:    Tot   -0.149052    0.056882    0.000000

siesta: Stress tensor (static) (eV/Ang**3):
siesta:    -0.405116   -0.010258    0.000000
siesta:    -0.010258   -1.967888    0.000000
siesta:     0.000000    0.000000   -0.000074

siesta: Cell volume =       1893.226884 Ang**3

siesta: Pressure (static):
siesta:                Solid            Molecule  Units
siesta:           0.00861528          0.13944815  Ry/Bohr**3
siesta:           0.79102598         12.80365532  eV/Ang**3
siesta:        1267.37703748      20513.93910849  kBar
(Free)E+ p_basis*V_orbitals  =      -12221.620180
(Free)Eharris+ p_basis*V_orbitals  =      -12221.618591

siesta: Electric dipole (a.u.)  =    0.000000    0.000000    0.000000
siesta: Electric dipole (Debye) =    0.000000    0.000000    0.000000

* Maximum dynamic memory allocated : Node    0 =   148 MB
* Maximum dynamic memory allocated : Node    1 =    57 MB
* Maximum dynamic memory allocated : Node    2 =    61 MB
* Maximum dynamic memory allocated : Node    3 =   136 MB
* Maximum dynamic memory allocated : Node    4 =   143 MB
* Maximum dynamic memory allocated : Node    5 =    52 MB
* Maximum dynamic memory allocated : Node    6 =    54 MB
* Maximum dynamic memory allocated : Node    7 =   134 MB
* Maximum dynamic memory allocated : Node    8 =   126 MB
* Maximum dynamic memory allocated : Node    9 =    52 MB
* Maximum dynamic memory allocated : Node   10 =    54 MB
* Maximum dynamic memory allocated : Node   11 =   121 MB

* Maximum memory occured during matrixMtoO                    

timer: CPU execution times:
timer:  Routine       Calls   Time/call    Tot.time        %
timer:  siesta            1  191260.354  191260.354   100.00
timer:  Setup             1       3.256       3.256     0.00
timer:  bands             3     418.452    1255.357     0.66
timer:  writewave         1       0.020       0.020     0.00
timer:  KSV_init          1       0.000       0.000     0.00
timer:  IterMD            1  189994.644  189994.644    99.34
timer:  hsparse           1       0.167       0.167     0.00
timer:  overlap           1       7.367       7.367     0.00
timer:  IterSCF          36    5273.893  189860.131    99.27
timer:  kinefsm           2       3.727       7.454     0.00
timer:  nlefsm            2      18.206      36.412     0.02
timer:  DHSCF            37      65.270    2415.002     1.26
timer:  DHSCF1            1       0.901       0.901     0.00
timer:  DHSCF2            1      24.295      24.295     0.01
timer:  REORD           298       0.002       0.658     0.00
timer:  POISON           38       0.617      23.455     0.01
timer:  DHSCF3           37      64.003    2368.120     1.24
timer:  rhoofd           37      12.201     451.452     0.24
timer:  cellXC           37       2.878     106.494     0.06
timer:  vmat             37      30.836    1140.915     0.60
timer:  MolMec            2       0.000       0.000     0.00
timer:  diagon           36    5206.565  187436.351    98.00
timer:  c-eigval       8437      10.356   87370.207    45.68
timer:  c-buildHS      8437       0.032     266.201     0.14
timer:  cdiag         16753      10.630  178082.730    93.11
timer:  cdiag1        16753       0.477    7984.797     4.17
timer:  cdiag2        16753       3.370   56461.071    29.52
timer:  cdiag3        16753       6.320  105876.171    55.36
timer:  cdiag4        16753       0.171    2859.830     1.50
timer:  c-eigvec       8316      10.967   91199.117    47.68
timer:  c-buildD       8316       1.212   10076.514     5.27
timer:  DHSCF4            1      21.471      21.471     0.01
timer:  dfscf             1      20.051      20.051     0.01
timer:  overfsm           1       0.277       0.277     0.00
timer:  optical           1       6.445       6.445     0.00
  

elaps: ELAPSED times:
elaps:  Routine       Calls   Time/call    Tot.time        %
elaps:  siesta            1   16670.219   16670.219   100.00
elaps:  Setup             1       0.277       0.277     0.00
elaps:  bands             3      36.501     109.504     0.66
elaps:  writewave         1       0.002       0.002     0.00
elaps:  KSV_init          1       0.000       0.000     0.00
elaps:  IterMD            1   16559.905   16559.905    99.34
elaps:  hsparse           1       0.017       0.017     0.00
elaps:  overlap           1       0.710       0.710     0.00
elaps:  IterSCF          36     459.673   16548.230    99.27
elaps:  kinefsm           2       0.373       0.745     0.00
elaps:  nlefsm            2       1.604       3.207     0.02
elaps:  DHSCF            37       5.736     212.222     1.27
elaps:  DHSCF1            1       0.077       0.077     0.00
elaps:  DHSCF2            1       2.117       2.117     0.01
elaps:  REORD           298       0.000       0.083     0.00
elaps:  POISON           38       0.055       2.093     0.01
elaps:  DHSCF3           37       5.579     206.415     1.24
elaps:  rhoofd           37       2.468      91.323     0.55
elaps:  cellXC           37       0.250       9.268     0.06
elaps:  vmat             37       2.688      99.471     0.60
elaps:  MolMec            2       0.000       0.000     0.00
elaps:  diagon           36     453.809   16337.137    98.00
elaps:  c-eigval       8437       0.903    7615.246    45.68
elaps:  c-buildHS      8437       0.003      27.779     0.17
elaps:  cdiag         16753       0.922   15443.857    92.64
elaps:  cdiag1        16753       0.041     686.169     4.12
elaps:  cdiag2        16753       0.294    4928.636    29.57
elaps:  cdiag3        16753       0.552    9249.031    55.48
elaps:  cdiag4        16753       0.014     234.517     1.41
elaps:  c-eigvec       8316       0.949    7888.084    47.32
elaps:  c-buildD       8316       0.113     937.161     5.62
elaps:  DHSCF4            1       3.576       3.576     0.02
elaps:  dfscf             1       3.320       3.320     0.02
elaps:  overfsm           1       0.029       0.029     0.00
elaps:  optical           1       0.000       0.000     0.00
  
>> End of run:   6-MAY-2016  20:37:18
