Siesta Version:                                        siesta-3.2-pl-3
Architecture  : x86_64-unknown-linux-gnu--unknown
Compiler flags: mpiifort -g -O2 -fPIC -xSSE4.1 -fp-model source -shared-intel 
PARALLEL version

* Running on    8 nodes in parallel
>> Start of run:  27-APR-2016   8:48:47

                           ***********************       
                           *  WELCOME TO SIESTA  *       
                           ***********************       

reinit: Reading from standard input
************************** Dump of input data file ****************************
#(1) General system descriptors
SystemName            GRP_doping    # Descriptive name of the system
SystemLabel           GRP_doping    # Short name for naming files
%include STRUCT.fdf
%include KPT.fdf
%include BASIS.fdf
#%include TS.fdf # for transiesta calculation
#(4) DFT, Grid, SCF
XC.functional         GGA           # LDA or GGA (default = LDA)
XC.authors            PBE           # CA (Ceperley-Aldr) = PZ
                                    #    (Perdew-Zunger) - LDA - Default
                                    # PW92 (Perdew-Wang-92) - LDA
                                    # PBE (Perdew-Burke-Ernzerhof) - GGA
MeshCutoff            200.000000    Ry      # Default: 50.0 Ry ~ 0.444 Bohr
                                    #         100.0 Ry ~ 0.314 Bohr
MaxSCFIterations      500           # Default: 50
DM.MixingWeight       0.05          # Default: 0.25
DM.NumberPulay        10            # Default: 0
DM.PulayOnFile        F             # SystemLabel.P1, SystemLabel.P2
DM.Tolerance          1.d-4         # Default: 1.d-4
DM.UseSaveDM          .true.        # because of the bug
SCFMustConverge       .true.
NeglNonOverlapInt     F             # Default: F
#(5) Eigenvalue problem: order-N or diagonalization
SolutionMethod        Diagon        # or Transiesta
ElectronicTemperature 300.0 K       # Default: 300.0 K
#(6) Molecular dynamics and relaxations
#MD.TypeOfRun          CG            # Type of dynamics:
#MD.VariableCell       F
#MD.NumCGsteps         0           # 0 for single-point / 100 for gopt
#MD.MaxCGDispl         0.2 Bohr      # Default: 0.2 Bohr
#MD.MaxForceTol        0.02 eV/Ang   # Default: 0.04 eV/Ang
#MD.MaxStressTol       1.0 GPa       # Default: 1.0 GPa
# Geometry Constraints
#%block GeometryConstraints
#	position from 1 to 44
#%endblock GeometryConstraints
BandLinesScale   pi/a
%block BandLines
 1   0.00000000  0.00000000  0.00000000
50   0.00000000  0.07809418  0.00000000
50   0.04509075  0.07809242  0.00000000
20   0.00000000  0.00000000  0.00000000
%endblock BandLines
************************** End of input data file *****************************

reinit: -----------------------------------------------------------------------
reinit: System Name: GRP_doping
reinit: -----------------------------------------------------------------------
reinit: System Label: GRP_doping                                                  
reinit: -----------------------------------------------------------------------

initatom: Reading input for the pseudopotentials and atomic orbitals ----------
 Species number:            1  Label: B Atomic number:           5
 Species number:            2  Label: C Atomic number:           6
Ground state valence configuration:   2s02  2p01
Reading pseudopotential information in formatted form from B.psf

Valence configuration for pseudopotential generation:
2s( 2.00) rc: 1.74
2p( 1.00) rc: 1.74
3d( 0.00) rc: 1.74
4f( 0.00) rc: 1.74
Ground state valence configuration:   2s02  2p02
Reading pseudopotential information in formatted form from C.psf

Valence configuration for pseudopotential generation:
2s( 2.00) rc: 1.54
2p( 2.00) rc: 1.54
3d( 0.00) rc: 1.54
4f( 0.00) rc: 1.54
For B, standard SIESTA heuristics set lmxkb to 3
 (one more than the basis l, including polarization orbitals).
Use PS.lmax or PS.KBprojectors blocks to override.
For C, standard SIESTA heuristics set lmxkb to 3
 (one more than the basis l, including polarization orbitals).
Use PS.lmax or PS.KBprojectors blocks to override.

<basis_specs>
===============================================================================
B                    Z=   5    Mass=  10.810        Charge= 0.17977+309
Lmxo=1 Lmxkb= 3    BasisType=split      Semic=F
L=0  Nsemic=0  Cnfigmx=2
          n=1  nzeta=2  polorb=0
            splnorm:   0.15000    
               vcte:    0.0000    
               rinn:    0.0000    
                rcs:    0.0000      0.0000    
            lambdas:    1.0000      1.0000    
L=1  Nsemic=0  Cnfigmx=2
          n=1  nzeta=2  polorb=1
            splnorm:   0.15000    
               vcte:    0.0000    
               rinn:    0.0000    
                rcs:    0.0000      0.0000    
            lambdas:    1.0000      1.0000    
-------------------------------------------------------------------------------
L=0  Nkbl=1  erefs: 0.17977+309
L=1  Nkbl=1  erefs: 0.17977+309
L=2  Nkbl=1  erefs: 0.17977+309
L=3  Nkbl=1  erefs: 0.17977+309
===============================================================================
</basis_specs>

atom: Called for B                     (Z =   5)

read_vps: Pseudopotential generation method:
read_vps: ATM3      Troullier-Martins                       
Total valence charge:    3.00000

read_vps: Pseudopotential includes a core correction:
read_vps: Pseudo-core for xc-correction

xc_check: Exchange-correlation functional:
xc_check: GGA Perdew, Burke & Ernzerhof 1996
V l=0 = -2*Zval/r beyond r=  1.7165
V l=1 = -2*Zval/r beyond r=  1.7165
V l=2 = -2*Zval/r beyond r=  1.7165
V l=3 = -2*Zval/r beyond r=  1.6951
All V_l potentials equal beyond r=  1.7165
This should be close to max(r_c) in ps generation
All pots = -2*Zval/r beyond r=  1.7165

VLOCAL1: 99.0% of the norm of Vloc inside     14.733 Ry
VLOCAL1: 99.9% of the norm of Vloc inside     33.577 Ry
atom: Maximum radius for 4*pi*r*r*local-pseudopot. charge    2.04484
atom: Maximum radius for r*vlocal+2*Zval:    1.75994
GHOST: No ghost state for L =  0
GHOST: No ghost state for L =  1
GHOST: No ghost state for L =  2
GHOST: No ghost state for L =  3

KBgen: Kleinman-Bylander projectors: 
   l= 0   rc=  1.897051   el= -0.693730   Ekb=  4.595746   kbcos=  0.286105
   l= 1   rc=  1.920920   el= -0.265236   Ekb= -2.350715   kbcos= -0.315747
   l= 2   rc=  2.044840   el=  0.002055   Ekb= -0.690767   kbcos= -0.013822
   l= 3   rc=  2.149707   el=  0.003188   Ekb= -0.315358   kbcos= -0.002055

KBgen: Total number of  Kleinman-Bylander projectors:   16
atom: -------------------------------------------------------------------------

atom: SANKEY-TYPE ORBITALS:
atom: Selected multiple-zeta basis: split     

SPLIT: Orbitals with angular momentum L= 0

SPLIT: Basis orbitals for state 2s

SPLIT: PAO cut-off radius determined from an
SPLIT: energy shift=  0.007350 Ry

   izeta = 1
                 lambda =    1.000000
                     rc =    5.422032
                 energy =   -0.686029
                kinetic =    0.576707
    potential(screened) =   -1.262736
       potential(ionic) =   -3.271094

   izeta = 2
                 rmatch =    4.222573
              splitnorm =    0.150000
                 energy =   -0.602132
                kinetic =    0.858975
    potential(screened) =   -1.461107
       potential(ionic) =   -3.582536

SPLIT: Orbitals with angular momentum L= 1

SPLIT: Basis orbitals for state 2p

SPLIT: PAO cut-off radius determined from an
SPLIT: energy shift=  0.007350 Ry

   izeta = 1
                 lambda =    1.000000
                     rc =    6.790259
                 energy =   -0.258578
                kinetic =    1.481412
    potential(screened) =   -1.739989
       potential(ionic) =   -3.657461

   izeta = 2
                 rmatch =    4.608740
              splitnorm =    0.150000
                 energy =   -0.173757
                kinetic =    2.186690
    potential(screened) =   -2.360447
       potential(ionic) =   -4.464260

POLgen: Perturbative polarization orbital with L=  2

POLgen: Polarization orbital for state 2p

   izeta = 1
                     rc =    6.790259
                 energy =    0.684082
                kinetic =    1.471481
    potential(screened) =   -0.787399
       potential(ionic) =   -2.406985
atom: Total number of Sankey-type orbitals: 13

atm_pop: Valence configuration (for local Pseudopot. screening):
 2s( 2.00)                                                            
 2p( 1.00)                                                            
Vna: chval, zval:    3.00000   3.00000

Vna:  Cut-off radius for the neutral-atom potential:   6.790259
comcore: Pseudo-core radius Rcore=  2.122997

atom: _________________________________________________________________________

<basis_specs>
===============================================================================
C                    Z=   6    Mass=  12.010        Charge= 0.17977+309
Lmxo=1 Lmxkb= 3    BasisType=split      Semic=F
L=0  Nsemic=0  Cnfigmx=2
          n=1  nzeta=2  polorb=0
            splnorm:   0.15000    
               vcte:    0.0000    
               rinn:    0.0000    
                rcs:    0.0000      0.0000    
            lambdas:    1.0000      1.0000    
L=1  Nsemic=0  Cnfigmx=2
          n=1  nzeta=2  polorb=1
            splnorm:   0.15000    
               vcte:    0.0000    
               rinn:    0.0000    
                rcs:    0.0000      0.0000    
            lambdas:    1.0000      1.0000    
-------------------------------------------------------------------------------
L=0  Nkbl=1  erefs: 0.17977+309
L=1  Nkbl=1  erefs: 0.17977+309
L=2  Nkbl=1  erefs: 0.17977+309
L=3  Nkbl=1  erefs: 0.17977+309
===============================================================================
</basis_specs>

atom: Called for C                     (Z =   6)

read_vps: Pseudopotential generation method:
read_vps: ATM3      Troullier-Martins                       
Total valence charge:    4.00000

read_vps: Pseudopotential includes a core correction:
read_vps: Pseudo-core for xc-correction

xc_check: Exchange-correlation functional:
xc_check: GGA Perdew, Burke & Ernzerhof 1996
V l=0 = -2*Zval/r beyond r=  1.5227
V l=1 = -2*Zval/r beyond r=  1.5227
V l=2 = -2*Zval/r beyond r=  1.5227
V l=3 = -2*Zval/r beyond r=  1.5038
All V_l potentials equal beyond r=  1.5227
This should be close to max(r_c) in ps generation
All pots = -2*Zval/r beyond r=  1.5227

VLOCAL1: 99.0% of the norm of Vloc inside     18.722 Ry
VLOCAL1: 99.9% of the norm of Vloc inside     42.668 Ry
atom: Maximum radius for 4*pi*r*r*local-pseudopot. charge    1.83678
atom: Maximum radius for r*vlocal+2*Zval:    1.58088
GHOST: No ghost state for L =  0
GHOST: No ghost state for L =  1
GHOST: No ghost state for L =  2
GHOST: No ghost state for L =  3

KBgen: Kleinman-Bylander projectors: 
   l= 0   rc=  1.704034   el= -1.009801   Ekb=  5.335044   kbcos=  0.316824
   l= 1   rc=  1.704034   el= -0.388707   Ekb= -3.785862   kbcos= -0.366464
   l= 2   rc=  1.791422   el=  0.001971   Ekb= -0.970471   kbcos= -0.009212
   l= 3   rc=  1.859892   el=  0.003065   Ekb= -0.399525   kbcos= -0.001223

KBgen: Total number of  Kleinman-Bylander projectors:   16
atom: -------------------------------------------------------------------------

atom: SANKEY-TYPE ORBITALS:
atom: Selected multiple-zeta basis: split     

SPLIT: Orbitals with angular momentum L= 0

SPLIT: Basis orbitals for state 2s

SPLIT: PAO cut-off radius determined from an
SPLIT: energy shift=  0.007350 Ry

   izeta = 1
                 lambda =    1.000000
                     rc =    4.632753
                 energy =   -1.002270
                kinetic =    0.855760
    potential(screened) =   -1.858031
       potential(ionic) =   -5.417575

   izeta = 2
                 rmatch =    3.431921
              splitnorm =    0.150000
                 energy =   -0.867111
                kinetic =    1.300804
    potential(screened) =   -2.167915
       potential(ionic) =   -5.962684

SPLIT: Orbitals with angular momentum L= 1

SPLIT: Basis orbitals for state 2p

SPLIT: PAO cut-off radius determined from an
SPLIT: energy shift=  0.007350 Ry

   izeta = 1
                 lambda =    1.000000
                     rc =    5.658549
                 energy =   -0.381140
                kinetic =    2.399701
    potential(screened) =   -2.780841
       potential(ionic) =   -6.206085

   izeta = 2
                 rmatch =    3.653288
              splitnorm =    0.150000
                 energy =   -0.249149
                kinetic =    3.542762
    potential(screened) =   -3.791911
       potential(ionic) =   -7.581078

POLgen: Perturbative polarization orbital with L=  2

POLgen: Polarization orbital for state 2p

   izeta = 1
                     rc =    5.658549
                 energy =    1.109913
                kinetic =    2.304789
    potential(screened) =   -1.194876
       potential(ionic) =   -4.013592
atom: Total number of Sankey-type orbitals: 13

atm_pop: Valence configuration (for local Pseudopot. screening):
 2s( 2.00)                                                            
 2p( 2.00)                                                            
Vna: chval, zval:    4.00000   4.00000

Vna:  Cut-off radius for the neutral-atom potential:   5.658549
comcore: Pseudo-core radius Rcore=  1.791422

atom: _________________________________________________________________________

prinput: Basis input ----------------------------------------------------------

PAO.BasisType split     

%block ChemicalSpeciesLabel
    1    5 B                       # Species index, atomic number, species label
    2    6 C                       # Species index, atomic number, species label
%endblock ChemicalSpeciesLabel

%block PAO.Basis                 # Define Basis set
B                     2                    # Species label, number of l-shells
 n=2   0   2                         # n, l, Nzeta 
   5.422      4.223   
   1.000      1.000   
 n=2   1   2 P   1                   # n, l, Nzeta, Polarization, NzetaPol
   6.790      4.609   
   1.000      1.000   
C                     2                    # Species label, number of l-shells
 n=2   0   2                         # n, l, Nzeta 
   4.633      3.432   
   1.000      1.000   
 n=2   1   2 P   1                   # n, l, Nzeta, Polarization, NzetaPol
   5.659      3.653   
   1.000      1.000   
%endblock PAO.Basis

prinput: ----------------------------------------------------------------------

coor:   Atomic-coordinates input format  =     Fractional

siesta: Atomic coordinates (Bohr) and species
siesta:      6.95932  30.82560   0.00000  1        1
siesta:     -0.02582  13.34970   0.00000  1        2
siesta:     -4.68258  10.66124   0.00000  1        3
siesta:     -4.68258  13.34970   0.00000  1        4
siesta:     -2.35420  14.69411   0.00000  1        5
siesta:     -2.35420  17.38257   0.00000  1        6
siesta:     -0.02582  18.72698   0.00000  1        7
siesta:      2.30256  25.44831   0.00000  1        8
siesta:     -2.35420  25.44831   0.00000  1        9
siesta:     -7.01096  22.75985   0.00000  1       10
siesta:     -7.01096  25.44831   0.00000  1       11
siesta:    -11.66772  22.75985   0.00000  1       12
siesta:    -11.66772  25.44831   0.00000  1       13
siesta:     -9.33934  26.79272   0.00000  1       14
siesta:     -9.33934  29.48119   0.00000  1       15
siesta:      4.63094  26.79272   0.00000  1       16
siesta:      4.63094  29.48119   0.00000  1       17
siesta:     -0.02582  26.79272   0.00000  1       18
siesta:     -4.68258  26.79272   0.00000  1       19
siesta:     -7.01096  30.82560   0.00000  1       20
siesta:     -0.02582   2.59549   0.00000  2       21
siesta:     -0.02582   5.28395   0.00000  2       22
siesta:     -2.35420  38.89134   0.00000  2       23
siesta:     -2.35420  41.57980   0.00000  2       24
siesta:      2.30256  38.89134   0.00000  2       25
siesta:      2.30256  41.57980   0.00000  2       26
siesta:      4.63094  34.85847   0.00000  2       27
siesta:      4.63094  37.54693   0.00000  2       28
siesta:      6.95932  33.51406   0.00000  2       29
siesta:      9.28770  26.79272   0.00000  2       30
siesta:      9.28770  29.48119   0.00000  2       31
siesta:     -4.68258  34.85847   0.00000  2       32
siesta:     -4.68258  37.54693   0.00000  2       33
siesta:      2.30256   6.62836   0.00000  2       34
siesta:      2.30256   9.31683   0.00000  2       35
siesta:      4.63094  10.66124   0.00000  2       36
siesta:      4.63094  13.34970   0.00000  2       37
siesta:      6.95932  14.69411   0.00000  2       38
siesta:      6.95932  17.38257   0.00000  2       39
siesta:      9.28770  18.72698   0.00000  2       40
siesta:      9.28770  21.41544   0.00000  2       41
siesta:     11.61608  22.75985   0.00000  2       42
siesta:     11.61608  25.44831   0.00000  2       43
siesta:     -2.35420   6.62836   0.00000  2       44
siesta:     -2.35420   9.31683   0.00000  2       45
siesta:     -0.02582  10.66124   0.00000  2       46
siesta:      2.30256  14.69411   0.00000  2       47
siesta:      2.30256  17.38257   0.00000  2       48
siesta:      4.63094  18.72698   0.00000  2       49
siesta:      4.63094  21.41544   0.00000  2       50
siesta:      6.95932  22.75985   0.00000  2       51
siesta:      6.95932  25.44831   0.00000  2       52
siesta:     -0.02582  21.41544   0.00000  2       53
siesta:      2.30256  22.75985   0.00000  2       54
siesta:     -7.01096  14.69411   0.00000  2       55
siesta:     -7.01096  17.38257   0.00000  2       56
siesta:     -4.68258  18.72698   0.00000  2       57
siesta:     -4.68258  21.41544   0.00000  2       58
siesta:     -2.35420  22.75985   0.00000  2       59
siesta:     -9.33934  18.72698   0.00000  2       60
siesta:     -9.33934  21.41544   0.00000  2       61
siesta:     -0.02582  29.48119   0.00000  2       62
siesta:     -4.68258  29.48119   0.00000  2       63
siesta:      2.30256  30.82560   0.00000  2       64
siesta:      2.30256  33.51406   0.00000  2       65
siesta:     -2.35420  30.82560   0.00000  2       66
siesta:     -2.35420  33.51406   0.00000  2       67
siesta:     -7.01096  33.51406   0.00000  2       68
siesta:     -0.02582  34.85847   0.00000  2       69
siesta:     -0.02582  37.54693   0.00000  2       70
siesta:     -0.02582  42.92421   0.00000  2       71
siesta:     -0.02582  45.61267   0.00000  2       72

siesta: System type = slab      

initatomlists: Number of atoms, orbitals, and projectors:     72   936  1152

siesta: ******************** Simulation parameters ****************************
siesta:
siesta: The following are some of the parameters of the simulation.
siesta: A complete list of the parameters used, including default values,
siesta: can be found in file out.fdf
siesta:
redata: Non-Collinear-spin run           =     F
redata: SpinPolarized (Up/Down) run      =     F
redata: Number of spin components        =     1
redata: Long output                      =     F
redata: Number of Atomic Species         =        2
redata: Charge density info will appear in .RHO file
redata: Write Mulliken Pop.              =     NO
redata: Mesh Cutoff                      =   200.0000  Ry
redata: Net charge of the system         =     0.0000 |e|
redata: Max. number of SCF Iter          =      500
redata: SCF convergence failure will abort job
redata: Performing Pulay mixing using    =    10 iterations
redata: Mix DM in first SCF step ?       =     F
redata: Write Pulay info on disk?        =     F
redata: Discard 1st Pulay DM after  kick =     F
redata: New DM Mixing Weight             =     0.0500
redata: New DM Occupancy tolerance       = 0.000000000001
redata: No kicks to SCF
redata: DM Mixing Weight for Kicks       =     0.5000
redata: DM Tolerance for SCF             =     0.000100
redata: Require Energy convergence for SCF =     F
redata: DM Energy tolerance for SCF      =     0.000100 eV
redata: Require Harris convergence for SCF =     F
redata: DM Harris energy tolerance for SCF =     0.000100 eV
redata: Using Saved Data (generic)   =     F
redata: Use continuation files for DM    =     T
redata: Neglect nonoverlap interactions  =     F
redata: Method of Calculation            =     Diagonalization
redata: Divide and Conquer               =     T
redata: Electronic Temperature           =     0.0019  Ry
redata: Fix the spin of the system       =     F
redata: Dynamics option                  =     Verlet MD run
redata: Initial MD time step             =        1
redata:   Final MD time step             =        1
redata: Length of MD time step           =     1.0000  fs
redata: Initial Temperature of MD run    =     0.0000  K
redata: Perform a MD quench              =     F
redata: ***********************************************************************
Total number of electrons:   268.000000
Total ionic charge:   268.000000

* ProcessorY, Blocksize:    2  24

k-point displ. along   1 input, could be:     0.50    0.00
k-point displ. along   2 input, could be:     0.50    0.00
 Kpoints in:          231 . Kpoints trimmed:          231

siesta: k-grid: Number of k-points =   231
siesta: k-grid: Cutoff (effective) =     5.000 Ang
siesta: k-grid: Supercell and displacements
siesta: k-grid:   21   0   0      0.500
siesta: k-grid:    0  21   0      0.500
siesta: k-grid:    0   0   1      0.000
Naive supercell factors:     2    2    2

superc: Internal auxiliary supercell:     2 x     2 x     2  =       8
superc: Number of atoms, orbitals, and projectors:    576   7488   9216

* Maximum dynamic memory allocated =     4 MB

siesta:                 ==============================
                            Begin MD step =      1
                        ==============================

superc: Internal auxiliary supercell:     2 x     2 x     2  =       8
superc: Number of atoms, orbitals, and projectors:    576   7488   9216

outcell: Unit cell vectors (Ang):
       12.804619    7.392750    0.000000
        0.000000   14.785500    0.000000
        0.000000    0.000000   10.000000

outcell: Cell vector modules (Ang)   :   14.785500   14.785500   10.000000
outcell: Cell angles (23,13,12) (deg):     90.0000     90.0000     60.0000
outcell: Cell volume (Ang**3)        :   1893.2269
New_DM. Step:     1
Initializing Density Matrix...

InitMesh: MESH =   120 x   120 x    90 =     1296000
InitMesh: Mesh cutoff (required, used) =   200.000   223.865 Ry

* Maximum dynamic memory allocated =   225 MB

stepf: Fermi-Dirac step function

siesta: Program's energy decomposition (eV):
siesta: Ebs     =     -5539.129721
siesta: Eions   =     15841.876847
siesta: Ena     =      4241.059297
siesta: Ekin    =      5323.417823
siesta: Enl     =       803.200344
siesta: DEna    =        -0.000008
siesta: DUscf   =         0.000000
siesta: DUext   =         0.000000
siesta: Exc     =     -4202.719551
siesta: eta*DQ  =         0.000000
siesta: Emadel  =         0.000000
siesta: Emeta   =         0.000000
siesta: Emolmec =         0.000000
siesta: Ekinion =         0.000000
siesta: Eharris =     -9409.298797
siesta: Etot    =     -9676.918942
siesta: FreeEng =     -9676.918942

siesta: iscf   Eharris(eV)      E_KS(eV)   FreeEng(eV)   dDmax  Ef(eV)
siesta:    1    -9409.2988    -9676.9189    -9676.9189  6.5599 -8.3689
timer: Routine,Calls,Time,% = IterSCF        1    3543.003  99.70
elaps: Routine,Calls,Wall,% = IterSCF        1     443.726  99.70
siesta:    2   -13017.1497    -8772.4233    -8772.4889 19.3488 -2.1813
siesta:    3    -9336.3735    -9518.1009    -9518.1489  2.9948 -6.6924
siesta:    4    -9316.3314    -9402.2727    -9402.3422  1.3558 -5.5653
siesta:    5    -9275.1830    -9329.2798    -9329.3392  1.0222 -5.2199
siesta:    6    -9263.8993    -9296.3134    -9296.3625  0.8437 -5.1985
siesta:    7    -9260.3305    -9287.7978    -9287.8230  0.8298 -5.1786
siesta:    8    -9258.7381    -9263.6293    -9263.6604  0.5348 -5.0953
siesta:    9    -9255.6555    -9259.8561    -9259.8888  0.4648 -5.0235
siesta:   10    -9255.0790    -9252.7043    -9252.7458  0.3868 -5.0340
siesta:   11    -9255.1091    -9243.4195    -9243.4720  0.2297 -4.9966
siesta:   12    -9254.2810    -9237.1820    -9237.2584  0.2272 -5.0026
siesta:   13    -9254.1085    -9234.1781    -9234.2250  0.2706 -4.9955
siesta:   14    -9253.5262    -9238.3356    -9238.3842  0.1499 -4.9571
siesta:   15    -9253.3749    -9240.2252    -9240.2932  0.1349 -4.9868
siesta:   16    -9253.2565    -9242.3338    -9242.4050  0.0851 -4.9973
siesta:   17    -9253.1560    -9243.3155    -9243.3803  0.0638 -5.0083
siesta:   18    -9253.1293    -9244.1914    -9244.2611  0.0589 -5.0188
siesta:   19    -9253.1250    -9247.8738    -9247.9457  0.0643 -5.0418
siesta:   20    -9253.1056    -9249.9243    -9249.9849  0.0215 -5.0472
siesta:   21    -9253.0996    -9251.1125    -9251.1776  0.0197 -5.0498
siesta:   22    -9253.0990    -9252.2954    -9252.3621  0.0141 -5.0521
siesta:   23    -9253.0974    -9252.5833    -9252.6485  0.0082 -5.0460
siesta:   24    -9253.0984    -9252.8604    -9252.9266  0.0124 -5.0465
siesta:   25    -9253.0966    -9252.9163    -9252.9811  0.0038 -5.0445
siesta:   26    -9253.0967    -9253.0845    -9253.1506  0.0032 -5.0446
siesta:   27    -9253.0964    -9253.1179    -9253.1837  0.0016 -5.0440
siesta:   28    -9253.0963    -9253.1290    -9253.1950  0.0012 -5.0438
siesta:   29    -9253.0963    -9253.1600    -9253.2261  0.0010 -5.0441
siesta:   30    -9253.0963    -9253.1499    -9253.2159  0.0006 -5.0441
siesta:   31    -9253.0963    -9253.1454    -9253.2115  0.0004 -5.0443
siesta:   32    -9253.0963    -9253.1449    -9253.2109  0.0004 -5.0444
siesta:   33    -9253.0963    -9253.1379    -9253.2040  0.0003 -5.0443
siesta:   34    -9253.0963    -9253.1230    -9253.1891  0.0002 -5.0442
siesta:   35    -9253.0963    -9253.1042    -9253.1702  0.0001 -5.0442
siesta:   36    -9253.0963    -9253.0989    -9253.1649  0.0001 -5.0442
siesta:   37    -9253.0963    -9253.0976    -9253.1637  0.0001 -5.0442

siesta: E_KS(eV) =            -9253.0977

siesta: E_KS - E_eggbox =     -9253.0977

siesta: Atomic forces (eV/Ang):
----------------------------------------
   Tot   -0.183287   -0.064421    0.000000
----------------------------------------
   Max  561.315552
   Res  148.687105    sqrt( Sum f_i^2 / 3N )
----------------------------------------
   Max  561.315552    constrained

Stress-tensor-Voigt (kbar):     -779.29    -2737.90       -0.66       -3.80        0.00        0.00
(Free)E + p*V (eV/cell)    -7867.5458
Target enthalpy (eV/cell)    -9253.1637

siesta: Stress tensor (static) (eV/Ang**3):
        -0.486387   -0.002371    0.000000
        -0.002371   -1.708845    0.000000
         0.000000    0.000000   -0.000413

siesta: Pressure (static):       1172.61630016  kBar

siesta: Stress tensor (total) (eV/Ang**3):
        -0.486387   -0.002371    0.000000
        -0.002371   -1.708845    0.000000
         0.000000    0.000000   -0.000413

siesta: Pressure (total):       1172.61630016  kBar

siesta: Temp_ion =       0.000 K

* Maximum dynamic memory allocated =   241 MB
Computing bands...

siesta: Program's energy decomposition (eV):
siesta: Ebs     =     -4167.792539
siesta: Eions   =     15841.876847
siesta: Ena     =      4241.059297
siesta: Ekin    =      8218.318476
siesta: Enl     =      -806.059397
siesta: DEna    =      -796.748150
siesta: DUscf   =       108.148943
siesta: DUext   =         0.000000
siesta: Exc     =     -4375.939973
siesta: eta*DQ  =         0.000000
siesta: Emadel  =         0.000000
siesta: Emeta   =         0.000000
siesta: Emolmec =         0.000000
siesta: Ekinion =         0.000000
siesta: Eharris =     -9253.096298
siesta: Etot    =     -9253.097651
siesta: FreeEng =     -9253.163706

siesta: Final energy (eV):
siesta:  Band Struct. =   -4167.792539
siesta:       Kinetic =    8218.318476
siesta:       Hartree =   27148.239003
siesta:    Ext. field =       0.000000
siesta:   Exch.-corr. =   -4375.939973
siesta:  Ion-electron =  -62224.604649
siesta:       Ion-ion =   21980.889492
siesta:       Ekinion =       0.000000
siesta:         Total =   -9253.097651

siesta: Atomic forces (eV/Ang):
siesta:      1    8.410658    3.108541    0.000000
siesta:      2   -2.936340 -107.653202    0.000000
siesta:      3  -20.471424  397.120168    0.000000
siesta:      4  -19.288399    3.156633    0.000000
siesta:      5  -17.567023  397.098615    0.000000
siesta:      6  -19.069271    0.877658    0.000000
siesta:      7   -1.020138  414.715126    0.000000
siesta:      8   -1.325528   -4.590331    0.000000
siesta:      9    0.264809   -5.936708    0.000000
siesta:     10    1.208421   -4.343987    0.000000
siesta:     11   -0.396942   -1.036745    0.000000
siesta:     12   -2.089511   -3.947818    0.000000
siesta:     13   -5.765625    3.942138    0.000000
siesta:     14   -3.823919    0.780021    0.000000
siesta:     15   -5.524186    1.619459    0.000000
siesta:     16    3.512238   -1.823340    0.000000
siesta:     17   -5.613361    3.220776    0.000000
siesta:     18   -0.089472    5.510939    0.000000
siesta:     19    1.537941    6.631285    0.000000
siesta:     20    1.111950    3.890888    0.000000
siesta:     21   -1.605455  551.466045    0.000000
siesta:     22   -0.504614 -129.545216    0.000000
siesta:     23   -1.543444  125.202924    0.000000
siesta:     24  -15.776615 -401.124194    0.000000
siesta:     25   -1.348055  131.048396    0.000000
siesta:     26   24.946998 -554.741052    0.000000
siesta:     27   27.265098    5.197647    0.000000
siesta:     28   33.713524 -549.494698    0.000000
siesta:     29   -4.025089    5.235275    0.000000
siesta:     30    3.354738    1.435395    0.000000
siesta:     31    0.558951   -1.978350    0.000000
siesta:     32  -26.234394   -1.035124    0.000000
siesta:     33  -36.636951 -405.574518    0.000000
siesta:     34   16.275295  547.532454    0.000000
siesta:     35   -1.613755 -125.491111    0.000000
siesta:     36   32.521718  548.476197    0.000000
siesta:     37   25.661316   -4.720567    0.000000
siesta:     38   -2.275425   -2.113250    0.000000
siesta:     39    1.718242   -0.166046    0.000000
siesta:     40   -0.473437   -0.382338    0.000000
siesta:     41    2.125388   -2.192295    0.000000
siesta:     42    0.005163    6.140972    0.000000
siesta:     43   -0.287498   -6.089233    0.000000
siesta:     44  -19.145202  548.597265    0.000000
siesta:     45   -6.448116 -115.575476    0.000000
siesta:     46   -4.329567  542.127313    0.000000
siesta:     47   14.871315  554.916118    0.000000
siesta:     48   22.192503   -3.163143    0.000000
siesta:     49   -0.866161    1.588442    0.000000
siesta:     50   -0.207939   -0.600656    0.000000
siesta:     51    0.262537    1.230263    0.000000
siesta:     52    1.851719   -3.048266    0.000000
siesta:     53    0.005560    1.877017    0.000000
siesta:     54   -0.054443   -3.211553    0.000000
siesta:     55   -0.339676   -0.154856    0.000000
siesta:     56   -2.960368   -1.822702    0.000000
siesta:     57    0.063291    2.191284    0.000000
siesta:     58    2.502107   -2.428091    0.000000
siesta:     59    1.093358   -4.041596    0.000000
siesta:     60    0.577413    1.215770    0.000000
siesta:     61   -3.178799   -5.806644    0.000000
siesta:     62    0.917431 -561.315552    0.000000
siesta:     63    4.066802    1.252369    0.000000
siesta:     64   20.239662    5.642625    0.000000
siesta:     65   22.781686 -555.655812    0.000000
siesta:     66  -22.349737    5.531401    0.000000
siesta:     67  -22.319382 -559.091264    0.000000
siesta:     68    3.873803    5.734212    0.000000
siesta:     69   -0.063379  129.067492    0.000000
siesta:     70    5.474287 -553.503801    0.000000
siesta:     71   -7.775020  127.567010    0.000000
siesta:     72    2.194450 -408.611020    0.000000
siesta: ----------------------------------------
siesta:    Tot   -0.183287   -0.064421    0.000000

siesta: Stress tensor (static) (eV/Ang**3):
siesta:    -0.486387   -0.002371    0.000000
siesta:    -0.002371   -1.708845    0.000000
siesta:     0.000000    0.000000   -0.000413

siesta: Cell volume =       1893.226884 Ang**3

siesta: Pressure (static):
siesta:                Solid            Molecule  Units
siesta:           0.00797113          0.11406411  Ry/Bohr**3
siesta:           0.73188162         10.47297869  eV/Ang**3
siesta:        1172.61630016      16779.74311957  kBar
(Free)E+ p_basis*V_orbitals  =       -9216.107020
(Free)Eharris+ p_basis*V_orbitals  =       -9216.105686

siesta: Electric dipole (a.u.)  =    0.000000    0.000000    0.000000
siesta: Electric dipole (Debye) =    0.000000    0.000000    0.000000

* Maximum dynamic memory allocated : Node    0 =   241 MB
* Maximum dynamic memory allocated : Node    1 =    86 MB
* Maximum dynamic memory allocated : Node    2 =    87 MB
* Maximum dynamic memory allocated : Node    3 =   229 MB
* Maximum dynamic memory allocated : Node    4 =   227 MB
* Maximum dynamic memory allocated : Node    5 =    82 MB
* Maximum dynamic memory allocated : Node    6 =    84 MB
* Maximum dynamic memory allocated : Node    7 =   208 MB

* Maximum memory occured during matrixMtoO                    

timer: CPU execution times:
timer:  Routine       Calls   Time/call    Tot.time        %
timer:  siesta            1  129318.491  129318.491   100.00
timer:  Setup             1       2.685       2.685     0.00
timer:  bands             3     243.881     731.643     0.57
timer:  writewave         1       0.018       0.018     0.00
timer:  KSV_init          1       0.005       0.005     0.00
timer:  IterMD            1  128578.942  128578.942    99.43
timer:  hsparse           1       0.514       0.514     0.00
timer:  overlap           1       7.205       7.205     0.01
timer:  IterSCF          37    3469.464  128370.178    99.27
timer:  kinefsm           2       3.751       7.503     0.01
timer:  nlefsm            2      20.138      40.277     0.03
timer:  DHSCF            38     112.236    4264.969     3.30
timer:  DHSCF1            1       0.990       0.990     0.00
timer:  DHSCF2            1      42.606      42.606     0.03
timer:  REORD           306       0.005       1.520     0.00
timer:  POISON           39       0.880      34.333     0.03
timer:  DHSCF3           38     109.996    4179.838     3.23
timer:  rhoofd           38      23.611     897.231     0.69
timer:  cellXC           38       3.397     129.073     0.10
timer:  vmat             38      54.150    2057.696     1.59
timer:  MolMec            2       0.000       0.001     0.00
timer:  diagon           37    3356.470  124189.387    96.03
timer:  c-eigval       8668       6.033   52294.773    40.44
timer:  c-buildHS      8668       0.053     458.564     0.35
timer:  cdiag         17215       6.187  106510.220    82.36
timer:  cdiag1        17215       0.385    6631.770     5.13
timer:  cdiag2        17215       1.768   30432.183    23.53
timer:  cdiag3        17215       3.732   64243.111    49.68
timer:  cdiag4        17215       0.158    2716.422     2.10
timer:  c-eigvec       8547       6.442   55061.928    42.58
timer:  c-buildD       8547       2.050   17520.285    13.55
timer:  DHSCF4            1      40.799      40.799     0.03
timer:  dfscf             1      38.018      38.018     0.03
timer:  overfsm           1       0.458       0.458     0.00
timer:  optical           1       4.557       4.557     0.00
  

elaps: ELAPSED times:
elaps:  Routine       Calls   Time/call    Tot.time        %
elaps:  siesta            1   16194.957   16194.957   100.00
elaps:  Setup             1       0.337       0.337     0.00
elaps:  bands             3      30.559      91.677     0.57
elaps:  writewave         1       0.002       0.002     0.00
elaps:  KSV_init          1       0.000       0.000     0.00
elaps:  IterMD            1   16102.340   16102.340    99.43
elaps:  hsparse           1       0.068       0.068     0.00
elaps:  overlap           1       0.902       0.902     0.01
elaps:  IterSCF          37     434.492   16076.200    99.27
elaps:  kinefsm           2       0.468       0.936     0.01
elaps:  nlefsm            2       2.542       5.085     0.03
elaps:  DHSCF            38      14.189     539.186     3.33
elaps:  DHSCF1            1       0.127       0.127     0.00
elaps:  DHSCF2            1       5.333       5.333     0.03
elaps:  REORD           306       0.001       0.203     0.00
elaps:  POISON           39       0.111       4.310     0.03
elaps:  DHSCF3           38      13.776     523.480     3.23
elaps:  rhoofd           38       6.435     244.528     1.51
elaps:  cellXC           38       0.425      16.156     0.10
elaps:  vmat             38       6.782     257.707     1.59
elaps:  MolMec            2       0.000       0.000     0.00
elaps:  diagon           37     420.353   15553.077    96.04
elaps:  c-eigval       8668       0.756    6548.906    40.44
elaps:  c-buildHS      8668       0.007      62.237     0.38
elaps:  cdiag         17215       0.768   13227.431    81.68
elaps:  cdiag1        17215       0.048     827.573     5.11
elaps:  cdiag2        17215       0.221    3811.785    23.54
elaps:  cdiag3        17215       0.468    8055.960    49.74
elaps:  cdiag4        17215       0.020     338.709     2.09
elaps:  c-eigvec       8547       0.794    6790.423    41.93
elaps:  c-buildD       8547       0.269    2298.062    14.19
elaps:  DHSCF4            1      10.159      10.159     0.06
elaps:  dfscf             1       9.599       9.599     0.06
elaps:  overfsm           1       0.056       0.056     0.00
elaps:  optical           1       0.000       0.000     0.00
  
>> End of run:  27-APR-2016  13:18:42
