Siesta Version:                                        siesta-3.2-pl-3
Architecture  : x86_64-unknown-linux-gnu--unknown
Compiler flags: mpiifort -g -O2 -fPIC -xSSE4.1 -fp-model source -shared-intel 
PARALLEL version

* Running on    8 nodes in parallel
>> Start of run:   8-MAY-2016  12:49:31

                           ***********************       
                           *  WELCOME TO SIESTA  *       
                           ***********************       

reinit: Reading from standard input
************************** Dump of input data file ****************************
#(1) General system descriptors
SystemName            GRP_doping    # Descriptive name of the system
SystemLabel           GRP_doping    # Short name for naming files
%include STRUCT.fdf
%include KPT.fdf
%include BASIS.fdf
#%include TS.fdf # for transiesta calculation
#(4) DFT, Grid, SCF
XC.functional         GGA           # LDA or GGA (default = LDA)
XC.authors            PBE           # CA (Ceperley-Aldr) = PZ
                                    #    (Perdew-Zunger) - LDA - Default
                                    # PW92 (Perdew-Wang-92) - LDA
                                    # PBE (Perdew-Burke-Ernzerhof) - GGA
MeshCutoff            200.000000    Ry      # Default: 50.0 Ry ~ 0.444 Bohr
                                    #         100.0 Ry ~ 0.314 Bohr
MaxSCFIterations      500           # Default: 50
DM.MixingWeight       0.05          # Default: 0.25
DM.NumberPulay        10            # Default: 0
DM.PulayOnFile        F             # SystemLabel.P1, SystemLabel.P2
DM.Tolerance          1.d-4         # Default: 1.d-4
DM.UseSaveDM          .true.        # because of the bug
SCFMustConverge       .true.
NeglNonOverlapInt     F             # Default: F
#(5) Eigenvalue problem: order-N or diagonalization
SolutionMethod        Diagon        # or Transiesta
ElectronicTemperature 300.0 K       # Default: 300.0 K
#(6) Molecular dynamics and relaxations
#MD.TypeOfRun          CG            # Type of dynamics:
#MD.VariableCell       F
#MD.NumCGsteps         0           # 0 for single-point / 100 for gopt
#MD.MaxCGDispl         0.2 Bohr      # Default: 0.2 Bohr
#MD.MaxForceTol        0.02 eV/Ang   # Default: 0.04 eV/Ang
#MD.MaxStressTol       1.0 GPa       # Default: 1.0 GPa
# Geometry Constraints
#%block GeometryConstraints
#	position from 1 to 44
#%endblock GeometryConstraints
BandLinesScale   pi/a
%block BandLines
 1   0.00000000  0.00000000  0.00000000
50   0.00000000  0.07809418  0.00000000
50   0.04509075  0.07809242  0.00000000
20   0.00000000  0.00000000  0.00000000
%endblock BandLines
************************** End of input data file *****************************

reinit: -----------------------------------------------------------------------
reinit: System Name: GRP_doping
reinit: -----------------------------------------------------------------------
reinit: System Label: GRP_doping                                                  
reinit: -----------------------------------------------------------------------

initatom: Reading input for the pseudopotentials and atomic orbitals ----------
 Species number:            1  Label: B Atomic number:           5
 Species number:            2  Label: C Atomic number:           6
Ground state valence configuration:   2s02  2p01
Reading pseudopotential information in formatted form from B.psf

Valence configuration for pseudopotential generation:
2s( 2.00) rc: 1.74
2p( 1.00) rc: 1.74
3d( 0.00) rc: 1.74
4f( 0.00) rc: 1.74
Ground state valence configuration:   2s02  2p02
Reading pseudopotential information in formatted form from C.psf

Valence configuration for pseudopotential generation:
2s( 2.00) rc: 1.54
2p( 2.00) rc: 1.54
3d( 0.00) rc: 1.54
4f( 0.00) rc: 1.54
For B, standard SIESTA heuristics set lmxkb to 3
 (one more than the basis l, including polarization orbitals).
Use PS.lmax or PS.KBprojectors blocks to override.
For C, standard SIESTA heuristics set lmxkb to 3
 (one more than the basis l, including polarization orbitals).
Use PS.lmax or PS.KBprojectors blocks to override.

<basis_specs>
===============================================================================
B                    Z=   5    Mass=  10.810        Charge= 0.17977+309
Lmxo=1 Lmxkb= 3    BasisType=split      Semic=F
L=0  Nsemic=0  Cnfigmx=2
          n=1  nzeta=2  polorb=0
            splnorm:   0.15000    
               vcte:    0.0000    
               rinn:    0.0000    
                rcs:    0.0000      0.0000    
            lambdas:    1.0000      1.0000    
L=1  Nsemic=0  Cnfigmx=2
          n=1  nzeta=2  polorb=1
            splnorm:   0.15000    
               vcte:    0.0000    
               rinn:    0.0000    
                rcs:    0.0000      0.0000    
            lambdas:    1.0000      1.0000    
-------------------------------------------------------------------------------
L=0  Nkbl=1  erefs: 0.17977+309
L=1  Nkbl=1  erefs: 0.17977+309
L=2  Nkbl=1  erefs: 0.17977+309
L=3  Nkbl=1  erefs: 0.17977+309
===============================================================================
</basis_specs>

atom: Called for B                     (Z =   5)

read_vps: Pseudopotential generation method:
read_vps: ATM3      Troullier-Martins                       
Total valence charge:    3.00000

read_vps: Pseudopotential includes a core correction:
read_vps: Pseudo-core for xc-correction

xc_check: Exchange-correlation functional:
xc_check: GGA Perdew, Burke & Ernzerhof 1996
V l=0 = -2*Zval/r beyond r=  1.7165
V l=1 = -2*Zval/r beyond r=  1.7165
V l=2 = -2*Zval/r beyond r=  1.7165
V l=3 = -2*Zval/r beyond r=  1.6951
All V_l potentials equal beyond r=  1.7165
This should be close to max(r_c) in ps generation
All pots = -2*Zval/r beyond r=  1.7165

VLOCAL1: 99.0% of the norm of Vloc inside     14.733 Ry
VLOCAL1: 99.9% of the norm of Vloc inside     33.577 Ry
atom: Maximum radius for 4*pi*r*r*local-pseudopot. charge    2.04484
atom: Maximum radius for r*vlocal+2*Zval:    1.75994
GHOST: No ghost state for L =  0
GHOST: No ghost state for L =  1
GHOST: No ghost state for L =  2
GHOST: No ghost state for L =  3

KBgen: Kleinman-Bylander projectors: 
   l= 0   rc=  1.897051   el= -0.693730   Ekb=  4.595746   kbcos=  0.286105
   l= 1   rc=  1.920920   el= -0.265236   Ekb= -2.350715   kbcos= -0.315747
   l= 2   rc=  2.044840   el=  0.002055   Ekb= -0.690767   kbcos= -0.013822
   l= 3   rc=  2.149707   el=  0.003188   Ekb= -0.315358   kbcos= -0.002055

KBgen: Total number of  Kleinman-Bylander projectors:   16
atom: -------------------------------------------------------------------------

atom: SANKEY-TYPE ORBITALS:
atom: Selected multiple-zeta basis: split     

SPLIT: Orbitals with angular momentum L= 0

SPLIT: Basis orbitals for state 2s

SPLIT: PAO cut-off radius determined from an
SPLIT: energy shift=  0.007350 Ry

   izeta = 1
                 lambda =    1.000000
                     rc =    5.422032
                 energy =   -0.686029
                kinetic =    0.576707
    potential(screened) =   -1.262736
       potential(ionic) =   -3.271094

   izeta = 2
                 rmatch =    4.222573
              splitnorm =    0.150000
                 energy =   -0.602132
                kinetic =    0.858975
    potential(screened) =   -1.461107
       potential(ionic) =   -3.582536

SPLIT: Orbitals with angular momentum L= 1

SPLIT: Basis orbitals for state 2p

SPLIT: PAO cut-off radius determined from an
SPLIT: energy shift=  0.007350 Ry

   izeta = 1
                 lambda =    1.000000
                     rc =    6.790259
                 energy =   -0.258578
                kinetic =    1.481412
    potential(screened) =   -1.739989
       potential(ionic) =   -3.657461

   izeta = 2
                 rmatch =    4.608740
              splitnorm =    0.150000
                 energy =   -0.173757
                kinetic =    2.186690
    potential(screened) =   -2.360447
       potential(ionic) =   -4.464260

POLgen: Perturbative polarization orbital with L=  2

POLgen: Polarization orbital for state 2p

   izeta = 1
                     rc =    6.790259
                 energy =    0.684082
                kinetic =    1.471481
    potential(screened) =   -0.787399
       potential(ionic) =   -2.406985
atom: Total number of Sankey-type orbitals: 13

atm_pop: Valence configuration (for local Pseudopot. screening):
 2s( 2.00)                                                            
 2p( 1.00)                                                            
Vna: chval, zval:    3.00000   3.00000

Vna:  Cut-off radius for the neutral-atom potential:   6.790259
comcore: Pseudo-core radius Rcore=  2.122997

atom: _________________________________________________________________________

<basis_specs>
===============================================================================
C                    Z=   6    Mass=  12.010        Charge= 0.17977+309
Lmxo=1 Lmxkb= 3    BasisType=split      Semic=F
L=0  Nsemic=0  Cnfigmx=2
          n=1  nzeta=2  polorb=0
            splnorm:   0.15000    
               vcte:    0.0000    
               rinn:    0.0000    
                rcs:    0.0000      0.0000    
            lambdas:    1.0000      1.0000    
L=1  Nsemic=0  Cnfigmx=2
          n=1  nzeta=2  polorb=1
            splnorm:   0.15000    
               vcte:    0.0000    
               rinn:    0.0000    
                rcs:    0.0000      0.0000    
            lambdas:    1.0000      1.0000    
-------------------------------------------------------------------------------
L=0  Nkbl=1  erefs: 0.17977+309
L=1  Nkbl=1  erefs: 0.17977+309
L=2  Nkbl=1  erefs: 0.17977+309
L=3  Nkbl=1  erefs: 0.17977+309
===============================================================================
</basis_specs>

atom: Called for C                     (Z =   6)

read_vps: Pseudopotential generation method:
read_vps: ATM3      Troullier-Martins                       
Total valence charge:    4.00000

read_vps: Pseudopotential includes a core correction:
read_vps: Pseudo-core for xc-correction

xc_check: Exchange-correlation functional:
xc_check: GGA Perdew, Burke & Ernzerhof 1996
V l=0 = -2*Zval/r beyond r=  1.5227
V l=1 = -2*Zval/r beyond r=  1.5227
V l=2 = -2*Zval/r beyond r=  1.5227
V l=3 = -2*Zval/r beyond r=  1.5038
All V_l potentials equal beyond r=  1.5227
This should be close to max(r_c) in ps generation
All pots = -2*Zval/r beyond r=  1.5227

VLOCAL1: 99.0% of the norm of Vloc inside     18.722 Ry
VLOCAL1: 99.9% of the norm of Vloc inside     42.668 Ry
atom: Maximum radius for 4*pi*r*r*local-pseudopot. charge    1.83678
atom: Maximum radius for r*vlocal+2*Zval:    1.58088
GHOST: No ghost state for L =  0
GHOST: No ghost state for L =  1
GHOST: No ghost state for L =  2
GHOST: No ghost state for L =  3

KBgen: Kleinman-Bylander projectors: 
   l= 0   rc=  1.704034   el= -1.009801   Ekb=  5.335044   kbcos=  0.316824
   l= 1   rc=  1.704034   el= -0.388707   Ekb= -3.785862   kbcos= -0.366464
   l= 2   rc=  1.791422   el=  0.001971   Ekb= -0.970471   kbcos= -0.009212
   l= 3   rc=  1.859892   el=  0.003065   Ekb= -0.399525   kbcos= -0.001223

KBgen: Total number of  Kleinman-Bylander projectors:   16
atom: -------------------------------------------------------------------------

atom: SANKEY-TYPE ORBITALS:
atom: Selected multiple-zeta basis: split     

SPLIT: Orbitals with angular momentum L= 0

SPLIT: Basis orbitals for state 2s

SPLIT: PAO cut-off radius determined from an
SPLIT: energy shift=  0.007350 Ry

   izeta = 1
                 lambda =    1.000000
                     rc =    4.632753
                 energy =   -1.002270
                kinetic =    0.855760
    potential(screened) =   -1.858031
       potential(ionic) =   -5.417575

   izeta = 2
                 rmatch =    3.431921
              splitnorm =    0.150000
                 energy =   -0.867111
                kinetic =    1.300804
    potential(screened) =   -2.167915
       potential(ionic) =   -5.962684

SPLIT: Orbitals with angular momentum L= 1

SPLIT: Basis orbitals for state 2p

SPLIT: PAO cut-off radius determined from an
SPLIT: energy shift=  0.007350 Ry

   izeta = 1
                 lambda =    1.000000
                     rc =    5.658549
                 energy =   -0.381140
                kinetic =    2.399701
    potential(screened) =   -2.780841
       potential(ionic) =   -6.206085

   izeta = 2
                 rmatch =    3.653288
              splitnorm =    0.150000
                 energy =   -0.249149
                kinetic =    3.542762
    potential(screened) =   -3.791911
       potential(ionic) =   -7.581078

POLgen: Perturbative polarization orbital with L=  2

POLgen: Polarization orbital for state 2p

   izeta = 1
                     rc =    5.658549
                 energy =    1.109913
                kinetic =    2.304789
    potential(screened) =   -1.194876
       potential(ionic) =   -4.013592
atom: Total number of Sankey-type orbitals: 13

atm_pop: Valence configuration (for local Pseudopot. screening):
 2s( 2.00)                                                            
 2p( 2.00)                                                            
Vna: chval, zval:    4.00000   4.00000

Vna:  Cut-off radius for the neutral-atom potential:   5.658549
comcore: Pseudo-core radius Rcore=  1.791422

atom: _________________________________________________________________________

prinput: Basis input ----------------------------------------------------------

PAO.BasisType split     

%block ChemicalSpeciesLabel
    1    5 B                       # Species index, atomic number, species label
    2    6 C                       # Species index, atomic number, species label
%endblock ChemicalSpeciesLabel

%block PAO.Basis                 # Define Basis set
B                     2                    # Species label, number of l-shells
 n=2   0   2                         # n, l, Nzeta 
   5.422      4.223   
   1.000      1.000   
 n=2   1   2 P   1                   # n, l, Nzeta, Polarization, NzetaPol
   6.790      4.609   
   1.000      1.000   
C                     2                    # Species label, number of l-shells
 n=2   0   2                         # n, l, Nzeta 
   4.633      3.432   
   1.000      1.000   
 n=2   1   2 P   1                   # n, l, Nzeta, Polarization, NzetaPol
   5.659      3.653   
   1.000      1.000   
%endblock PAO.Basis

prinput: ----------------------------------------------------------------------

coor:   Atomic-coordinates input format  =     Fractional

siesta: Atomic coordinates (Bohr) and species
siesta:      6.95932  17.38257   0.00000  1        1
siesta:      9.28770  18.72698   0.00000  1        2
siesta:      9.28770  21.41544   0.00000  1        3
siesta:      2.30256  17.38257   0.00000  1        4
siesta:      4.63094  18.72698   0.00000  1        5
siesta:      4.63094  21.41544   0.00000  1        6
siesta:      6.95932  22.75985   0.00000  1        7
siesta:      6.95932  25.44831   0.00000  1        8
siesta:     -2.35420  17.38257   0.00000  1        9
siesta:     -0.02582  18.72698   0.00000  1       10
siesta:     -0.02582  21.41544   0.00000  1       11
siesta:      2.30256  25.44831   0.00000  1       12
siesta:      4.63094  26.79272   0.00000  1       13
siesta:      4.63094  29.48119   0.00000  1       14
siesta:     -0.02582   2.59549   0.00000  2       15
siesta:     -0.02582   5.28395   0.00000  2       16
siesta:     -2.35420  38.89134   0.00000  2       17
siesta:     -2.35420  41.57980   0.00000  2       18
siesta:      2.30256  38.89134   0.00000  2       19
siesta:      2.30256  41.57980   0.00000  2       20
siesta:      4.63094  34.85847   0.00000  2       21
siesta:      4.63094  37.54693   0.00000  2       22
siesta:      6.95932  30.82560   0.00000  2       23
siesta:      6.95932  33.51406   0.00000  2       24
siesta:      9.28770  26.79272   0.00000  2       25
siesta:      9.28770  29.48119   0.00000  2       26
siesta:     -4.68258  34.85847   0.00000  2       27
siesta:     -4.68258  37.54693   0.00000  2       28
siesta:      2.30256   6.62836   0.00000  2       29
siesta:      2.30256   9.31683   0.00000  2       30
siesta:      4.63094  10.66124   0.00000  2       31
siesta:      4.63094  13.34970   0.00000  2       32
siesta:      6.95932  14.69411   0.00000  2       33
siesta:     11.61608  22.75985   0.00000  2       34
siesta:     11.61608  25.44831   0.00000  2       35
siesta:     -2.35420   6.62836   0.00000  2       36
siesta:     -2.35420   9.31683   0.00000  2       37
siesta:     -0.02582  10.66124   0.00000  2       38
siesta:     -0.02582  13.34970   0.00000  2       39
siesta:      2.30256  14.69411   0.00000  2       40
siesta:     -4.68258  10.66124   0.00000  2       41
siesta:     -4.68258  13.34970   0.00000  2       42
siesta:     -2.35420  14.69411   0.00000  2       43
siesta:      2.30256  22.75985   0.00000  2       44
siesta:     -7.01096  14.69411   0.00000  2       45
siesta:     -7.01096  17.38257   0.00000  2       46
siesta:     -4.68258  18.72698   0.00000  2       47
siesta:     -4.68258  21.41544   0.00000  2       48
siesta:     -2.35420  22.75985   0.00000  2       49
siesta:     -2.35420  25.44831   0.00000  2       50
siesta:     -9.33934  18.72698   0.00000  2       51
siesta:     -9.33934  21.41544   0.00000  2       52
siesta:     -7.01096  22.75985   0.00000  2       53
siesta:     -7.01096  25.44831   0.00000  2       54
siesta:    -11.66772  22.75985   0.00000  2       55
siesta:    -11.66772  25.44831   0.00000  2       56
siesta:     -9.33934  26.79272   0.00000  2       57
siesta:     -9.33934  29.48119   0.00000  2       58
siesta:     -0.02582  26.79272   0.00000  2       59
siesta:     -0.02582  29.48119   0.00000  2       60
siesta:     -4.68258  26.79272   0.00000  2       61
siesta:     -4.68258  29.48119   0.00000  2       62
siesta:      2.30256  30.82560   0.00000  2       63
siesta:      2.30256  33.51406   0.00000  2       64
siesta:     -2.35420  30.82560   0.00000  2       65
siesta:     -2.35420  33.51406   0.00000  2       66
siesta:     -7.01096  30.82560   0.00000  2       67
siesta:     -7.01096  33.51406   0.00000  2       68
siesta:     -0.02582  34.85847   0.00000  2       69
siesta:     -0.02582  37.54693   0.00000  2       70
siesta:     -0.02582  42.92421   0.00000  2       71
siesta:     -0.02582  45.61267   0.00000  2       72

siesta: System type = slab      

initatomlists: Number of atoms, orbitals, and projectors:     72   936  1152

siesta: ******************** Simulation parameters ****************************
siesta:
siesta: The following are some of the parameters of the simulation.
siesta: A complete list of the parameters used, including default values,
siesta: can be found in file out.fdf
siesta:
redata: Non-Collinear-spin run           =     F
redata: SpinPolarized (Up/Down) run      =     F
redata: Number of spin components        =     1
redata: Long output                      =     F
redata: Number of Atomic Species         =        2
redata: Charge density info will appear in .RHO file
redata: Write Mulliken Pop.              =     NO
redata: Mesh Cutoff                      =   200.0000  Ry
redata: Net charge of the system         =     0.0000 |e|
redata: Max. number of SCF Iter          =      500
redata: SCF convergence failure will abort job
redata: Performing Pulay mixing using    =    10 iterations
redata: Mix DM in first SCF step ?       =     F
redata: Write Pulay info on disk?        =     F
redata: Discard 1st Pulay DM after  kick =     F
redata: New DM Mixing Weight             =     0.0500
redata: New DM Occupancy tolerance       = 0.000000000001
redata: No kicks to SCF
redata: DM Mixing Weight for Kicks       =     0.5000
redata: DM Tolerance for SCF             =     0.000100
redata: Require Energy convergence for SCF =     F
redata: DM Energy tolerance for SCF      =     0.000100 eV
redata: Require Harris convergence for SCF =     F
redata: DM Harris energy tolerance for SCF =     0.000100 eV
redata: Using Saved Data (generic)   =     F
redata: Use continuation files for DM    =     T
redata: Neglect nonoverlap interactions  =     F
redata: Method of Calculation            =     Diagonalization
redata: Divide and Conquer               =     T
redata: Electronic Temperature           =     0.0019  Ry
redata: Fix the spin of the system       =     F
redata: Dynamics option                  =     Verlet MD run
redata: Initial MD time step             =        1
redata:   Final MD time step             =        1
redata: Length of MD time step           =     1.0000  fs
redata: Initial Temperature of MD run    =     0.0000  K
redata: Perform a MD quench              =     F
redata: ***********************************************************************
Total number of electrons:   274.000000
Total ionic charge:   274.000000

* ProcessorY, Blocksize:    2  24

k-point displ. along   1 input, could be:     0.00    0.50
k-point displ. along   2 input, could be:     0.00    0.50
 Kpoints in:          364 . Kpoints trimmed:          352

siesta: k-grid: Number of k-points =   352
siesta: k-grid: Cutoff (effective) =     5.000 Ang
siesta: k-grid: Supercell and displacements
siesta: k-grid:   26   0   0      0.000
siesta: k-grid:    0  26   0      0.000
siesta: k-grid:    0   0   1      0.000
Naive supercell factors:     2    2    2

superc: Internal auxiliary supercell:     2 x     2 x     2  =       8
superc: Number of atoms, orbitals, and projectors:    576   7488   9216

* Maximum dynamic memory allocated =     6 MB

siesta:                 ==============================
                            Begin MD step =      1
                        ==============================

superc: Internal auxiliary supercell:     2 x     2 x     2  =       8
superc: Number of atoms, orbitals, and projectors:    576   7488   9216

outcell: Unit cell vectors (Ang):
       12.804619    7.392750    0.000000
        0.000000   14.785500    0.000000
        0.000000    0.000000   10.000000

outcell: Cell vector modules (Ang)   :   14.785500   14.785500   10.000000
outcell: Cell angles (23,13,12) (deg):     90.0000     90.0000     60.0000
outcell: Cell volume (Ang**3)        :   1893.2269
New_DM. Step:     1
Initializing Density Matrix...

InitMesh: MESH =   120 x   120 x    90 =     1296000
InitMesh: Mesh cutoff (required, used) =   200.000   223.865 Ry

* Maximum dynamic memory allocated =   213 MB

stepf: Fermi-Dirac step function

siesta: Program's energy decomposition (eV):
siesta: Ebs     =     -5661.214711
siesta: Eions   =     16610.217114
siesta: Ena     =      4387.520320
siesta: Ekin    =      5639.844840
siesta: Enl     =       749.061042
siesta: DEna    =        -0.000010
siesta: DUscf   =         0.000000
siesta: DUext   =         0.000000
siesta: Exc     =     -4196.202473
siesta: eta*DQ  =         0.000000
siesta: Emadel  =         0.000000
siesta: Emeta   =         0.000000
siesta: Emolmec =         0.000000
siesta: Ekinion =         0.000000
siesta: Eharris =     -9727.313356
siesta: Etot    =    -10029.993395
siesta: FreeEng =    -10029.993395

siesta: iscf   Eharris(eV)      E_KS(eV)   FreeEng(eV)   dDmax  Ef(eV)
siesta:    1    -9727.3134   -10029.9934   -10029.9934  6.6950 -8.2085
timer: Routine,Calls,Time,% = IterSCF        1    6686.234  99.82
elaps: Routine,Calls,Wall,% = IterSCF        1     836.821  99.82
siesta:    2   -13805.7062    -9068.2021    -9068.2085 21.4004 -2.6146
siesta:    3    -9656.5986    -9883.3481    -9883.4065  3.5413 -6.5127
siesta:    4    -9638.0883    -9723.5605    -9723.5908  1.2590 -5.2739
siesta:    5    -9599.0425    -9653.1381    -9653.1567  0.8299 -5.2978
siesta:    6    -9583.3370    -9620.8565    -9620.8589  0.7502 -5.2397
siesta:    7    -9579.3923    -9614.7535    -9614.7652  0.7358 -5.2209
siesta:    8    -9576.5385    -9589.9618    -9589.9707  0.6272 -5.0829
siesta:    9    -9574.2181    -9584.5679    -9584.6294  0.6007 -5.0810
siesta:   10    -9573.0536    -9579.6108    -9579.6712  0.5235 -5.0316
siesta:   11    -9572.4243    -9569.6777    -9569.7498  0.3789 -4.9774
siesta:   12    -9572.4555    -9554.9226    -9554.9895  0.1702 -4.8861
siesta:   13    -9572.5439    -9549.1891    -9549.2521  0.1454 -4.8505
siesta:   14    -9572.1206    -9550.9506    -9551.0220  0.1327 -4.8730
siesta:   15    -9571.8408    -9554.1123    -9554.1822  0.1335 -4.8983
siesta:   16    -9571.5933    -9556.3821    -9556.4502  0.0980 -4.9148
siesta:   17    -9571.5459    -9561.0850    -9561.1643  0.0467 -4.9397
siesta:   18    -9571.5263    -9562.8396    -9562.9231  0.0385 -4.9446
siesta:   19    -9571.4824    -9567.6575    -9567.7404  0.0240 -4.9542
siesta:   20    -9571.4668    -9568.4448    -9568.5252  0.0176 -4.9531
siesta:   21    -9571.4636    -9569.7852    -9569.8662  0.0160 -4.9548
siesta:   22    -9571.4599    -9570.5552    -9570.6370  0.0155 -4.9506
siesta:   23    -9571.4595    -9571.3912    -9571.4738  0.0119 -4.9473
siesta:   24    -9571.4589    -9571.5768    -9571.6594  0.0082 -4.9446
siesta:   25    -9571.4581    -9571.5995    -9571.6818  0.0062 -4.9440
siesta:   26    -9571.4581    -9571.6931    -9571.7756  0.0044 -4.9438
siesta:   27    -9571.4577    -9571.7536    -9571.8359  0.0025 -4.9435
siesta:   28    -9571.4578    -9571.7321    -9571.8147  0.0017 -4.9432
siesta:   29    -9571.4577    -9571.6649    -9571.7474  0.0011 -4.9427
siesta:   30    -9571.4577    -9571.5862    -9571.6687  0.0010 -4.9425
siesta:   31    -9571.4577    -9571.5536    -9571.6361  0.0006 -4.9426
siesta:   32    -9571.4577    -9571.5123    -9571.5948  0.0005 -4.9426
siesta:   33    -9571.4577    -9571.4904    -9571.5728  0.0005 -4.9427
siesta:   34    -9571.4577    -9571.4672    -9571.5496  0.0003 -4.9428
siesta:   35    -9571.4577    -9571.4454    -9571.5278  0.0002 -4.9428
siesta:   36    -9571.4577    -9571.4418    -9571.5243  0.0002 -4.9428
siesta:   37    -9571.4577    -9571.4478    -9571.5303  0.0002 -4.9428
siesta:   38    -9571.4577    -9571.4476    -9571.5300  0.0001 -4.9429
siesta:   39    -9571.4577    -9571.4509    -9571.5333  0.0001 -4.9429

siesta: E_KS(eV) =            -9571.4568

siesta: E_KS - E_eggbox =     -9571.4568

siesta: Atomic forces (eV/Ang):
----------------------------------------
   Tot   -0.118466   -0.024379    0.000000
----------------------------------------
   Max  565.314593
   Res  157.340888    sqrt( Sum f_i^2 / 3N )
----------------------------------------
   Max  565.314593    constrained

Stress-tensor-Voigt (kbar):     -801.76    -2847.90       -0.56       -5.61        0.00        0.00
(Free)E + p*V (eV/cell)    -8133.7804
Target enthalpy (eV/cell)    -9571.5393

siesta: Stress tensor (static) (eV/Ang**3):
        -0.500416   -0.003504    0.000000
        -0.003504   -1.777502    0.000000
         0.000000    0.000000   -0.000349

siesta: Pressure (static):       1216.74194702  kBar

siesta: Stress tensor (total) (eV/Ang**3):
        -0.500416   -0.003504    0.000000
        -0.003504   -1.777502    0.000000
         0.000000    0.000000   -0.000349

siesta: Pressure (total):       1216.74194702  kBar

siesta: Temp_ion =       0.000 K

* Maximum dynamic memory allocated =   230 MB
Computing bands...

siesta: Program's energy decomposition (eV):
siesta: Ebs     =     -4298.065556
siesta: Eions   =     16610.217114
siesta: Ena     =      4387.520320
siesta: Ekin    =      8588.674258
siesta: Enl     =      -864.723013
siesta: DEna    =      -809.077882
siesta: DUscf   =       107.656529
siesta: DUext   =         0.000000
siesta: Exc     =     -4371.289918
siesta: eta*DQ  =         0.000000
siesta: Emadel  =         0.000000
siesta: Emeta   =         0.000000
siesta: Emolmec =         0.000000
siesta: Ekinion =         0.000000
siesta: Eharris =     -9571.457730
siesta: Etot    =     -9571.456820
siesta: FreeEng =     -9571.539276

siesta: Final energy (eV):
siesta:  Band Struct. =   -4298.065556
siesta:       Kinetic =    8588.674258
siesta:       Hartree =   28431.630023
siesta:    Ext. field =       0.000000
siesta:   Exch.-corr. =   -4371.289918
siesta:  Ion-electron =  -65145.539298
siesta:       Ion-ion =   22925.068115
siesta:       Ekinion =       0.000000
siesta:         Total =   -9571.456820

siesta: Atomic forces (eV/Ang):
siesta:      1    2.420726   -6.243117    0.000000
siesta:      2    4.462917   -1.751427    0.000000
siesta:      3    8.299365    2.037851    0.000000
siesta:      4   16.449698   -2.408570    0.000000
siesta:      5   -0.162199   -2.305520    0.000000
siesta:      6   -5.834658    3.505172    0.000000
siesta:      7    0.039233   -1.233262    0.000000
siesta:      8    2.501848    3.178020    0.000000
siesta:      9  -20.289817   -1.228751    0.000000
siesta:     10   -0.111800  409.056883    0.000000
siesta:     11    0.098889    3.844878    0.000000
siesta:     12   -4.252673   -0.643139    0.000000
siesta:     13   -0.086913   -1.319683    0.000000
siesta:     14   -1.087848    4.059149    0.000000
siesta:     15   -1.052828  550.163456    0.000000
siesta:     16    0.475333 -128.371379    0.000000
siesta:     17    1.642644  127.923729    0.000000
siesta:     18  -17.914821 -552.778082    0.000000
siesta:     19   -1.942175  126.659523    0.000000
siesta:     20   18.551049 -554.152386    0.000000
siesta:     21   26.367128    6.060614    0.000000
siesta:     22   33.336632 -549.425940    0.000000
siesta:     23    6.104097    3.440353    0.000000
siesta:     24   -2.379166    0.732639    0.000000
siesta:     25    5.775317    2.772693    0.000000
siesta:     26   -1.256070   -0.127537    0.000000
siesta:     27  -27.018822    5.561987    0.000000
siesta:     28  -34.291713 -549.596189    0.000000
siesta:     29   16.579926  546.551571    0.000000
siesta:     30   -2.415728 -126.268937    0.000000
siesta:     31   32.399767  549.194066    0.000000
siesta:     32   26.562520   -5.238973    0.000000
siesta:     33   -4.048463   -4.952547    0.000000
siesta:     34    2.314424    7.076497    0.000000
siesta:     35    0.810569   -5.572095    0.000000
siesta:     36  -13.595271  547.796978    0.000000
siesta:     37    1.801977 -127.122922    0.000000
siesta:     38   -0.287233  546.475366    0.000000
siesta:     39    0.127346 -124.759469    0.000000
siesta:     40   23.095895  558.268396    0.000000
siesta:     41  -31.846448  548.758858    0.000000
siesta:     42  -26.199730   -4.053277    0.000000
siesta:     43  -24.761481  555.514276    0.000000
siesta:     44    0.259930   -1.447360    0.000000
siesta:     45    2.484022   -2.117837    0.000000
siesta:     46   -2.824626    0.213435    0.000000
siesta:     47   -0.498102    2.002368    0.000000
siesta:     48   -0.453238    0.699313    0.000000
siesta:     49   -2.616689    1.833806    0.000000
siesta:     50   -0.239635    0.369017    0.000000
siesta:     51    1.272869   -0.941511    0.000000
siesta:     52   -2.615456   -1.568518    0.000000
siesta:     53    0.272108    0.755691    0.000000
siesta:     54    0.295655   -0.657342    0.000000
siesta:     55    0.459758    6.629617    0.000000
siesta:     56   -0.050723   -6.821343    0.000000
siesta:     57   -1.780758    2.325085    0.000000
siesta:     58    0.616154    0.191178    0.000000
siesta:     59   -2.760983    0.941936    0.000000
siesta:     60    0.032008 -565.314593    0.000000
siesta:     61   -0.469586    0.464772    0.000000
siesta:     62    1.034933   -2.263422    0.000000
siesta:     63   19.595642    5.760635    0.000000
siesta:     64   21.944976 -556.779651    0.000000
siesta:     65  -22.067498    5.749619    0.000000
siesta:     66  -24.198729 -556.744126    0.000000
siesta:     67   -1.688398   -0.047731    0.000000
siesta:     68    2.505117    1.875269    0.000000
siesta:     69   -0.587192  126.066456    0.000000
siesta:     70    1.501155 -543.698617    0.000000
siesta:     71    1.876886  127.713312    0.000000
siesta:     72   -0.799510 -404.293591    0.000000
siesta: ----------------------------------------
siesta:    Tot   -0.118466   -0.024379    0.000000

siesta: Stress tensor (static) (eV/Ang**3):
siesta:    -0.500416   -0.003504    0.000000
siesta:    -0.003504   -1.777502    0.000000
siesta:     0.000000    0.000000   -0.000349

siesta: Cell volume =       1893.226884 Ang**3

siesta: Pressure (static):
siesta:                Solid            Molecule  Units
siesta:           0.00827108          0.12195902  Ry/Bohr**3
siesta:           0.75942238         11.19786266  eV/Ang**3
siesta:        1216.74194702      17941.14782921  kBar
(Free)E+ p_basis*V_orbitals  =       -9536.378311
(Free)Eharris+ p_basis*V_orbitals  =       -9536.385174

siesta: Electric dipole (a.u.)  =    0.000000    0.000000    0.000000
siesta: Electric dipole (Debye) =    0.000000    0.000000    0.000000

* Maximum dynamic memory allocated : Node    0 =   230 MB
* Maximum dynamic memory allocated : Node    1 =    81 MB
* Maximum dynamic memory allocated : Node    2 =    83 MB
* Maximum dynamic memory allocated : Node    3 =   217 MB
* Maximum dynamic memory allocated : Node    4 =   227 MB
* Maximum dynamic memory allocated : Node    5 =    83 MB
* Maximum dynamic memory allocated : Node    6 =    87 MB
* Maximum dynamic memory allocated : Node    7 =   210 MB

* Maximum memory occured during matrixMtoO                    

timer: CPU execution times:
timer:  Routine       Calls   Time/call    Tot.time        %
timer:  siesta            1  258510.753  258510.753   100.00
timer:  Setup             1       3.170       3.170     0.00
timer:  bands             3     269.274     807.823     0.31
timer:  writewave         1       0.017       0.017     0.00
timer:  KSV_init          1       0.005       0.005     0.00
timer:  IterMD            1  257691.181  257691.181    99.68
timer:  hsparse           1       0.394       0.394     0.00
timer:  overlap           1       7.777       7.777     0.00
timer:  IterSCF          39    6602.084  257481.286    99.60
timer:  kinefsm           2       4.016       8.033     0.00
timer:  nlefsm            2      20.812      41.624     0.02
timer:  DHSCF            40     110.176    4407.043     1.70
timer:  DHSCF1            1       0.996       0.996     0.00
timer:  DHSCF2            1      43.101      43.101     0.02
timer:  REORD           322       0.010       3.201     0.00
timer:  POISON           41       2.263      92.769     0.04
timer:  DHSCF3           40     108.019    4320.745     1.67
timer:  rhoofd           40      23.436     937.460     0.36
timer:  cellXC           40       3.521     140.822     0.05
timer:  vmat             40      53.268    2130.710     0.82
timer:  MolMec            2       0.000       0.000     0.00
timer:  diagon           39    6490.742  253138.956    97.92
timer:  c-eigval      13849       6.685   92574.499    35.81
timer:  c-buildHS     13849       0.122    1691.870     0.65
timer:  cdiag         27577       6.896  190160.967    73.56
timer:  cdiag1        27577       0.428   11811.131     4.57
timer:  cdiag2        27577       1.916   52836.151    20.44
timer:  cdiag3        27577       3.939  108624.461    42.02
timer:  cdiag4        27577       0.229    6313.900     2.44
timer:  c-eigvec      13728       7.305  100286.305    38.79
timer:  c-buildD      13728       4.441   60968.093    23.58
timer:  DHSCF4            1      40.090      40.090     0.02
timer:  dfscf             1      37.473      37.473     0.01
timer:  overfsm           1       0.465       0.465     0.00
timer:  optical           1       7.502       7.502     0.00
  

elaps: ELAPSED times:
elaps:  Routine       Calls   Time/call    Tot.time        %
elaps:  siesta            1   32351.882   32351.882   100.00
elaps:  Setup             1       0.395       0.395     0.00
elaps:  bands             3      33.710     101.130     0.31
elaps:  writewave         1       0.002       0.002     0.00
elaps:  KSV_init          1       0.000       0.000     0.00
elaps:  IterMD            1   32249.339   32249.339    99.68
elaps:  hsparse           1       0.049       0.049     0.00
elaps:  overlap           1       0.982       0.982     0.00
elaps:  IterSCF          39     826.233   32223.082    99.60
elaps:  kinefsm           2       0.509       1.018     0.00
elaps:  nlefsm            2       2.668       5.336     0.02
elaps:  DHSCF            40      13.901     556.056     1.72
elaps:  DHSCF1            1       0.130       0.130     0.00
elaps:  DHSCF2            1       5.388       5.388     0.02
elaps:  REORD           322       0.001       0.429     0.00
elaps:  POISON           41       0.283      11.611     0.04
elaps:  DHSCF3           40      13.514     540.557     1.67
elaps:  rhoofd           40       6.024     240.950     0.74
elaps:  cellXC           40       0.440      17.587     0.05
elaps:  vmat             40       6.664     266.553     0.82
elaps:  MolMec            2       0.000       0.000     0.00
elaps:  diagon           39     812.329   31680.834    97.93
elaps:  c-eigval      13849       0.836   11582.707    35.80
elaps:  c-buildHS     13849       0.017     231.470     0.72
elaps:  cdiag         27577       0.848   23390.829    72.30
elaps:  cdiag1        27577       0.053    1468.675     4.54
elaps:  cdiag2        27577       0.240    6610.940    20.43
elaps:  cdiag3        27577       0.494   13609.340    42.07
elaps:  cdiag4        27577       0.029     791.141     2.45
elaps:  c-eigvec      13728       0.888   12192.857    37.69
elaps:  c-buildD      13728       0.582    7989.851    24.70
elaps:  DHSCF4            1       9.694       9.694     0.03
elaps:  dfscf             1       9.189       9.189     0.03
elaps:  overfsm           1       0.060       0.060     0.00
elaps:  optical           1       0.000       0.000     0.00
  
>> End of run:   8-MAY-2016  21:48:43
