Siesta Version:                                        siesta-3.2-pl-3
Architecture  : x86_64-unknown-linux-gnu--unknown
Compiler flags: mpiifort -g -O2 -fPIC -xSSE4.1 -fp-model source -shared-intel 
PARALLEL version

* Running on    8 nodes in parallel
>> Start of run:  21-APR-2016   3:29:38

                           ***********************       
                           *  WELCOME TO SIESTA  *       
                           ***********************       

reinit: Reading from standard input
************************** Dump of input data file ****************************
#(1) General system descriptors
SystemName            GRP_doping    # Descriptive name of the system
SystemLabel           GRP_doping    # Short name for naming files
%include STRUCT.fdf
%include KPT.fdf
%include BASIS.fdf
#%include TS.fdf # for transiesta calculation
#(4) DFT, Grid, SCF
XC.functional         GGA           # LDA or GGA (default = LDA)
XC.authors            PBE           # CA (Ceperley-Aldr) = PZ
                                    #    (Perdew-Zunger) - LDA - Default
                                    # PW92 (Perdew-Wang-92) - LDA
                                    # PBE (Perdew-Burke-Ernzerhof) - GGA
MeshCutoff            200.000000    Ry      # Default: 50.0 Ry ~ 0.444 Bohr
                                    #         100.0 Ry ~ 0.314 Bohr
MaxSCFIterations      500           # Default: 50
DM.MixingWeight       0.05          # Default: 0.25
DM.NumberPulay        10            # Default: 0
DM.PulayOnFile        F             # SystemLabel.P1, SystemLabel.P2
DM.Tolerance          1.d-4         # Default: 1.d-4
DM.UseSaveDM          .true.        # because of the bug
SCFMustConverge       .true.
NeglNonOverlapInt     F             # Default: F
#(5) Eigenvalue problem: order-N or diagonalization
SolutionMethod        Diagon        # or Transiesta
ElectronicTemperature 300.0 K       # Default: 300.0 K
#(6) Molecular dynamics and relaxations
#MD.TypeOfRun          CG            # Type of dynamics:
#MD.VariableCell       F
#MD.NumCGsteps         0           # 0 for single-point / 100 for gopt
#MD.MaxCGDispl         0.2 Bohr      # Default: 0.2 Bohr
#MD.MaxForceTol        0.02 eV/Ang   # Default: 0.04 eV/Ang
#MD.MaxStressTol       1.0 GPa       # Default: 1.0 GPa
# Geometry Constraints
#%block GeometryConstraints
#	position from 1 to 44
#%endblock GeometryConstraints
BandLinesScale   pi/a
%block BandLines
 1   0.00000000  0.00000000  0.00000000
50   0.00000000  0.07809418  0.00000000
50   0.04509075  0.07809242  0.00000000
20   0.00000000  0.00000000  0.00000000
%endblock BandLines
************************** End of input data file *****************************

reinit: -----------------------------------------------------------------------
reinit: System Name: GRP_doping
reinit: -----------------------------------------------------------------------
reinit: System Label: GRP_doping                                                  
reinit: -----------------------------------------------------------------------

initatom: Reading input for the pseudopotentials and atomic orbitals ----------
 Species number:            1  Label: B Atomic number:           5
 Species number:            2  Label: C Atomic number:           6
Ground state valence configuration:   2s02  2p01
Reading pseudopotential information in formatted form from B.psf

Valence configuration for pseudopotential generation:
2s( 2.00) rc: 1.74
2p( 1.00) rc: 1.74
3d( 0.00) rc: 1.74
4f( 0.00) rc: 1.74
Ground state valence configuration:   2s02  2p02
Reading pseudopotential information in formatted form from C.psf

Valence configuration for pseudopotential generation:
2s( 2.00) rc: 1.54
2p( 2.00) rc: 1.54
3d( 0.00) rc: 1.54
4f( 0.00) rc: 1.54
For B, standard SIESTA heuristics set lmxkb to 3
 (one more than the basis l, including polarization orbitals).
Use PS.lmax or PS.KBprojectors blocks to override.
For C, standard SIESTA heuristics set lmxkb to 3
 (one more than the basis l, including polarization orbitals).
Use PS.lmax or PS.KBprojectors blocks to override.

<basis_specs>
===============================================================================
B                    Z=   5    Mass=  10.810        Charge= 0.17977+309
Lmxo=1 Lmxkb= 3    BasisType=split      Semic=F
L=0  Nsemic=0  Cnfigmx=2
          n=1  nzeta=2  polorb=0
            splnorm:   0.15000    
               vcte:    0.0000    
               rinn:    0.0000    
                rcs:    0.0000      0.0000    
            lambdas:    1.0000      1.0000    
L=1  Nsemic=0  Cnfigmx=2
          n=1  nzeta=2  polorb=1
            splnorm:   0.15000    
               vcte:    0.0000    
               rinn:    0.0000    
                rcs:    0.0000      0.0000    
            lambdas:    1.0000      1.0000    
-------------------------------------------------------------------------------
L=0  Nkbl=1  erefs: 0.17977+309
L=1  Nkbl=1  erefs: 0.17977+309
L=2  Nkbl=1  erefs: 0.17977+309
L=3  Nkbl=1  erefs: 0.17977+309
===============================================================================
</basis_specs>

atom: Called for B                     (Z =   5)

read_vps: Pseudopotential generation method:
read_vps: ATM3      Troullier-Martins                       
Total valence charge:    3.00000

read_vps: Pseudopotential includes a core correction:
read_vps: Pseudo-core for xc-correction

xc_check: Exchange-correlation functional:
xc_check: GGA Perdew, Burke & Ernzerhof 1996
V l=0 = -2*Zval/r beyond r=  1.7165
V l=1 = -2*Zval/r beyond r=  1.7165
V l=2 = -2*Zval/r beyond r=  1.7165
V l=3 = -2*Zval/r beyond r=  1.6951
All V_l potentials equal beyond r=  1.7165
This should be close to max(r_c) in ps generation
All pots = -2*Zval/r beyond r=  1.7165

VLOCAL1: 99.0% of the norm of Vloc inside     14.733 Ry
VLOCAL1: 99.9% of the norm of Vloc inside     33.577 Ry
atom: Maximum radius for 4*pi*r*r*local-pseudopot. charge    2.04484
atom: Maximum radius for r*vlocal+2*Zval:    1.75994
GHOST: No ghost state for L =  0
GHOST: No ghost state for L =  1
GHOST: No ghost state for L =  2
GHOST: No ghost state for L =  3

KBgen: Kleinman-Bylander projectors: 
   l= 0   rc=  1.897051   el= -0.693730   Ekb=  4.595746   kbcos=  0.286105
   l= 1   rc=  1.920920   el= -0.265236   Ekb= -2.350715   kbcos= -0.315747
   l= 2   rc=  2.044840   el=  0.002055   Ekb= -0.690767   kbcos= -0.013822
   l= 3   rc=  2.149707   el=  0.003188   Ekb= -0.315358   kbcos= -0.002055

KBgen: Total number of  Kleinman-Bylander projectors:   16
atom: -------------------------------------------------------------------------

atom: SANKEY-TYPE ORBITALS:
atom: Selected multiple-zeta basis: split     

SPLIT: Orbitals with angular momentum L= 0

SPLIT: Basis orbitals for state 2s

SPLIT: PAO cut-off radius determined from an
SPLIT: energy shift=  0.007350 Ry

   izeta = 1
                 lambda =    1.000000
                     rc =    5.422032
                 energy =   -0.686029
                kinetic =    0.576707
    potential(screened) =   -1.262736
       potential(ionic) =   -3.271094

   izeta = 2
                 rmatch =    4.222573
              splitnorm =    0.150000
                 energy =   -0.602132
                kinetic =    0.858975
    potential(screened) =   -1.461107
       potential(ionic) =   -3.582536

SPLIT: Orbitals with angular momentum L= 1

SPLIT: Basis orbitals for state 2p

SPLIT: PAO cut-off radius determined from an
SPLIT: energy shift=  0.007350 Ry

   izeta = 1
                 lambda =    1.000000
                     rc =    6.790259
                 energy =   -0.258578
                kinetic =    1.481412
    potential(screened) =   -1.739989
       potential(ionic) =   -3.657461

   izeta = 2
                 rmatch =    4.608740
              splitnorm =    0.150000
                 energy =   -0.173757
                kinetic =    2.186690
    potential(screened) =   -2.360447
       potential(ionic) =   -4.464260

POLgen: Perturbative polarization orbital with L=  2

POLgen: Polarization orbital for state 2p

   izeta = 1
                     rc =    6.790259
                 energy =    0.684082
                kinetic =    1.471481
    potential(screened) =   -0.787399
       potential(ionic) =   -2.406985
atom: Total number of Sankey-type orbitals: 13

atm_pop: Valence configuration (for local Pseudopot. screening):
 2s( 2.00)                                                            
 2p( 1.00)                                                            
Vna: chval, zval:    3.00000   3.00000

Vna:  Cut-off radius for the neutral-atom potential:   6.790259
comcore: Pseudo-core radius Rcore=  2.122997

atom: _________________________________________________________________________

<basis_specs>
===============================================================================
C                    Z=   6    Mass=  12.010        Charge= 0.17977+309
Lmxo=1 Lmxkb= 3    BasisType=split      Semic=F
L=0  Nsemic=0  Cnfigmx=2
          n=1  nzeta=2  polorb=0
            splnorm:   0.15000    
               vcte:    0.0000    
               rinn:    0.0000    
                rcs:    0.0000      0.0000    
            lambdas:    1.0000      1.0000    
L=1  Nsemic=0  Cnfigmx=2
          n=1  nzeta=2  polorb=1
            splnorm:   0.15000    
               vcte:    0.0000    
               rinn:    0.0000    
                rcs:    0.0000      0.0000    
            lambdas:    1.0000      1.0000    
-------------------------------------------------------------------------------
L=0  Nkbl=1  erefs: 0.17977+309
L=1  Nkbl=1  erefs: 0.17977+309
L=2  Nkbl=1  erefs: 0.17977+309
L=3  Nkbl=1  erefs: 0.17977+309
===============================================================================
</basis_specs>

atom: Called for C                     (Z =   6)

read_vps: Pseudopotential generation method:
read_vps: ATM3      Troullier-Martins                       
Total valence charge:    4.00000

read_vps: Pseudopotential includes a core correction:
read_vps: Pseudo-core for xc-correction

xc_check: Exchange-correlation functional:
xc_check: GGA Perdew, Burke & Ernzerhof 1996
V l=0 = -2*Zval/r beyond r=  1.5227
V l=1 = -2*Zval/r beyond r=  1.5227
V l=2 = -2*Zval/r beyond r=  1.5227
V l=3 = -2*Zval/r beyond r=  1.5038
All V_l potentials equal beyond r=  1.5227
This should be close to max(r_c) in ps generation
All pots = -2*Zval/r beyond r=  1.5227

VLOCAL1: 99.0% of the norm of Vloc inside     18.722 Ry
VLOCAL1: 99.9% of the norm of Vloc inside     42.668 Ry
atom: Maximum radius for 4*pi*r*r*local-pseudopot. charge    1.83678
atom: Maximum radius for r*vlocal+2*Zval:    1.58088
GHOST: No ghost state for L =  0
GHOST: No ghost state for L =  1
GHOST: No ghost state for L =  2
GHOST: No ghost state for L =  3

KBgen: Kleinman-Bylander projectors: 
   l= 0   rc=  1.704034   el= -1.009801   Ekb=  5.335044   kbcos=  0.316824
   l= 1   rc=  1.704034   el= -0.388707   Ekb= -3.785862   kbcos= -0.366464
   l= 2   rc=  1.791422   el=  0.001971   Ekb= -0.970471   kbcos= -0.009212
   l= 3   rc=  1.859892   el=  0.003065   Ekb= -0.399525   kbcos= -0.001223

KBgen: Total number of  Kleinman-Bylander projectors:   16
atom: -------------------------------------------------------------------------

atom: SANKEY-TYPE ORBITALS:
atom: Selected multiple-zeta basis: split     

SPLIT: Orbitals with angular momentum L= 0

SPLIT: Basis orbitals for state 2s

SPLIT: PAO cut-off radius determined from an
SPLIT: energy shift=  0.007350 Ry

   izeta = 1
                 lambda =    1.000000
                     rc =    4.632753
                 energy =   -1.002270
                kinetic =    0.855760
    potential(screened) =   -1.858031
       potential(ionic) =   -5.417575

   izeta = 2
                 rmatch =    3.431921
              splitnorm =    0.150000
                 energy =   -0.867111
                kinetic =    1.300804
    potential(screened) =   -2.167915
       potential(ionic) =   -5.962684

SPLIT: Orbitals with angular momentum L= 1

SPLIT: Basis orbitals for state 2p

SPLIT: PAO cut-off radius determined from an
SPLIT: energy shift=  0.007350 Ry

   izeta = 1
                 lambda =    1.000000
                     rc =    5.658549
                 energy =   -0.381140
                kinetic =    2.399701
    potential(screened) =   -2.780841
       potential(ionic) =   -6.206085

   izeta = 2
                 rmatch =    3.653288
              splitnorm =    0.150000
                 energy =   -0.249149
                kinetic =    3.542762
    potential(screened) =   -3.791911
       potential(ionic) =   -7.581078

POLgen: Perturbative polarization orbital with L=  2

POLgen: Polarization orbital for state 2p

   izeta = 1
                     rc =    5.658549
                 energy =    1.109913
                kinetic =    2.304789
    potential(screened) =   -1.194876
       potential(ionic) =   -4.013592
atom: Total number of Sankey-type orbitals: 13

atm_pop: Valence configuration (for local Pseudopot. screening):
 2s( 2.00)                                                            
 2p( 2.00)                                                            
Vna: chval, zval:    4.00000   4.00000

Vna:  Cut-off radius for the neutral-atom potential:   5.658549
comcore: Pseudo-core radius Rcore=  1.791422

atom: _________________________________________________________________________

prinput: Basis input ----------------------------------------------------------

PAO.BasisType split     

%block ChemicalSpeciesLabel
    1    5 B                       # Species index, atomic number, species label
    2    6 C                       # Species index, atomic number, species label
%endblock ChemicalSpeciesLabel

%block PAO.Basis                 # Define Basis set
B                     2                    # Species label, number of l-shells
 n=2   0   2                         # n, l, Nzeta 
   5.422      4.223   
   1.000      1.000   
 n=2   1   2 P   1                   # n, l, Nzeta, Polarization, NzetaPol
   6.790      4.609   
   1.000      1.000   
C                     2                    # Species label, number of l-shells
 n=2   0   2                         # n, l, Nzeta 
   4.633      3.432   
   1.000      1.000   
 n=2   1   2 P   1                   # n, l, Nzeta, Polarization, NzetaPol
   5.659      3.653   
   1.000      1.000   
%endblock PAO.Basis

prinput: ----------------------------------------------------------------------

coor:   Atomic-coordinates input format  =     Fractional

siesta: Atomic coordinates (Bohr) and species
siesta:     -2.35420  38.89134   0.00000  1        1
siesta:      2.30256  38.89134   0.00000  1        2
siesta:      4.63094  34.85847   0.00000  1        3
siesta:      4.63094  37.54693   0.00000  1        4
siesta:     -4.68258  34.85847   0.00000  1        5
siesta:     -4.68258  37.54693   0.00000  1        6
siesta:      2.30256   9.31683   0.00000  1        7
siesta:      4.63094  10.66124   0.00000  1        8
siesta:      4.63094  13.34970   0.00000  1        9
siesta:      9.28770  18.72698   0.00000  1       10
siesta:     -2.35420   9.31683   0.00000  1       11
siesta:     -0.02582  10.66124   0.00000  1       12
siesta:     -0.02582  13.34970   0.00000  1       13
siesta:      2.30256  14.69411   0.00000  1       14
siesta:     -4.68258  10.66124   0.00000  1       15
siesta:     -4.68258  13.34970   0.00000  1       16
siesta:     -2.35420  14.69411   0.00000  1       17
siesta:      2.30256  22.75985   0.00000  1       18
siesta:     -2.35420  25.44831   0.00000  1       19
siesta:     -9.33934  29.48119   0.00000  1       20
siesta:      2.30256  33.51406   0.00000  1       21
siesta:     -2.35420  33.51406   0.00000  1       22
siesta:     -0.02582  34.85847   0.00000  1       23
siesta:     -0.02582  37.54693   0.00000  1       24
siesta:     -0.02582  45.61267   0.00000  1       25
siesta:     -0.02582   2.59549   0.00000  2       26
siesta:     -0.02582   5.28395   0.00000  2       27
siesta:     -2.35420  41.57980   0.00000  2       28
siesta:      2.30256  41.57980   0.00000  2       29
siesta:      6.95932  30.82560   0.00000  2       30
siesta:      6.95932  33.51406   0.00000  2       31
siesta:      9.28770  26.79272   0.00000  2       32
siesta:      9.28770  29.48119   0.00000  2       33
siesta:      2.30256   6.62836   0.00000  2       34
siesta:      6.95932  14.69411   0.00000  2       35
siesta:      6.95932  17.38257   0.00000  2       36
siesta:      9.28770  21.41544   0.00000  2       37
siesta:     11.61608  22.75985   0.00000  2       38
siesta:     11.61608  25.44831   0.00000  2       39
siesta:     -2.35420   6.62836   0.00000  2       40
siesta:      2.30256  17.38257   0.00000  2       41
siesta:      4.63094  18.72698   0.00000  2       42
siesta:      4.63094  21.41544   0.00000  2       43
siesta:      6.95932  22.75985   0.00000  2       44
siesta:      6.95932  25.44831   0.00000  2       45
siesta:     -2.35420  17.38257   0.00000  2       46
siesta:     -0.02582  18.72698   0.00000  2       47
siesta:     -0.02582  21.41544   0.00000  2       48
siesta:      2.30256  25.44831   0.00000  2       49
siesta:     -7.01096  14.69411   0.00000  2       50
siesta:     -7.01096  17.38257   0.00000  2       51
siesta:     -4.68258  18.72698   0.00000  2       52
siesta:     -4.68258  21.41544   0.00000  2       53
siesta:     -2.35420  22.75985   0.00000  2       54
siesta:     -9.33934  18.72698   0.00000  2       55
siesta:     -9.33934  21.41544   0.00000  2       56
siesta:     -7.01096  22.75985   0.00000  2       57
siesta:     -7.01096  25.44831   0.00000  2       58
siesta:    -11.66772  22.75985   0.00000  2       59
siesta:    -11.66772  25.44831   0.00000  2       60
siesta:     -9.33934  26.79272   0.00000  2       61
siesta:      4.63094  26.79272   0.00000  2       62
siesta:      4.63094  29.48119   0.00000  2       63
siesta:     -0.02582  26.79272   0.00000  2       64
siesta:     -0.02582  29.48119   0.00000  2       65
siesta:     -4.68258  26.79272   0.00000  2       66
siesta:     -4.68258  29.48119   0.00000  2       67
siesta:      2.30256  30.82560   0.00000  2       68
siesta:     -2.35420  30.82560   0.00000  2       69
siesta:     -7.01096  30.82560   0.00000  2       70
siesta:     -7.01096  33.51406   0.00000  2       71
siesta:     -0.02582  42.92421   0.00000  2       72

siesta: System type = slab      

initatomlists: Number of atoms, orbitals, and projectors:     72   936  1152

siesta: ******************** Simulation parameters ****************************
siesta:
siesta: The following are some of the parameters of the simulation.
siesta: A complete list of the parameters used, including default values,
siesta: can be found in file out.fdf
siesta:
redata: Non-Collinear-spin run           =     F
redata: SpinPolarized (Up/Down) run      =     F
redata: Number of spin components        =     1
redata: Long output                      =     F
redata: Number of Atomic Species         =        2
redata: Charge density info will appear in .RHO file
redata: Write Mulliken Pop.              =     NO
redata: Mesh Cutoff                      =   200.0000  Ry
redata: Net charge of the system         =     0.0000 |e|
redata: Max. number of SCF Iter          =      500
redata: SCF convergence failure will abort job
redata: Performing Pulay mixing using    =    10 iterations
redata: Mix DM in first SCF step ?       =     F
redata: Write Pulay info on disk?        =     F
redata: Discard 1st Pulay DM after  kick =     F
redata: New DM Mixing Weight             =     0.0500
redata: New DM Occupancy tolerance       = 0.000000000001
redata: No kicks to SCF
redata: DM Mixing Weight for Kicks       =     0.5000
redata: DM Tolerance for SCF             =     0.000100
redata: Require Energy convergence for SCF =     F
redata: DM Energy tolerance for SCF      =     0.000100 eV
redata: Require Harris convergence for SCF =     F
redata: DM Harris energy tolerance for SCF =     0.000100 eV
redata: Using Saved Data (generic)   =     F
redata: Use continuation files for DM    =     T
redata: Neglect nonoverlap interactions  =     F
redata: Method of Calculation            =     Diagonalization
redata: Divide and Conquer               =     T
redata: Electronic Temperature           =     0.0019  Ry
redata: Fix the spin of the system       =     F
redata: Dynamics option                  =     Verlet MD run
redata: Initial MD time step             =        1
redata:   Final MD time step             =        1
redata: Length of MD time step           =     1.0000  fs
redata: Initial Temperature of MD run    =     0.0000  K
redata: Perform a MD quench              =     F
redata: ***********************************************************************
Total number of electrons:   263.000000
Total ionic charge:   263.000000

* ProcessorY, Blocksize:    2  24

k-point displ. along   1 input, could be:     0.50    0.00
k-point displ. along   2 input, could be:     0.50    0.00
 Kpoints in:          231 . Kpoints trimmed:          231

siesta: k-grid: Number of k-points =   231
siesta: k-grid: Cutoff (effective) =     5.000 Ang
siesta: k-grid: Supercell and displacements
siesta: k-grid:   21   0   0      0.500
siesta: k-grid:    0  21   0      0.500
siesta: k-grid:    0   0   1      0.000
Naive supercell factors:     2    2    2

superc: Internal auxiliary supercell:     2 x     2 x     2  =       8
superc: Number of atoms, orbitals, and projectors:    576   7488   9216

* Maximum dynamic memory allocated =     4 MB

siesta:                 ==============================
                            Begin MD step =      1
                        ==============================

superc: Internal auxiliary supercell:     2 x     2 x     2  =       8
superc: Number of atoms, orbitals, and projectors:    576   7488   9216

outcell: Unit cell vectors (Ang):
       12.804619    7.392750    0.000000
        0.000000   14.785500    0.000000
        0.000000    0.000000   10.000000

outcell: Cell vector modules (Ang)   :   14.785500   14.785500   10.000000
outcell: Cell angles (23,13,12) (deg):     90.0000     90.0000     60.0000
outcell: Cell volume (Ang**3)        :   1893.2269
New_DM. Step:     1
Initializing Density Matrix...

InitMesh: MESH =   120 x   120 x    90 =     1296000
InitMesh: Mesh cutoff (required, used) =   200.000   223.865 Ry

* Maximum dynamic memory allocated =   239 MB

stepf: Fermi-Dirac step function

siesta: Program's energy decomposition (eV):
siesta: Ebs     =     -5339.929182
siesta: Eions   =     15201.593291
siesta: Ena     =      4097.146106
siesta: Ekin    =      5059.728642
siesta: Enl     =       857.651599
siesta: DEna    =        -0.000006
siesta: DUscf   =         0.000000
siesta: DUext   =         0.000000
siesta: Exc     =     -4181.716487
siesta: eta*DQ  =         0.000000
siesta: Emadel  =         0.000000
siesta: Emeta   =         0.000000
siesta: Emolmec =         0.000000
siesta: Ekinion =         0.000000
siesta: Eharris =     -9282.510245
siesta: Etot    =     -9368.783437
siesta: FreeEng =     -9368.783437

siesta: iscf   Eharris(eV)      E_KS(eV)   FreeEng(eV)   dDmax  Ef(eV)
siesta:    1    -9282.5102    -9368.7834    -9368.7834  8.7223 -8.4836
timer: Routine,Calls,Time,% = IterSCF        1    3318.108  99.67
elaps: Routine,Calls,Wall,% = IterSCF        1     415.780  99.67
siesta:    2   -17012.7292    -7964.9605    -7965.0184 12.4246-12.1789
siesta:    3    -9871.6292    -9106.1571    -9106.2037  3.1463 -3.6922
siesta:    4    -9493.8095    -9129.3594    -9129.3937  2.5951 -5.3406
siesta:    5    -9445.8543    -9127.8721    -9127.9082  2.3921 -5.3186
siesta:    6    -9431.7616    -9126.3974    -9126.4342  2.3884 -5.2591
siesta:    7    -9146.2130    -9108.3479    -9108.3924  1.7864 -5.2926
siesta:    8    -9142.7533    -9099.5121    -9099.5486  1.6715 -5.2148
siesta:    9    -9130.2153    -9086.1078    -9086.1447  0.9995 -4.9087
siesta:   10    -9129.0667    -9087.2734    -9087.3003  0.9593 -4.9411
siesta:   11    -9129.0211    -9088.3357    -9088.3982  0.9368 -4.9123
siesta:   12    -9125.7063    -9112.3747    -9112.4297  0.4409 -4.9313
siesta:   13    -9123.8013    -9112.0436    -9112.1323  0.6704 -5.0612
siesta:   14    -9123.3118    -9113.8397    -9113.8864  0.4492 -5.0262
siesta:   15    -9123.5606    -9119.0437    -9119.0993  0.3000 -5.2220
siesta:   16    -9123.0929    -9119.5457    -9119.6007  0.2965 -5.2143
siesta:   17    -9121.8835    -9121.1440    -9121.1964  0.2593 -5.2251
siesta:   18    -9121.3809    -9122.7390    -9122.7808  0.2200 -5.2519
siesta:   19    -9121.2703    -9120.8398    -9120.9084  0.2103 -5.2360
siesta:   20    -9121.2702    -9117.1606    -9117.2260  0.2058 -5.2098
siesta:   21    -9121.0220    -9115.0741    -9115.1602  0.2410 -5.2047
siesta:   22    -9121.0248    -9114.0469    -9114.1353  0.2134 -5.2099
siesta:   23    -9121.0498    -9112.8831    -9112.9509  0.2092 -5.1823
siesta:   24    -9121.0225    -9114.0728    -9114.1613  0.2261 -5.2145
siesta:   25    -9121.0823    -9113.9622    -9114.0251  0.3423 -5.2013
siesta:   26    -9120.9653    -9113.1512    -9113.2404  0.1623 -5.1823
siesta:   27    -9120.8655    -9114.2582    -9114.3526  0.1150 -5.2153
siesta:   28    -9120.8549    -9114.6477    -9114.7426  0.1386 -5.2162
siesta:   29    -9120.8452    -9115.2882    -9115.3810  0.1158 -5.2158
siesta:   30    -9120.8422    -9116.2929    -9116.3850  0.1079 -5.2129
siesta:   31    -9120.8445    -9116.6112    -9116.7055  0.1175 -5.2168
siesta:   32    -9120.8520    -9118.8787    -9118.9701  0.1288 -5.2287
siesta:   33    -9120.8399    -9119.4894    -9119.5787  0.0814 -5.2269
siesta:   34    -9120.8349    -9119.9216    -9120.0160  0.0478 -5.2286
siesta:   35    -9120.8324    -9120.2924    -9120.3897  0.0425 -5.2241
siesta:   36    -9120.8280    -9121.1333    -9121.2312  0.0114 -5.2248
siesta:   37    -9120.8333    -9120.5076    -9120.6097  0.0491 -5.2246
siesta:   38    -9120.8286    -9120.7628    -9120.8593  0.0103 -5.2241
siesta:   39    -9120.8291    -9121.2523    -9121.3534  0.0121 -5.2250
siesta:   40    -9120.8281    -9121.1485    -9121.2486  0.0084 -5.2237
siesta:   41    -9120.8271    -9121.2084    -9121.3092  0.0153 -5.2250
siesta:   42    -9120.8274    -9120.9376    -9121.0395  0.0085 -5.2243
siesta:   43    -9120.8283    -9120.7987    -9120.9002  0.0027 -5.2245
siesta:   44    -9120.8284    -9120.8711    -9120.9717  0.0031 -5.2258
siesta:   45    -9120.8282    -9120.9094    -9121.0098  0.0029 -5.2261
siesta:   46    -9120.8280    -9120.8232    -9120.9237  0.0011 -5.2256
siesta:   47    -9120.8279    -9120.8309    -9120.9317  0.0010 -5.2255
siesta:   48    -9120.8280    -9120.8225    -9120.9234  0.0004 -5.2255
siesta:   49    -9120.8279    -9120.8359    -9120.9366  0.0010 -5.2256
siesta:   50    -9120.8280    -9120.8366    -9120.9374  0.0004 -5.2256
siesta:   51    -9120.8280    -9120.8348    -9120.9356  0.0005 -5.2255
siesta:   52    -9120.8280    -9120.8294    -9120.9301  0.0001 -5.2255
siesta:   53    -9120.8280    -9120.8258    -9120.9265  0.0002 -5.2255
siesta:   54    -9120.8280    -9120.8236    -9120.9244  0.0001 -5.2255

siesta: E_KS(eV) =            -9120.8283

siesta: E_KS - E_eggbox =     -9120.8283

siesta: Atomic forces (eV/Ang):
----------------------------------------
   Tot   -0.294726   -0.181595    0.000000
----------------------------------------
   Max  558.083262
   Res  114.956206    sqrt( Sum f_i^2 / 3N )
----------------------------------------
   Max  558.083262    constrained

Stress-tensor-Voigt (kbar):     -566.90    -2125.40       -0.69       -6.92        0.00        0.00
(Free)E + p*V (eV/cell)    -8060.2096
Target enthalpy (eV/cell)    -9120.9290

siesta: Stress tensor (static) (eV/Ang**3):
        -0.353827   -0.004316    0.000000
        -0.004316   -1.326553    0.000000
         0.000000    0.000000   -0.000432

siesta: Pressure (static):        897.66223866  kBar

siesta: Stress tensor (total) (eV/Ang**3):
        -0.353827   -0.004316    0.000000
        -0.004316   -1.326553    0.000000
         0.000000    0.000000   -0.000432

siesta: Pressure (total):        897.66223866  kBar

siesta: Temp_ion =       0.000 K

* Maximum dynamic memory allocated =   257 MB
Computing bands...

siesta: Program's energy decomposition (eV):
siesta: Ebs     =     -4053.413866
siesta: Eions   =     15201.593291
siesta: Ena     =      4097.146106
siesta: Ekin    =      7629.102387
siesta: Enl     =      -759.041604
siesta: DEna    =      -646.389636
siesta: DUscf   =        84.050695
siesta: DUext   =         0.000000
siesta: Exc     =     -4324.102918
siesta: eta*DQ  =         0.000000
siesta: Emadel  =         0.000000
siesta: Emeta   =         0.000000
siesta: Emolmec =         0.000000
siesta: Ekinion =         0.000000
siesta: Eharris =     -9120.828027
siesta: Etot    =     -9120.828261
siesta: FreeEng =     -9120.929000

siesta: Final energy (eV):
siesta:  Band Struct. =   -4053.413866
siesta:       Kinetic =    7629.102387
siesta:       Hartree =   23872.474097
siesta:    Ext. field =       0.000000
siesta:   Exch.-corr. =   -4324.102918
siesta:  Ion-electron =  -55163.750868
siesta:       Ion-ion =   18865.449041
siesta:       Ekinion =       0.000000
siesta:         Total =   -9120.828261

siesta: Atomic forces (eV/Ang):
siesta:      1   -0.611993   99.255103    0.000000
siesta:      2    0.580500   99.199627    0.000000
siesta:      3   18.360536   -3.198117    0.000000
siesta:      4   20.997663 -288.277860    0.000000
siesta:      5  -18.327826   -2.847654    0.000000
siesta:      6  -21.038165 -288.191447    0.000000
siesta:      7    0.393346  -99.030579    0.000000
siesta:      8   21.251030  288.469264    0.000000
siesta:      9   17.981596    2.698790    0.000000
siesta:     10    1.081932   -1.668568    0.000000
siesta:     11   -0.374770  -98.931404    0.000000
siesta:     12   -0.057233  287.330971    0.000000
siesta:     13    0.030494 -108.331072    0.000000
siesta:     14   15.986575  408.676767    0.000000
siesta:     15  -21.234332  288.167777    0.000000
siesta:     16  -18.213651    3.127317    0.000000
siesta:     17  -16.208792  408.240846    0.000000
siesta:     18   -0.326919   -0.926250    0.000000
siesta:     19    0.179511    0.909036    0.000000
siesta:     20   -1.152254    1.575076    0.000000
siesta:     21   15.928897 -404.151322    0.000000
siesta:     22  -15.689835 -404.450797    0.000000
siesta:     23   -0.138007  107.819918    0.000000
siesta:     24    0.008690 -287.131160    0.000000
siesta:     25    0.585049 -407.840306    0.000000
siesta:     26   -0.643519  549.644576    0.000000
siesta:     27    0.298446 -126.156695    0.000000
siesta:     28   -9.601819 -402.809497    0.000000
siesta:     29    9.924304 -403.190403    0.000000
siesta:     30    2.185759    1.149649    0.000000
siesta:     31    0.419879    0.052217    0.000000
siesta:     32    2.587413    1.823460    0.000000
siesta:     33   -0.747940   -0.212518    0.000000
siesta:     34   12.633810  401.341579    0.000000
siesta:     35    1.293028    0.638492    0.000000
siesta:     36   -0.757124   -3.330727    0.000000
siesta:     37    3.408261    1.632543    0.000000
siesta:     38   -0.153696    6.350636    0.000000
siesta:     39    0.208130   -5.933373    0.000000
siesta:     40  -13.013542  401.901314    0.000000
siesta:     41   24.091915   -1.334905    0.000000
siesta:     42   -1.138669    1.569192    0.000000
siesta:     43    2.773277   -1.465885    0.000000
siesta:     44   -0.123373    0.337460    0.000000
siesta:     45   -0.603108   -0.594691    0.000000
siesta:     46  -24.302134   -1.609858    0.000000
siesta:     47   -0.454169  411.430268    0.000000
siesta:     48   -3.638673    0.586878    0.000000
siesta:     49   -1.261310    4.901264    0.000000
siesta:     50   -0.546366    0.085384    0.000000
siesta:     51   -2.679261   -1.158213    0.000000
siesta:     52    1.210255    2.008779    0.000000
siesta:     53   -0.587135   -0.481995    0.000000
siesta:     54    1.270317   -4.640334    0.000000
siesta:     55    0.910263   -0.037385    0.000000
siesta:     56   -2.688620   -1.594873    0.000000
siesta:     57    0.591486    0.601868    0.000000
siesta:     58    0.253610   -0.250628    0.000000
siesta:     59   -0.094905    5.717243    0.000000
siesta:     60    0.193635   -6.177582    0.000000
siesta:     61   -3.440538   -1.551517    0.000000
siesta:     62    0.720183    0.697476    0.000000
siesta:     63   -0.841783   -2.830510    0.000000
siesta:     64    3.630197    0.483358    0.000000
siesta:     65    0.624917 -558.083262    0.000000
siesta:     66   -2.979741    1.502188    0.000000
siesta:     67    0.741770   -2.358897    0.000000
siesta:     68   22.916281    5.006531    0.000000
siesta:     69  -22.885038    4.865846    0.000000
siesta:     70    1.288105    3.184427    0.000000
siesta:     71   -1.122087   -0.374264    0.000000
siesta:     72   -0.157458  117.989834    0.000000
siesta: ----------------------------------------
siesta:    Tot   -0.294726   -0.181595    0.000000

siesta: Stress tensor (static) (eV/Ang**3):
siesta:    -0.353827   -0.004316    0.000000
siesta:    -0.004316   -1.326553    0.000000
siesta:     0.000000    0.000000   -0.000432

siesta: Cell volume =       1893.226884 Ang**3

siesta: Pressure (static):
siesta:                Solid            Molecule  Units
siesta:           0.00610206          0.08558760  Ry/Bohr**3
siesta:           0.56027064          7.85836219  eV/Ang**3
siesta:         897.66223866      12590.62037923  kBar
(Free)E+ p_basis*V_orbitals  =       -9082.292549
(Free)Eharris+ p_basis*V_orbitals  =       -9082.296973

siesta: Electric dipole (a.u.)  =    0.000000    0.000000    0.000000
siesta: Electric dipole (Debye) =    0.000000    0.000000    0.000000

* Maximum dynamic memory allocated : Node    0 =   257 MB
* Maximum dynamic memory allocated : Node    1 =    91 MB
* Maximum dynamic memory allocated : Node    2 =    94 MB
* Maximum dynamic memory allocated : Node    3 =   243 MB
* Maximum dynamic memory allocated : Node    4 =   226 MB
* Maximum dynamic memory allocated : Node    5 =    83 MB
* Maximum dynamic memory allocated : Node    6 =    85 MB
* Maximum dynamic memory allocated : Node    7 =   207 MB

* Maximum memory occured during matrixMtoO                    

timer: CPU execution times:
timer:  Routine       Calls   Time/call    Tot.time        %
timer:  siesta            1  180218.408  180218.408   100.00
timer:  Setup             1       2.838       2.838     0.00
timer:  bands             3     232.673     698.018     0.39
timer:  writewave         1       0.018       0.018     0.00
timer:  KSV_init          1       0.005       0.005     0.00
timer:  IterMD            1  179512.634  179512.634    99.61
timer:  hsparse           1       0.517       0.517     0.00
timer:  overlap           1       7.217       7.217     0.00
timer:  IterSCF          54    3320.141  179287.591    99.48
timer:  kinefsm           2       3.695       7.390     0.00
timer:  nlefsm            2      19.828      39.657     0.02
timer:  DHSCF            55     115.950    6377.256     3.54
timer:  DHSCF1            1       0.939       0.939     0.00
timer:  DHSCF2            1      42.452      42.452     0.02
timer:  REORD           442       0.005       2.102     0.00
timer:  POISON           56       0.857      47.975     0.03
timer:  DHSCF3           55     114.397    6291.821     3.49
timer:  rhoofd           55      24.424    1343.318     0.75
timer:  cellXC           55       3.094     170.151     0.09
timer:  vmat             55      53.526    2943.938     1.63
timer:  MolMec            2       0.001       0.001     0.00
timer:  diagon           54    3203.618  172995.373    95.99
timer:  c-eigval      12595       5.763   72579.672    40.27
timer:  c-buildHS     12595       0.052     657.136     0.36
timer:  cdiag         25069       5.894  147755.806    81.99
timer:  cdiag1        25069       0.369    9240.413     5.13
timer:  cdiag2        25069       1.682   42170.375    23.40
timer:  cdiag3        25069       3.569   89460.202    49.64
timer:  cdiag4        25069       0.149    3736.894     2.07
timer:  c-eigvec      12474       6.123   76376.330    42.38
timer:  c-buildD      12474       1.978   24676.317    13.69
timer:  DHSCF4            1      41.039      41.039     0.02
timer:  dfscf             1      38.352      38.352     0.02
timer:  overfsm           1       0.436       0.436     0.00
timer:  optical           1       4.297       4.297     0.00
  

elaps: ELAPSED times:
elaps:  Routine       Calls   Time/call    Tot.time        %
elaps:  siesta            1   22582.300   22582.300   100.00
elaps:  Setup             1       0.358       0.358     0.00
elaps:  bands             3      29.170      87.509     0.39
elaps:  writewave         1       0.002       0.002     0.00
elaps:  KSV_init          1       0.000       0.000     0.00
elaps:  IterMD            1   22493.864   22493.864    99.61
elaps:  hsparse           1       0.067       0.067     0.00
elaps:  overlap           1       0.911       0.911     0.00
elaps:  IterSCF          54     416.031   22465.675    99.48
elaps:  kinefsm           2       0.462       0.924     0.00
elaps:  nlefsm            2       2.508       5.017     0.02
elaps:  DHSCF            55      14.628     804.557     3.56
elaps:  DHSCF1            1       0.119       0.119     0.00
elaps:  DHSCF2            1       5.317       5.317     0.02
elaps:  REORD           442       0.001       0.290     0.00
elaps:  POISON           56       0.108       6.062     0.03
elaps:  DHSCF3           55      14.331     788.189     3.49
elaps:  rhoofd           55       7.077     389.246     1.72
elaps:  cellXC           55       0.387      21.283     0.09
elaps:  vmat             55       6.705     368.780     1.63
elaps:  MolMec            2       0.000       0.000     0.00
elaps:  diagon           54     401.438   21677.673    95.99
elaps:  c-eigval      12595       0.722    9094.053    40.27
elaps:  c-buildHS     12595       0.007      85.674     0.38
elaps:  cdiag         25069       0.737   18464.156    81.76
elaps:  cdiag1        25069       0.046    1161.199     5.14
elaps:  cdiag2        25069       0.211    5284.662    23.40
elaps:  cdiag3        25069       0.448   11224.587    49.71
elaps:  cdiag4        25069       0.019     467.158     2.07
elaps:  c-eigvec      12474       0.764    9528.635    42.20
elaps:  c-buildD      12474       0.251    3132.430    13.87
elaps:  DHSCF4            1      10.815      10.815     0.05
elaps:  dfscf             1      10.266      10.266     0.05
elaps:  overfsm           1       0.054       0.054     0.00
elaps:  optical           1       0.000       0.000     0.00
  
>> End of run:  21-APR-2016   9:46:00
