Siesta Version:                                        siesta-3.2-pl-3
Architecture  : x86_64-unknown-linux-gnu--unknown
Compiler flags: mpiifort -g -O2 -fPIC -xSSE4.1 -fp-model source -shared-intel 
PARALLEL version

* Running on   12 nodes in parallel
>> Start of run:   5-MAY-2016   3:02:26

                           ***********************       
                           *  WELCOME TO SIESTA  *       
                           ***********************       

reinit: Reading from standard input
************************** Dump of input data file ****************************
#(1) General system descriptors
SystemName            GRP_doping    # Descriptive name of the system
SystemLabel           GRP_doping    # Short name for naming files
%include STRUCT.fdf
%include KPT.fdf
%include BASIS.fdf
#%include TS.fdf # for transiesta calculation
#(4) DFT, Grid, SCF
XC.functional         GGA           # LDA or GGA (default = LDA)
XC.authors            PBE           # CA (Ceperley-Aldr) = PZ
                                    #    (Perdew-Zunger) - LDA - Default
                                    # PW92 (Perdew-Wang-92) - LDA
                                    # PBE (Perdew-Burke-Ernzerhof) - GGA
MeshCutoff            200.000000    Ry      # Default: 50.0 Ry ~ 0.444 Bohr
                                    #         100.0 Ry ~ 0.314 Bohr
MaxSCFIterations      500           # Default: 50
DM.MixingWeight       0.05          # Default: 0.25
DM.NumberPulay        10            # Default: 0
DM.PulayOnFile        F             # SystemLabel.P1, SystemLabel.P2
DM.Tolerance          1.d-4         # Default: 1.d-4
DM.UseSaveDM          .true.        # because of the bug
SCFMustConverge       .true.
NeglNonOverlapInt     F             # Default: F
#(5) Eigenvalue problem: order-N or diagonalization
SolutionMethod        Diagon        # or Transiesta
ElectronicTemperature 300.0 K       # Default: 300.0 K
#(6) Molecular dynamics and relaxations
#MD.TypeOfRun          CG            # Type of dynamics:
#MD.VariableCell       F
#MD.NumCGsteps         0           # 0 for single-point / 100 for gopt
#MD.MaxCGDispl         0.2 Bohr      # Default: 0.2 Bohr
#MD.MaxForceTol        0.02 eV/Ang   # Default: 0.04 eV/Ang
#MD.MaxStressTol       1.0 GPa       # Default: 1.0 GPa
# Geometry Constraints
#%block GeometryConstraints
#	position from 1 to 44
#%endblock GeometryConstraints
BandLinesScale   pi/a
%block BandLines
 1   0.00000000  0.00000000  0.00000000
50   0.00000000  0.07809418  0.00000000
50   0.04509075  0.07809242  0.00000000
20   0.00000000  0.00000000  0.00000000
%endblock BandLines
************************** End of input data file *****************************

reinit: -----------------------------------------------------------------------
reinit: System Name: GRP_doping
reinit: -----------------------------------------------------------------------
reinit: System Label: GRP_doping                                                  
reinit: -----------------------------------------------------------------------

initatom: Reading input for the pseudopotentials and atomic orbitals ----------
 Species number:            1  Label: B Atomic number:           5
 Species number:            2  Label: C Atomic number:           6
Ground state valence configuration:   2s02  2p01
Reading pseudopotential information in formatted form from B.psf

Valence configuration for pseudopotential generation:
2s( 2.00) rc: 1.74
2p( 1.00) rc: 1.74
3d( 0.00) rc: 1.74
4f( 0.00) rc: 1.74
Ground state valence configuration:   2s02  2p02
Reading pseudopotential information in formatted form from C.psf

Valence configuration for pseudopotential generation:
2s( 2.00) rc: 1.54
2p( 2.00) rc: 1.54
3d( 0.00) rc: 1.54
4f( 0.00) rc: 1.54
For B, standard SIESTA heuristics set lmxkb to 3
 (one more than the basis l, including polarization orbitals).
Use PS.lmax or PS.KBprojectors blocks to override.
For C, standard SIESTA heuristics set lmxkb to 3
 (one more than the basis l, including polarization orbitals).
Use PS.lmax or PS.KBprojectors blocks to override.

<basis_specs>
===============================================================================
B                    Z=   5    Mass=  10.810        Charge= 0.17977+309
Lmxo=1 Lmxkb= 3    BasisType=split      Semic=F
L=0  Nsemic=0  Cnfigmx=2
          n=1  nzeta=2  polorb=0
            splnorm:   0.15000    
               vcte:    0.0000    
               rinn:    0.0000    
                rcs:    0.0000      0.0000    
            lambdas:    1.0000      1.0000    
L=1  Nsemic=0  Cnfigmx=2
          n=1  nzeta=2  polorb=1
            splnorm:   0.15000    
               vcte:    0.0000    
               rinn:    0.0000    
                rcs:    0.0000      0.0000    
            lambdas:    1.0000      1.0000    
-------------------------------------------------------------------------------
L=0  Nkbl=1  erefs: 0.17977+309
L=1  Nkbl=1  erefs: 0.17977+309
L=2  Nkbl=1  erefs: 0.17977+309
L=3  Nkbl=1  erefs: 0.17977+309
===============================================================================
</basis_specs>

atom: Called for B                     (Z =   5)

read_vps: Pseudopotential generation method:
read_vps: ATM3      Troullier-Martins                       
Total valence charge:    3.00000

read_vps: Pseudopotential includes a core correction:
read_vps: Pseudo-core for xc-correction

xc_check: Exchange-correlation functional:
xc_check: GGA Perdew, Burke & Ernzerhof 1996
V l=0 = -2*Zval/r beyond r=  1.7165
V l=1 = -2*Zval/r beyond r=  1.7165
V l=2 = -2*Zval/r beyond r=  1.7165
V l=3 = -2*Zval/r beyond r=  1.6951
All V_l potentials equal beyond r=  1.7165
This should be close to max(r_c) in ps generation
All pots = -2*Zval/r beyond r=  1.7165

VLOCAL1: 99.0% of the norm of Vloc inside     14.733 Ry
VLOCAL1: 99.9% of the norm of Vloc inside     33.577 Ry
atom: Maximum radius for 4*pi*r*r*local-pseudopot. charge    2.04484
atom: Maximum radius for r*vlocal+2*Zval:    1.75994
GHOST: No ghost state for L =  0
GHOST: No ghost state for L =  1
GHOST: No ghost state for L =  2
GHOST: No ghost state for L =  3

KBgen: Kleinman-Bylander projectors: 
   l= 0   rc=  1.897051   el= -0.693730   Ekb=  4.595746   kbcos=  0.286105
   l= 1   rc=  1.920920   el= -0.265236   Ekb= -2.350715   kbcos= -0.315747
   l= 2   rc=  2.044840   el=  0.002055   Ekb= -0.690767   kbcos= -0.013822
   l= 3   rc=  2.149707   el=  0.003188   Ekb= -0.315358   kbcos= -0.002055

KBgen: Total number of  Kleinman-Bylander projectors:   16
atom: -------------------------------------------------------------------------

atom: SANKEY-TYPE ORBITALS:
atom: Selected multiple-zeta basis: split     

SPLIT: Orbitals with angular momentum L= 0

SPLIT: Basis orbitals for state 2s

SPLIT: PAO cut-off radius determined from an
SPLIT: energy shift=  0.007350 Ry

   izeta = 1
                 lambda =    1.000000
                     rc =    5.422032
                 energy =   -0.686029
                kinetic =    0.576707
    potential(screened) =   -1.262736
       potential(ionic) =   -3.271094

   izeta = 2
                 rmatch =    4.222573
              splitnorm =    0.150000
                 energy =   -0.602132
                kinetic =    0.858975
    potential(screened) =   -1.461107
       potential(ionic) =   -3.582536

SPLIT: Orbitals with angular momentum L= 1

SPLIT: Basis orbitals for state 2p

SPLIT: PAO cut-off radius determined from an
SPLIT: energy shift=  0.007350 Ry

   izeta = 1
                 lambda =    1.000000
                     rc =    6.790259
                 energy =   -0.258578
                kinetic =    1.481412
    potential(screened) =   -1.739989
       potential(ionic) =   -3.657461

   izeta = 2
                 rmatch =    4.608740
              splitnorm =    0.150000
                 energy =   -0.173757
                kinetic =    2.186690
    potential(screened) =   -2.360447
       potential(ionic) =   -4.464260

POLgen: Perturbative polarization orbital with L=  2

POLgen: Polarization orbital for state 2p

   izeta = 1
                     rc =    6.790259
                 energy =    0.684082
                kinetic =    1.471481
    potential(screened) =   -0.787399
       potential(ionic) =   -2.406985
atom: Total number of Sankey-type orbitals: 13

atm_pop: Valence configuration (for local Pseudopot. screening):
 2s( 2.00)                                                            
 2p( 1.00)                                                            
Vna: chval, zval:    3.00000   3.00000

Vna:  Cut-off radius for the neutral-atom potential:   6.790259
comcore: Pseudo-core radius Rcore=  2.122997

atom: _________________________________________________________________________

<basis_specs>
===============================================================================
C                    Z=   6    Mass=  12.010        Charge= 0.17977+309
Lmxo=1 Lmxkb= 3    BasisType=split      Semic=F
L=0  Nsemic=0  Cnfigmx=2
          n=1  nzeta=2  polorb=0
            splnorm:   0.15000    
               vcte:    0.0000    
               rinn:    0.0000    
                rcs:    0.0000      0.0000    
            lambdas:    1.0000      1.0000    
L=1  Nsemic=0  Cnfigmx=2
          n=1  nzeta=2  polorb=1
            splnorm:   0.15000    
               vcte:    0.0000    
               rinn:    0.0000    
                rcs:    0.0000      0.0000    
            lambdas:    1.0000      1.0000    
-------------------------------------------------------------------------------
L=0  Nkbl=1  erefs: 0.17977+309
L=1  Nkbl=1  erefs: 0.17977+309
L=2  Nkbl=1  erefs: 0.17977+309
L=3  Nkbl=1  erefs: 0.17977+309
===============================================================================
</basis_specs>

atom: Called for C                     (Z =   6)

read_vps: Pseudopotential generation method:
read_vps: ATM3      Troullier-Martins                       
Total valence charge:    4.00000

read_vps: Pseudopotential includes a core correction:
read_vps: Pseudo-core for xc-correction

xc_check: Exchange-correlation functional:
xc_check: GGA Perdew, Burke & Ernzerhof 1996
V l=0 = -2*Zval/r beyond r=  1.5227
V l=1 = -2*Zval/r beyond r=  1.5227
V l=2 = -2*Zval/r beyond r=  1.5227
V l=3 = -2*Zval/r beyond r=  1.5038
All V_l potentials equal beyond r=  1.5227
This should be close to max(r_c) in ps generation
All pots = -2*Zval/r beyond r=  1.5227

VLOCAL1: 99.0% of the norm of Vloc inside     18.722 Ry
VLOCAL1: 99.9% of the norm of Vloc inside     42.668 Ry
atom: Maximum radius for 4*pi*r*r*local-pseudopot. charge    1.83678
atom: Maximum radius for r*vlocal+2*Zval:    1.58088
GHOST: No ghost state for L =  0
GHOST: No ghost state for L =  1
GHOST: No ghost state for L =  2
GHOST: No ghost state for L =  3

KBgen: Kleinman-Bylander projectors: 
   l= 0   rc=  1.704034   el= -1.009801   Ekb=  5.335044   kbcos=  0.316824
   l= 1   rc=  1.704034   el= -0.388707   Ekb= -3.785862   kbcos= -0.366464
   l= 2   rc=  1.791422   el=  0.001971   Ekb= -0.970471   kbcos= -0.009212
   l= 3   rc=  1.859892   el=  0.003065   Ekb= -0.399525   kbcos= -0.001223

KBgen: Total number of  Kleinman-Bylander projectors:   16
atom: -------------------------------------------------------------------------

atom: SANKEY-TYPE ORBITALS:
atom: Selected multiple-zeta basis: split     

SPLIT: Orbitals with angular momentum L= 0

SPLIT: Basis orbitals for state 2s

SPLIT: PAO cut-off radius determined from an
SPLIT: energy shift=  0.007350 Ry

   izeta = 1
                 lambda =    1.000000
                     rc =    4.632753
                 energy =   -1.002270
                kinetic =    0.855760
    potential(screened) =   -1.858031
       potential(ionic) =   -5.417575

   izeta = 2
                 rmatch =    3.431921
              splitnorm =    0.150000
                 energy =   -0.867111
                kinetic =    1.300804
    potential(screened) =   -2.167915
       potential(ionic) =   -5.962684

SPLIT: Orbitals with angular momentum L= 1

SPLIT: Basis orbitals for state 2p

SPLIT: PAO cut-off radius determined from an
SPLIT: energy shift=  0.007350 Ry

   izeta = 1
                 lambda =    1.000000
                     rc =    5.658549
                 energy =   -0.381140
                kinetic =    2.399701
    potential(screened) =   -2.780841
       potential(ionic) =   -6.206085

   izeta = 2
                 rmatch =    3.653288
              splitnorm =    0.150000
                 energy =   -0.249149
                kinetic =    3.542762
    potential(screened) =   -3.791911
       potential(ionic) =   -7.581078

POLgen: Perturbative polarization orbital with L=  2

POLgen: Polarization orbital for state 2p

   izeta = 1
                     rc =    5.658549
                 energy =    1.109913
                kinetic =    2.304789
    potential(screened) =   -1.194876
       potential(ionic) =   -4.013592
atom: Total number of Sankey-type orbitals: 13

atm_pop: Valence configuration (for local Pseudopot. screening):
 2s( 2.00)                                                            
 2p( 2.00)                                                            
Vna: chval, zval:    4.00000   4.00000

Vna:  Cut-off radius for the neutral-atom potential:   5.658549
comcore: Pseudo-core radius Rcore=  1.791422

atom: _________________________________________________________________________

prinput: Basis input ----------------------------------------------------------

PAO.BasisType split     

%block ChemicalSpeciesLabel
    1    5 B                       # Species index, atomic number, species label
    2    6 C                       # Species index, atomic number, species label
%endblock ChemicalSpeciesLabel

%block PAO.Basis                 # Define Basis set
B                     2                    # Species label, number of l-shells
 n=2   0   2                         # n, l, Nzeta 
   5.422      4.223   
   1.000      1.000   
 n=2   1   2 P   1                   # n, l, Nzeta, Polarization, NzetaPol
   6.790      4.609   
   1.000      1.000   
C                     2                    # Species label, number of l-shells
 n=2   0   2                         # n, l, Nzeta 
   4.633      3.432   
   1.000      1.000   
 n=2   1   2 P   1                   # n, l, Nzeta, Polarization, NzetaPol
   5.659      3.653   
   1.000      1.000   
%endblock PAO.Basis

prinput: ----------------------------------------------------------------------

coor:   Atomic-coordinates input format  =     Fractional

siesta: Atomic coordinates (Bohr) and species
siesta:      2.30256  38.89134   0.00000  1        1
siesta:     -4.68258  37.54693   0.00000  1        2
siesta:      2.30256   9.31683   0.00000  1        3
siesta:     11.61608  22.75985   0.00000  1        4
siesta:      4.63094  18.72698   0.00000  1        5
siesta:     -2.35420  17.38257   0.00000  1        6
siesta:      2.30256  22.75985   0.00000  1        7
siesta:     -7.01096  22.75985   0.00000  1        8
siesta:     -9.33934  29.48119   0.00000  1        9
siesta:      4.63094  29.48119   0.00000  1       10
siesta:     -2.35420  30.82560   0.00000  1       11
siesta:     -0.02582   2.59549   0.00000  2       12
siesta:     -0.02582   5.28395   0.00000  2       13
siesta:     -2.35420  38.89134   0.00000  2       14
siesta:     -2.35420  41.57980   0.00000  2       15
siesta:      2.30256  41.57980   0.00000  2       16
siesta:      4.63094  34.85847   0.00000  2       17
siesta:      4.63094  37.54693   0.00000  2       18
siesta:      6.95932  30.82560   0.00000  2       19
siesta:      6.95932  33.51406   0.00000  2       20
siesta:      9.28770  26.79272   0.00000  2       21
siesta:      9.28770  29.48119   0.00000  2       22
siesta:     -4.68258  34.85847   0.00000  2       23
siesta:      2.30256   6.62836   0.00000  2       24
siesta:      4.63094  10.66124   0.00000  2       25
siesta:      4.63094  13.34970   0.00000  2       26
siesta:      6.95932  14.69411   0.00000  2       27
siesta:      6.95932  17.38257   0.00000  2       28
siesta:      9.28770  18.72698   0.00000  2       29
siesta:      9.28770  21.41544   0.00000  2       30
siesta:     11.61608  25.44831   0.00000  2       31
siesta:     -2.35420   6.62836   0.00000  2       32
siesta:     -2.35420   9.31683   0.00000  2       33
siesta:     -0.02582  10.66124   0.00000  2       34
siesta:     -0.02582  13.34970   0.00000  2       35
siesta:      2.30256  14.69411   0.00000  2       36
siesta:      2.30256  17.38257   0.00000  2       37
siesta:      4.63094  21.41544   0.00000  2       38
siesta:      6.95932  22.75985   0.00000  2       39
siesta:      6.95932  25.44831   0.00000  2       40
siesta:     -4.68258  10.66124   0.00000  2       41
siesta:     -4.68258  13.34970   0.00000  2       42
siesta:     -2.35420  14.69411   0.00000  2       43
siesta:     -0.02582  18.72698   0.00000  2       44
siesta:     -0.02582  21.41544   0.00000  2       45
siesta:      2.30256  25.44831   0.00000  2       46
siesta:     -7.01096  14.69411   0.00000  2       47
siesta:     -7.01096  17.38257   0.00000  2       48
siesta:     -4.68258  18.72698   0.00000  2       49
siesta:     -4.68258  21.41544   0.00000  2       50
siesta:     -2.35420  22.75985   0.00000  2       51
siesta:     -2.35420  25.44831   0.00000  2       52
siesta:     -9.33934  18.72698   0.00000  2       53
siesta:     -9.33934  21.41544   0.00000  2       54
siesta:     -7.01096  25.44831   0.00000  2       55
siesta:    -11.66772  22.75985   0.00000  2       56
siesta:    -11.66772  25.44831   0.00000  2       57
siesta:     -9.33934  26.79272   0.00000  2       58
siesta:      4.63094  26.79272   0.00000  2       59
siesta:     -0.02582  26.79272   0.00000  2       60
siesta:     -0.02582  29.48119   0.00000  2       61
siesta:     -4.68258  26.79272   0.00000  2       62
siesta:     -4.68258  29.48119   0.00000  2       63
siesta:      2.30256  30.82560   0.00000  2       64
siesta:      2.30256  33.51406   0.00000  2       65
siesta:     -2.35420  33.51406   0.00000  2       66
siesta:     -7.01096  30.82560   0.00000  2       67
siesta:     -7.01096  33.51406   0.00000  2       68
siesta:     -0.02582  34.85847   0.00000  2       69
siesta:     -0.02582  37.54693   0.00000  2       70
siesta:     -0.02582  42.92421   0.00000  2       71
siesta:     -0.02582  45.61267   0.00000  2       72

siesta: System type = slab      

initatomlists: Number of atoms, orbitals, and projectors:     72   936  1152

siesta: ******************** Simulation parameters ****************************
siesta:
siesta: The following are some of the parameters of the simulation.
siesta: A complete list of the parameters used, including default values,
siesta: can be found in file out.fdf
siesta:
redata: Non-Collinear-spin run           =     F
redata: SpinPolarized (Up/Down) run      =     F
redata: Number of spin components        =     1
redata: Long output                      =     F
redata: Number of Atomic Species         =        2
redata: Charge density info will appear in .RHO file
redata: Write Mulliken Pop.              =     NO
redata: Mesh Cutoff                      =   200.0000  Ry
redata: Net charge of the system         =     0.0000 |e|
redata: Max. number of SCF Iter          =      500
redata: SCF convergence failure will abort job
redata: Performing Pulay mixing using    =    10 iterations
redata: Mix DM in first SCF step ?       =     F
redata: Write Pulay info on disk?        =     F
redata: Discard 1st Pulay DM after  kick =     F
redata: New DM Mixing Weight             =     0.0500
redata: New DM Occupancy tolerance       = 0.000000000001
redata: No kicks to SCF
redata: DM Mixing Weight for Kicks       =     0.5000
redata: DM Tolerance for SCF             =     0.000100
redata: Require Energy convergence for SCF =     F
redata: DM Energy tolerance for SCF      =     0.000100 eV
redata: Require Harris convergence for SCF =     F
redata: DM Harris energy tolerance for SCF =     0.000100 eV
redata: Using Saved Data (generic)   =     F
redata: Use continuation files for DM    =     T
redata: Neglect nonoverlap interactions  =     F
redata: Method of Calculation            =     Diagonalization
redata: Divide and Conquer               =     T
redata: Electronic Temperature           =     0.0019  Ry
redata: Fix the spin of the system       =     F
redata: Dynamics option                  =     Verlet MD run
redata: Initial MD time step             =        1
redata:   Final MD time step             =        1
redata: Length of MD time step           =     1.0000  fs
redata: Initial Temperature of MD run    =     0.0000  K
redata: Perform a MD quench              =     F
redata: ***********************************************************************
Total number of electrons:   277.000000
Total ionic charge:   277.000000

* ProcessorY, Blocksize:    3  24

k-point displ. along   1 input, could be:     0.50    0.00
k-point displ. along   2 input, could be:     0.50    0.00
 Kpoints in:          231 . Kpoints trimmed:          231

siesta: k-grid: Number of k-points =   231
siesta: k-grid: Cutoff (effective) =     5.000 Ang
siesta: k-grid: Supercell and displacements
siesta: k-grid:   21   0   0      0.500
siesta: k-grid:    0  21   0      0.500
siesta: k-grid:    0   0   1      0.000
Naive supercell factors:     2    2    2

superc: Internal auxiliary supercell:     2 x     2 x     2  =       8
superc: Number of atoms, orbitals, and projectors:    576   7488   9216

* Maximum dynamic memory allocated =     4 MB

siesta:                 ==============================
                            Begin MD step =      1
                        ==============================

superc: Internal auxiliary supercell:     2 x     2 x     2  =       8
superc: Number of atoms, orbitals, and projectors:    576   7488   9216

outcell: Unit cell vectors (Ang):
       12.804619    7.392750    0.000000
        0.000000   14.785500    0.000000
        0.000000    0.000000   10.000000

outcell: Cell vector modules (Ang)   :   14.785500   14.785500   10.000000
outcell: Cell angles (23,13,12) (deg):     90.0000     90.0000     60.0000
outcell: Cell volume (Ang**3)        :   1893.2269
New_DM. Step:     1
Initializing Density Matrix...

InitMesh: MESH =   120 x   120 x    90 =     1296000
InitMesh: Mesh cutoff (required, used) =   200.000   223.865 Ry

* Maximum dynamic memory allocated =   153 MB

stepf: Fermi-Dirac step function

siesta: Program's energy decomposition (eV):
siesta: Ebs     =     -5720.673777
siesta: Eions   =     16994.387248
siesta: Ena     =      4465.425951
siesta: Ekin    =      5798.058349
siesta: Enl     =       726.948406
siesta: DEna    =        -0.000011
siesta: DUscf   =         0.000000
siesta: DUext   =         0.000000
siesta: Exc     =     -4184.172690
siesta: eta*DQ  =         0.000000
siesta: Emadel  =         0.000000
siesta: Emeta   =         0.000000
siesta: Emolmec =         0.000000
siesta: Ekinion =         0.000000
siesta: Eharris =     -9921.809830
siesta: Etot    =    -10188.127243
siesta: FreeEng =    -10188.127243

siesta: iscf   Eharris(eV)      E_KS(eV)   FreeEng(eV)   dDmax  Ef(eV)
siesta:    1    -9921.8098   -10188.1272   -10188.1272  6.3320 -8.0672
timer: Routine,Calls,Time,% = IterSCF        1    3063.627  99.59
elaps: Routine,Calls,Wall,% = IterSCF        1     255.905  99.59
siesta:    2   -13841.2270    -9271.2891    -9271.3285 16.3885 -3.2980
siesta:    3    -9892.2560   -10020.7654   -10020.8258  2.7401 -5.8428
siesta:    4    -9841.5224    -9933.0852    -9933.1211  1.5775 -5.4034
siesta:    5    -9790.6599    -9820.9358    -9820.9849  0.8669 -5.0053
siesta:    6    -9784.6699    -9811.6633    -9811.6975  0.8167 -5.0017
siesta:    7    -9777.0529    -9802.0904    -9802.1336  0.7015 -4.9774
siesta:    8    -9774.8756    -9781.4097    -9781.4517  0.5756 -4.7502
siesta:    9    -9772.8912    -9778.5647    -9778.6006  0.5095 -4.8308
siesta:   10    -9772.5151    -9775.1007    -9775.1376  0.4726 -4.7944
siesta:   11    -9772.5296    -9763.6040    -9763.6419  0.2676 -4.6749
siesta:   12    -9773.5881    -9754.8990    -9754.9400  0.2835 -4.5730
siesta:   13    -9772.2093    -9752.4950    -9752.5468  0.2811 -4.6855
siesta:   14    -9770.9700    -9754.1032    -9754.1538  0.2101 -4.7159
siesta:   15    -9770.7506    -9755.2072    -9755.2628  0.1861 -4.7612
siesta:   16    -9770.6823    -9759.1361    -9759.1994  0.3319 -4.8760
siesta:   17    -9770.4371    -9763.6436    -9763.6854  0.1411 -4.8520
siesta:   18    -9770.3420    -9767.2787    -9767.3293  0.0562 -4.9145
siesta:   19    -9770.3103    -9768.6587    -9768.7238  0.0532 -4.9135
siesta:   20    -9770.2535    -9769.5680    -9769.6330  0.0686 -4.9029
siesta:   21    -9770.2580    -9770.2151    -9770.2822  0.0341 -4.8715
siesta:   22    -9770.2485    -9770.3118    -9770.3730  0.0241 -4.8760
siesta:   23    -9770.2420    -9769.9223    -9769.9859  0.0963 -4.8932
siesta:   24    -9770.2418    -9769.7675    -9769.8341  0.0836 -4.8898
siesta:   25    -9770.2407    -9769.7809    -9769.8473  0.0717 -4.8880
siesta:   26    -9770.2393    -9769.7456    -9769.8124  0.0268 -4.8798
siesta:   27    -9770.2387    -9769.3252    -9769.3913  0.0351 -4.8766
siesta:   28    -9770.2370    -9769.7443    -9769.8116  0.0201 -4.8768
siesta:   29    -9770.2344    -9770.8045    -9770.8728  0.0217 -4.8842
siesta:   30    -9770.2335    -9771.2032    -9771.2705  0.0107 -4.8821
siesta:   31    -9770.2332    -9771.2289    -9771.2965  0.0108 -4.8778
siesta:   32    -9770.2332    -9771.0745    -9771.1418  0.0090 -4.8761
siesta:   33    -9770.2338    -9770.7322    -9770.7995  0.0047 -4.8776
siesta:   34    -9770.2336    -9770.6352    -9770.7021  0.0036 -4.8781
siesta:   35    -9770.2332    -9770.4910    -9770.5579  0.0061 -4.8776
siesta:   36    -9770.2331    -9770.4335    -9770.5006  0.0014 -4.8761
siesta:   37    -9770.2331    -9770.3558    -9770.4230  0.0016 -4.8755
siesta:   38    -9770.2332    -9770.3218    -9770.3889  0.0008 -4.8750
siesta:   39    -9770.2331    -9770.2923    -9770.3594  0.0008 -4.8749
siesta:   40    -9770.2331    -9770.2810    -9770.3481  0.0005 -4.8751
siesta:   41    -9770.2331    -9770.2746    -9770.3417  0.0004 -4.8752
siesta:   42    -9770.2331    -9770.2506    -9770.3177  0.0002 -4.8751
siesta:   43    -9770.2331    -9770.2426    -9770.3096  0.0001 -4.8750
siesta:   44    -9770.2332    -9770.2362    -9770.3033  0.0001 -4.8751
siesta:   45    -9770.2331    -9770.2360    -9770.3031  0.0001 -4.8751

siesta: E_KS(eV) =            -9770.2336

siesta: E_KS - E_eggbox =     -9770.2336

siesta: Atomic forces (eV/Ang):
----------------------------------------
   Tot   -0.334912   -0.053715    0.000000
----------------------------------------
   Max  560.499467
   Res  157.164586    sqrt( Sum f_i^2 / 3N )
----------------------------------------
   Max  560.499467    constrained

Stress-tensor-Voigt (kbar):     -719.54    -2777.99       -0.42       -1.65        0.00        0.00
(Free)E + p*V (eV/cell)    -8392.5219
Target enthalpy (eV/cell)    -9770.3006

siesta: Stress tensor (static) (eV/Ang**3):
        -0.449094   -0.001032    0.000000
        -0.001032   -1.733868    0.000000
         0.000000    0.000000   -0.000260

siesta: Pressure (static):       1165.98212277  kBar

siesta: Stress tensor (total) (eV/Ang**3):
        -0.449094   -0.001032    0.000000
        -0.001032   -1.733868    0.000000
         0.000000    0.000000   -0.000260

siesta: Pressure (total):       1165.98212277  kBar

siesta: Temp_ion =       0.000 K

* Maximum dynamic memory allocated =   166 MB
Computing bands...

siesta: Program's energy decomposition (eV):
siesta: Ebs     =     -4391.880969
siesta: Eions   =     16994.387248
siesta: Ena     =      4465.425951
siesta: Ekin    =      8719.543022
siesta: Enl     =      -928.422382
siesta: DEna    =      -780.925055
siesta: DUscf   =       103.066878
siesta: DUext   =         0.000000
siesta: Exc     =     -4354.534740
siesta: eta*DQ  =         0.000000
siesta: Emadel  =         0.000000
siesta: Emeta   =         0.000000
siesta: Emolmec =         0.000000
siesta: Ekinion =         0.000000
siesta: Eharris =     -9770.233144
siesta: Etot    =     -9770.233573
siesta: FreeEng =     -9770.300643

siesta: Final energy (eV):
siesta:  Band Struct. =   -4391.880969
siesta:       Kinetic =    8719.543022
siesta:       Hartree =   28354.434503
siesta:    Ext. field =       0.000000
siesta:   Exch.-corr. =   -4354.534740
siesta:  Ion-electron =  -65161.099543
siesta:       Ion-ion =   22671.423185
siesta:       Ekinion =       0.000000
siesta:         Total =   -9770.233573

siesta: Atomic forces (eV/Ang):
siesta:      1   -0.700696  109.969413    0.000000
siesta:      2  -27.044864 -398.349419    0.000000
siesta:      3    1.035589 -110.969832    0.000000
siesta:      4    2.207229    1.543593    0.000000
siesta:      5   -0.851378    0.832678    0.000000
siesta:      6  -18.707584   -3.894994    0.000000
siesta:      7   -0.178062   -0.770061    0.000000
siesta:      8    0.459327    0.477883    0.000000
siesta:      9   -0.589873    1.093664    0.000000
siesta:     10   -0.985519   -0.795352    0.000000
siesta:     11  -18.637229    3.907464    0.000000
siesta:     12    1.963067  547.928145    0.000000
siesta:     13   -1.497603 -132.242889    0.000000
siesta:     14   -5.797561  120.208161    0.000000
siesta:     15  -18.047919 -551.807040    0.000000
siesta:     16   18.318196 -550.005711    0.000000
siesta:     17   24.675079    6.654465    0.000000
siesta:     18   25.815094 -547.750430    0.000000
siesta:     19    5.621719    2.316116    0.000000
siesta:     20   -1.990960    1.763377    0.000000
siesta:     21    3.552705    0.541773    0.000000
siesta:     22   -1.385768    1.103283    0.000000
siesta:     23  -25.432039    0.995497    0.000000
siesta:     24   17.633318  550.365811    0.000000
siesta:     25   27.050247  547.754202    0.000000
siesta:     26   24.472823   -6.929525    0.000000
siesta:     27   -2.230948   -1.276136    0.000000
siesta:     28    5.550745   -3.011584    0.000000
siesta:     29   -0.477210    0.021207    0.000000
siesta:     30   -0.348897   -3.551541    0.000000
siesta:     31   -0.271813    0.597518    0.000000
siesta:     32  -13.679184  550.010810    0.000000
siesta:     33    1.587421 -125.296588    0.000000
siesta:     34    5.695343  547.030164    0.000000
siesta:     35    0.497004 -131.558214    0.000000
siesta:     36   22.550121  560.499467    0.000000
siesta:     37   19.365337   -6.416531    0.000000
siesta:     38    3.235835    2.301620    0.000000
siesta:     39   -1.073601   -0.124208    0.000000
siesta:     40   -1.424036   -0.346307    0.000000
siesta:     41  -33.565907  400.533117    0.000000
siesta:     42  -25.212121    1.514052    0.000000
siesta:     43  -25.052188  555.726828    0.000000
siesta:     44   -2.352745  559.860405    0.000000
siesta:     45   -2.752928   -0.155835    0.000000
siesta:     46   -0.489558    4.004816    0.000000
siesta:     47    2.709112   -2.215220    0.000000
siesta:     48   -2.669267   -0.292526    0.000000
siesta:     49   -0.426548    2.375259    0.000000
siesta:     50    1.979605   -1.860702    0.000000
siesta:     51    1.189061   -1.450068    0.000000
siesta:     52    1.071052    0.750608    0.000000
siesta:     53    1.255701   -0.498715    0.000000
siesta:     54   -6.306755   -3.798074    0.000000
siesta:     55    0.573030    2.854975    0.000000
siesta:     56    0.664945    6.856312    0.000000
siesta:     57    0.187410   -6.644825    0.000000
siesta:     58   -3.234198   -1.256619    0.000000
siesta:     59    0.249876   -3.508222    0.000000
siesta:     60    0.331945   -1.643671    0.000000
siesta:     61   -1.352100 -559.352663    0.000000
siesta:     62   -1.118393    0.306412    0.000000
siesta:     63   -0.784798   -1.989289    0.000000
siesta:     64   19.689280    6.256947    0.000000
siesta:     65   22.562028 -560.376920    0.000000
siesta:     66  -27.667163 -553.479935    0.000000
siesta:     67    0.028699    2.822581    0.000000
siesta:     68    2.097578    2.055225    0.000000
siesta:     69    0.185495  131.789650    0.000000
siesta:     70    6.768097 -546.129503    0.000000
siesta:     71   -1.636200  132.335064    0.000000
siesta:     72    2.809583 -548.263131    0.000000
siesta: ----------------------------------------
siesta:    Tot   -0.334912   -0.053715    0.000000

siesta: Stress tensor (static) (eV/Ang**3):
siesta:    -0.449094   -0.001032    0.000000
siesta:    -0.001032   -1.733868    0.000000
siesta:     0.000000    0.000000   -0.000260

siesta: Cell volume =       1893.226884 Ang**3

siesta: Pressure (static):
siesta:                Solid            Molecule  Units
siesta:           0.00792603          0.12203279  Ry/Bohr**3
siesta:           0.72774093         11.20463562  eV/Ang**3
siesta:        1165.98212277      17951.99943131  kBar
(Free)E+ p_basis*V_orbitals  =       -9736.087537
(Free)Eharris+ p_basis*V_orbitals  =       -9736.084652

siesta: Electric dipole (a.u.)  =    0.000000    0.000000    0.000000
siesta: Electric dipole (Debye) =    0.000000    0.000000    0.000000

* Maximum dynamic memory allocated : Node    0 =   166 MB
* Maximum dynamic memory allocated : Node    1 =    66 MB
* Maximum dynamic memory allocated : Node    2 =    68 MB
* Maximum dynamic memory allocated : Node    3 =   152 MB
* Maximum dynamic memory allocated : Node    4 =   162 MB
* Maximum dynamic memory allocated : Node    5 =    61 MB
* Maximum dynamic memory allocated : Node    6 =    62 MB
* Maximum dynamic memory allocated : Node    7 =   155 MB
* Maximum dynamic memory allocated : Node    8 =   146 MB
* Maximum dynamic memory allocated : Node    9 =    59 MB
* Maximum dynamic memory allocated : Node   10 =    60 MB
* Maximum dynamic memory allocated : Node   11 =   139 MB

* Maximum memory occured during matrixMtoO                    

timer: CPU execution times:
timer:  Routine       Calls   Time/call    Tot.time        %
timer:  siesta            1  133816.897  133816.897   100.00
timer:  Setup             1       3.499       3.499     0.00
timer:  bands             3     226.958     680.874     0.51
timer:  writewave         1       0.024       0.024     0.00
timer:  KSV_init          1       0.005       0.005     0.00
timer:  IterMD            1  133125.402  133125.402    99.48
timer:  hsparse           1       0.278       0.278     0.00
timer:  overlap           1       6.417       6.417     0.00
timer:  IterSCF          45    2954.933  132971.986    99.37
timer:  kinefsm           2       3.269       6.537     0.00
timer:  nlefsm            2      20.064      40.127     0.03
timer:  DHSCF            46      77.410    3560.851     2.66
timer:  DHSCF1            1       1.195       1.195     0.00
timer:  DHSCF2            1      32.545      32.545     0.02
timer:  REORD           370       0.002       0.857     0.00
timer:  POISON           47       0.451      21.197     0.02
timer:  DHSCF3           46      76.090    3500.143     2.62
timer:  rhoofd           46      16.355     752.322     0.56
timer:  cellXC           46       2.434     111.951     0.08
timer:  vmat             46      36.515    1679.695     1.26
timer:  MolMec            2       0.000       0.000     0.00
timer:  diagon           45    2876.357  129436.087    96.73
timer:  c-eigval      10516       5.603   58925.386    44.03
timer:  c-buildHS     10516       0.035     368.781     0.28
timer:  cdiag         20911       5.707  119345.725    89.19
timer:  cdiag1        20911       0.262    5486.003     4.10
timer:  cdiag2        20911       1.845   38576.309    28.83
timer:  cdiag3        20911       3.383   70751.880    52.87
timer:  cdiag4        20911       0.088    1842.105     1.38
timer:  c-eigvec      10395       5.878   61103.178    45.66
timer:  c-buildD      10395       0.965   10031.443     7.50
timer:  DHSCF4            1      26.672      26.672     0.02
timer:  dfscf             1      24.600      24.600     0.02
timer:  overfsm           1       0.312       0.312     0.00
timer:  optical           1       6.501       6.501     0.00
  

elaps: ELAPSED times:
elaps:  Routine       Calls   Time/call    Tot.time        %
elaps:  siesta            1   11177.567   11177.567   100.00
elaps:  Setup             1       0.292       0.292     0.00
elaps:  bands             3      18.973      56.920     0.51
elaps:  writewave         1       0.002       0.002     0.00
elaps:  KSV_init          1       0.000       0.000     0.00
elaps:  IterMD            1   11119.808   11119.808    99.48
elaps:  hsparse           1       0.028       0.028     0.00
elaps:  overlap           1       0.715       0.715     0.01
elaps:  IterSCF          45     246.822   11106.993    99.37
elaps:  kinefsm           2       0.368       0.735     0.01
elaps:  nlefsm            2       1.813       3.626     0.03
elaps:  DHSCF            46       6.514     299.625     2.68
elaps:  DHSCF1            1       0.101       0.101     0.00
elaps:  DHSCF2            1       2.717       2.717     0.02
elaps:  REORD           370       0.000       0.110     0.00
elaps:  POISON           47       0.038       1.772     0.02
elaps:  DHSCF3           46       6.357     292.410     2.62
elaps:  rhoofd           46       2.827     130.063     1.16
elaps:  cellXC           46       0.203       9.331     0.08
elaps:  vmat             46       3.051     140.345     1.26
elaps:  MolMec            2       0.000       0.000     0.00
elaps:  diagon           45     240.266   10811.981    96.73
elaps:  c-eigval      10516       0.468    4921.899    44.03
elaps:  c-buildHS     10516       0.004      40.744     0.36
elaps:  cdiag         20911       0.471    9853.236    88.15
elaps:  cdiag1        20911       0.021     447.958     4.01
elaps:  cdiag2        20911       0.154    3225.180    28.85
elaps:  cdiag3        20911       0.283    5918.244    52.95
elaps:  cdiag4        20911       0.007     148.127     1.33
elaps:  c-eigvec      10395       0.482    5006.623    44.79
elaps:  c-buildD      10395       0.090     934.944     8.36
elaps:  DHSCF4            1       4.350       4.350     0.04
elaps:  dfscf             1       4.096       4.096     0.04
elaps:  overfsm           1       0.035       0.035     0.00
elaps:  optical           1       0.000       0.000     0.00
  
>> End of run:   5-MAY-2016   6:08:44
