Siesta Version:                                        siesta-3.2-pl-3
Architecture  : x86_64-unknown-linux-gnu--unknown
Compiler flags: mpiifort -g -O2 -fPIC -xSSE4.1 -fp-model source -shared-intel 
PARALLEL version

* Running on    8 nodes in parallel
>> Start of run:  19-APR-2016  22:45:54

                           ***********************       
                           *  WELCOME TO SIESTA  *       
                           ***********************       

reinit: Reading from standard input
************************** Dump of input data file ****************************
#(1) General system descriptors
SystemName            GRP_doping    # Descriptive name of the system
SystemLabel           GRP_doping    # Short name for naming files
%include STRUCT.fdf
%include KPT.fdf
%include BASIS.fdf
#%include TS.fdf # for transiesta calculation
#(4) DFT, Grid, SCF
XC.functional         GGA           # LDA or GGA (default = LDA)
XC.authors            PBE           # CA (Ceperley-Aldr) = PZ
                                    #    (Perdew-Zunger) - LDA - Default
                                    # PW92 (Perdew-Wang-92) - LDA
                                    # PBE (Perdew-Burke-Ernzerhof) - GGA
MeshCutoff            200.000000    Ry      # Default: 50.0 Ry ~ 0.444 Bohr
                                    #         100.0 Ry ~ 0.314 Bohr
MaxSCFIterations      500           # Default: 50
DM.MixingWeight       0.05          # Default: 0.25
DM.NumberPulay        10            # Default: 0
DM.PulayOnFile        F             # SystemLabel.P1, SystemLabel.P2
DM.Tolerance          1.d-4         # Default: 1.d-4
DM.UseSaveDM          .true.        # because of the bug
SCFMustConverge       .true.
NeglNonOverlapInt     F             # Default: F
#(5) Eigenvalue problem: order-N or diagonalization
SolutionMethod        Diagon        # or Transiesta
ElectronicTemperature 300.0 K       # Default: 300.0 K
#(6) Molecular dynamics and relaxations
#MD.TypeOfRun          CG            # Type of dynamics:
#MD.VariableCell       F
#MD.NumCGsteps         0           # 0 for single-point / 100 for gopt
#MD.MaxCGDispl         0.2 Bohr      # Default: 0.2 Bohr
#MD.MaxForceTol        0.02 eV/Ang   # Default: 0.04 eV/Ang
#MD.MaxStressTol       1.0 GPa       # Default: 1.0 GPa
# Geometry Constraints
#%block GeometryConstraints
#	position from 1 to 44
#%endblock GeometryConstraints
BandLinesScale   pi/a
%block BandLines
 1   0.00000000  0.00000000  0.00000000
50   0.00000000  0.07809418  0.00000000
50   0.04509075  0.07809242  0.00000000
20   0.00000000  0.00000000  0.00000000
%endblock BandLines
************************** End of input data file *****************************

reinit: -----------------------------------------------------------------------
reinit: System Name: GRP_doping
reinit: -----------------------------------------------------------------------
reinit: System Label: GRP_doping                                                  
reinit: -----------------------------------------------------------------------

initatom: Reading input for the pseudopotentials and atomic orbitals ----------
 Species number:            1  Label: N Atomic number:           7
 Species number:            2  Label: C Atomic number:           6
Ground state valence configuration:   2s02  2p03
Reading pseudopotential information in formatted form from N.psf

Valence configuration for pseudopotential generation:
2s( 2.00) rc: 1.48
2p( 3.00) rc: 1.48
3d( 0.00) rc: 1.48
4f( 0.00) rc: 1.48
Ground state valence configuration:   2s02  2p02
Reading pseudopotential information in formatted form from C.psf

Valence configuration for pseudopotential generation:
2s( 2.00) rc: 1.54
2p( 2.00) rc: 1.54
3d( 0.00) rc: 1.54
4f( 0.00) rc: 1.54
For N, standard SIESTA heuristics set lmxkb to 3
 (one more than the basis l, including polarization orbitals).
Use PS.lmax or PS.KBprojectors blocks to override.
For C, standard SIESTA heuristics set lmxkb to 3
 (one more than the basis l, including polarization orbitals).
Use PS.lmax or PS.KBprojectors blocks to override.

<basis_specs>
===============================================================================
N                    Z=   7    Mass=  14.010        Charge= 0.17977+309
Lmxo=1 Lmxkb= 3    BasisType=split      Semic=F
L=0  Nsemic=0  Cnfigmx=2
          n=1  nzeta=2  polorb=0
            splnorm:   0.15000    
               vcte:    0.0000    
               rinn:    0.0000    
                rcs:    0.0000      0.0000    
            lambdas:    1.0000      1.0000    
L=1  Nsemic=0  Cnfigmx=2
          n=1  nzeta=2  polorb=1
            splnorm:   0.15000    
               vcte:    0.0000    
               rinn:    0.0000    
                rcs:    0.0000      0.0000    
            lambdas:    1.0000      1.0000    
-------------------------------------------------------------------------------
L=0  Nkbl=1  erefs: 0.17977+309
L=1  Nkbl=1  erefs: 0.17977+309
L=2  Nkbl=1  erefs: 0.17977+309
L=3  Nkbl=1  erefs: 0.17977+309
===============================================================================
</basis_specs>

atom: Called for N                     (Z =   7)

read_vps: Pseudopotential generation method:
read_vps: ATM3      Troullier-Martins                       
Total valence charge:    5.00000

read_vps: Pseudopotential includes a core correction:
read_vps: Pseudo-core for xc-correction

xc_check: Exchange-correlation functional:
xc_check: GGA Perdew, Burke & Ernzerhof 1996
V l=0 = -2*Zval/r beyond r=  1.4606
V l=1 = -2*Zval/r beyond r=  1.4606
V l=2 = -2*Zval/r beyond r=  1.4606
V l=3 = -2*Zval/r beyond r=  1.4606
All V_l potentials equal beyond r=  1.4606
This should be close to max(r_c) in ps generation
All pots = -2*Zval/r beyond r=  1.4606

VLOCAL1: 99.0% of the norm of Vloc inside     20.347 Ry
VLOCAL1: 99.9% of the norm of Vloc inside     46.372 Ry
atom: Maximum radius for 4*pi*r*r*local-pseudopot. charge    1.76189
atom: Maximum radius for r*vlocal+2*Zval:    1.53550
GHOST: No ghost state for L =  0
GHOST: No ghost state for L =  1
GHOST: No ghost state for L =  2
GHOST: No ghost state for L =  3

KBgen: Kleinman-Bylander projectors: 
   l= 0   rc=  1.634559   el= -1.363963   Ekb=  5.296955   kbcos=  0.335621
   l= 1   rc=  1.614250   el= -0.521451   Ekb= -5.259161   kbcos= -0.433408
   l= 2   rc=  1.718383   el=  0.001991   Ekb= -1.271464   kbcos= -0.007566
   l= 3   rc=  1.761893   el=  0.003093   Ekb= -0.494769   kbcos= -0.001015

KBgen: Total number of  Kleinman-Bylander projectors:   16
atom: -------------------------------------------------------------------------

atom: SANKEY-TYPE ORBITALS:
atom: Selected multiple-zeta basis: split     

SPLIT: Orbitals with angular momentum L= 0

SPLIT: Basis orbitals for state 2s

SPLIT: PAO cut-off radius determined from an
SPLIT: energy shift=  0.007350 Ry

   izeta = 1
                 lambda =    1.000000
                     rc =    4.071465
                 energy =   -1.356470
                kinetic =    1.176977
    potential(screened) =   -2.533447
       potential(ionic) =   -8.057990

   izeta = 2
                 rmatch =    2.905100
              splitnorm =    0.150000
                 energy =   -1.158343
                kinetic =    1.813009
    potential(screened) =   -2.971352
       potential(ionic) =   -8.901931

SPLIT: Orbitals with angular momentum L= 1

SPLIT: Basis orbitals for state 2p

SPLIT: PAO cut-off radius determined from an
SPLIT: energy shift=  0.007350 Ry

   izeta = 1
                 lambda =    1.000000
                     rc =    4.972977
                 energy =   -0.513884
                kinetic =    3.441732
    potential(screened) =   -3.955616
       potential(ionic) =   -9.287901

   izeta = 2
                 rmatch =    3.054066
              splitnorm =    0.150000
                 energy =   -0.318226
                kinetic =    5.125348
    potential(screened) =   -5.443573
       potential(ionic) =  -11.380999

POLgen: Perturbative polarization orbital with L=  2

POLgen: Polarization orbital for state 2p

   izeta = 1
                     rc =    4.972977
                 energy =    1.607437
                kinetic =    3.268125
    potential(screened) =   -1.660688
       potential(ionic) =   -5.973652
atom: Total number of Sankey-type orbitals: 13

atm_pop: Valence configuration (for local Pseudopot. screening):
 2s( 2.00)                                                            
 2p( 3.00)                                                            
Vna: chval, zval:    5.00000   5.00000

Vna:  Cut-off radius for the neutral-atom potential:   4.972977
comcore: Pseudo-core radius Rcore=  1.554824

atom: _________________________________________________________________________

<basis_specs>
===============================================================================
C                    Z=   6    Mass=  12.010        Charge= 0.17977+309
Lmxo=1 Lmxkb= 3    BasisType=split      Semic=F
L=0  Nsemic=0  Cnfigmx=2
          n=1  nzeta=2  polorb=0
            splnorm:   0.15000    
               vcte:    0.0000    
               rinn:    0.0000    
                rcs:    0.0000      0.0000    
            lambdas:    1.0000      1.0000    
L=1  Nsemic=0  Cnfigmx=2
          n=1  nzeta=2  polorb=1
            splnorm:   0.15000    
               vcte:    0.0000    
               rinn:    0.0000    
                rcs:    0.0000      0.0000    
            lambdas:    1.0000      1.0000    
-------------------------------------------------------------------------------
L=0  Nkbl=1  erefs: 0.17977+309
L=1  Nkbl=1  erefs: 0.17977+309
L=2  Nkbl=1  erefs: 0.17977+309
L=3  Nkbl=1  erefs: 0.17977+309
===============================================================================
</basis_specs>

atom: Called for C                     (Z =   6)

read_vps: Pseudopotential generation method:
read_vps: ATM3      Troullier-Martins                       
Total valence charge:    4.00000

read_vps: Pseudopotential includes a core correction:
read_vps: Pseudo-core for xc-correction

xc_check: Exchange-correlation functional:
xc_check: GGA Perdew, Burke & Ernzerhof 1996
V l=0 = -2*Zval/r beyond r=  1.5227
V l=1 = -2*Zval/r beyond r=  1.5227
V l=2 = -2*Zval/r beyond r=  1.5227
V l=3 = -2*Zval/r beyond r=  1.5038
All V_l potentials equal beyond r=  1.5227
This should be close to max(r_c) in ps generation
All pots = -2*Zval/r beyond r=  1.5227

VLOCAL1: 99.0% of the norm of Vloc inside     18.722 Ry
VLOCAL1: 99.9% of the norm of Vloc inside     42.668 Ry
atom: Maximum radius for 4*pi*r*r*local-pseudopot. charge    1.83678
atom: Maximum radius for r*vlocal+2*Zval:    1.58088
GHOST: No ghost state for L =  0
GHOST: No ghost state for L =  1
GHOST: No ghost state for L =  2
GHOST: No ghost state for L =  3

KBgen: Kleinman-Bylander projectors: 
   l= 0   rc=  1.704034   el= -1.009801   Ekb=  5.335044   kbcos=  0.316824
   l= 1   rc=  1.704034   el= -0.388707   Ekb= -3.785862   kbcos= -0.366464
   l= 2   rc=  1.791422   el=  0.001971   Ekb= -0.970471   kbcos= -0.009212
   l= 3   rc=  1.859892   el=  0.003065   Ekb= -0.399525   kbcos= -0.001223

KBgen: Total number of  Kleinman-Bylander projectors:   16
atom: -------------------------------------------------------------------------

atom: SANKEY-TYPE ORBITALS:
atom: Selected multiple-zeta basis: split     

SPLIT: Orbitals with angular momentum L= 0

SPLIT: Basis orbitals for state 2s

SPLIT: PAO cut-off radius determined from an
SPLIT: energy shift=  0.007350 Ry

   izeta = 1
                 lambda =    1.000000
                     rc =    4.632753
                 energy =   -1.002270
                kinetic =    0.855760
    potential(screened) =   -1.858031
       potential(ionic) =   -5.417575

   izeta = 2
                 rmatch =    3.431921
              splitnorm =    0.150000
                 energy =   -0.867111
                kinetic =    1.300804
    potential(screened) =   -2.167915
       potential(ionic) =   -5.962684

SPLIT: Orbitals with angular momentum L= 1

SPLIT: Basis orbitals for state 2p

SPLIT: PAO cut-off radius determined from an
SPLIT: energy shift=  0.007350 Ry

   izeta = 1
                 lambda =    1.000000
                     rc =    5.658549
                 energy =   -0.381140
                kinetic =    2.399701
    potential(screened) =   -2.780841
       potential(ionic) =   -6.206085

   izeta = 2
                 rmatch =    3.653288
              splitnorm =    0.150000
                 energy =   -0.249149
                kinetic =    3.542762
    potential(screened) =   -3.791911
       potential(ionic) =   -7.581078

POLgen: Perturbative polarization orbital with L=  2

POLgen: Polarization orbital for state 2p

   izeta = 1
                     rc =    5.658549
                 energy =    1.109913
                kinetic =    2.304789
    potential(screened) =   -1.194876
       potential(ionic) =   -4.013592
atom: Total number of Sankey-type orbitals: 13

atm_pop: Valence configuration (for local Pseudopot. screening):
 2s( 2.00)                                                            
 2p( 2.00)                                                            
Vna: chval, zval:    4.00000   4.00000

Vna:  Cut-off radius for the neutral-atom potential:   5.658549
comcore: Pseudo-core radius Rcore=  1.791422

atom: _________________________________________________________________________

prinput: Basis input ----------------------------------------------------------

PAO.BasisType split     

%block ChemicalSpeciesLabel
    1    7 N                       # Species index, atomic number, species label
    2    6 C                       # Species index, atomic number, species label
%endblock ChemicalSpeciesLabel

%block PAO.Basis                 # Define Basis set
N                     2                    # Species label, number of l-shells
 n=2   0   2                         # n, l, Nzeta 
   4.071      2.905   
   1.000      1.000   
 n=2   1   2 P   1                   # n, l, Nzeta, Polarization, NzetaPol
   4.973      3.054   
   1.000      1.000   
C                     2                    # Species label, number of l-shells
 n=2   0   2                         # n, l, Nzeta 
   4.633      3.432   
   1.000      1.000   
 n=2   1   2 P   1                   # n, l, Nzeta, Polarization, NzetaPol
   5.659      3.653   
   1.000      1.000   
%endblock PAO.Basis

prinput: ----------------------------------------------------------------------

coor:   Atomic-coordinates input format  =     Fractional

siesta: Atomic coordinates (Bohr) and species
siesta:     -0.02582   2.59549   0.00000  1        1
siesta:     -0.02582   5.28395   0.00000  1        2
siesta:     -2.35420  38.89134   0.00000  1        3
siesta:     -2.35420  41.57980   0.00000  1        4
siesta:     -4.68258  34.85847   0.00000  1        5
siesta:     -4.68258  37.54693   0.00000  1        6
siesta:      2.30256   6.62836   0.00000  1        7
siesta:      2.30256   9.31683   0.00000  1        8
siesta:     -2.35420   6.62836   0.00000  1        9
siesta:     -2.35420   9.31683   0.00000  1       10
siesta:     -0.02582  10.66124   0.00000  1       11
siesta:     -0.02582  13.34970   0.00000  1       12
siesta:     -2.35420  14.69411   0.00000  1       13
siesta:     -2.35420  17.38257   0.00000  1       14
siesta:     -0.02582  18.72698   0.00000  1       15
siesta:     -0.02582  21.41544   0.00000  1       16
siesta:     -4.68258  18.72698   0.00000  1       17
siesta:     -4.68258  21.41544   0.00000  1       18
siesta:     -2.35420  22.75985   0.00000  1       19
siesta:     -2.35420  25.44831   0.00000  1       20
siesta:     -4.68258  26.79272   0.00000  1       21
siesta:     -4.68258  29.48119   0.00000  1       22
siesta:     -2.35420  30.82560   0.00000  1       23
siesta:     -2.35420  33.51406   0.00000  1       24
siesta:     -7.01096  30.82560   0.00000  1       25
siesta:     -7.01096  33.51406   0.00000  1       26
siesta:      2.30256  38.89134   0.00000  2       27
siesta:      2.30256  41.57980   0.00000  2       28
siesta:      4.63094  34.85847   0.00000  2       29
siesta:      4.63094  37.54693   0.00000  2       30
siesta:      6.95932  30.82560   0.00000  2       31
siesta:      6.95932  33.51406   0.00000  2       32
siesta:      9.28770  26.79272   0.00000  2       33
siesta:      9.28770  29.48119   0.00000  2       34
siesta:      4.63094  10.66124   0.00000  2       35
siesta:      4.63094  13.34970   0.00000  2       36
siesta:      6.95932  14.69411   0.00000  2       37
siesta:      6.95932  17.38257   0.00000  2       38
siesta:      9.28770  18.72698   0.00000  2       39
siesta:      9.28770  21.41544   0.00000  2       40
siesta:     11.61608  22.75985   0.00000  2       41
siesta:     11.61608  25.44831   0.00000  2       42
siesta:      2.30256  14.69411   0.00000  2       43
siesta:      2.30256  17.38257   0.00000  2       44
siesta:      4.63094  18.72698   0.00000  2       45
siesta:      4.63094  21.41544   0.00000  2       46
siesta:      6.95932  22.75985   0.00000  2       47
siesta:      6.95932  25.44831   0.00000  2       48
siesta:     -4.68258  10.66124   0.00000  2       49
siesta:     -4.68258  13.34970   0.00000  2       50
siesta:      2.30256  22.75985   0.00000  2       51
siesta:      2.30256  25.44831   0.00000  2       52
siesta:     -7.01096  14.69411   0.00000  2       53
siesta:     -7.01096  17.38257   0.00000  2       54
siesta:     -9.33934  18.72698   0.00000  2       55
siesta:     -9.33934  21.41544   0.00000  2       56
siesta:     -7.01096  22.75985   0.00000  2       57
siesta:     -7.01096  25.44831   0.00000  2       58
siesta:    -11.66772  22.75985   0.00000  2       59
siesta:    -11.66772  25.44831   0.00000  2       60
siesta:     -9.33934  26.79272   0.00000  2       61
siesta:     -9.33934  29.48119   0.00000  2       62
siesta:      4.63094  26.79272   0.00000  2       63
siesta:      4.63094  29.48119   0.00000  2       64
siesta:     -0.02582  26.79272   0.00000  2       65
siesta:     -0.02582  29.48119   0.00000  2       66
siesta:      2.30256  30.82560   0.00000  2       67
siesta:      2.30256  33.51406   0.00000  2       68
siesta:     -0.02582  34.85847   0.00000  2       69
siesta:     -0.02582  37.54693   0.00000  2       70
siesta:     -0.02582  42.92421   0.00000  2       71
siesta:     -0.02582  45.61267   0.00000  2       72

siesta: System type = slab      

initatomlists: Number of atoms, orbitals, and projectors:     72   936  1152

siesta: ******************** Simulation parameters ****************************
siesta:
siesta: The following are some of the parameters of the simulation.
siesta: A complete list of the parameters used, including default values,
siesta: can be found in file out.fdf
siesta:
redata: Non-Collinear-spin run           =     F
redata: SpinPolarized (Up/Down) run      =     F
redata: Number of spin components        =     1
redata: Long output                      =     F
redata: Number of Atomic Species         =        2
redata: Charge density info will appear in .RHO file
redata: Write Mulliken Pop.              =     NO
redata: Mesh Cutoff                      =   200.0000  Ry
redata: Net charge of the system         =     0.0000 |e|
redata: Max. number of SCF Iter          =      500
redata: SCF convergence failure will abort job
redata: Performing Pulay mixing using    =    10 iterations
redata: Mix DM in first SCF step ?       =     F
redata: Write Pulay info on disk?        =     F
redata: Discard 1st Pulay DM after  kick =     F
redata: New DM Mixing Weight             =     0.0500
redata: New DM Occupancy tolerance       = 0.000000000001
redata: No kicks to SCF
redata: DM Mixing Weight for Kicks       =     0.5000
redata: DM Tolerance for SCF             =     0.000100
redata: Require Energy convergence for SCF =     F
redata: DM Energy tolerance for SCF      =     0.000100 eV
redata: Require Harris convergence for SCF =     F
redata: DM Harris energy tolerance for SCF =     0.000100 eV
redata: Using Saved Data (generic)   =     F
redata: Use continuation files for DM    =     T
redata: Neglect nonoverlap interactions  =     F
redata: Method of Calculation            =     Diagonalization
redata: Divide and Conquer               =     T
redata: Electronic Temperature           =     0.0019  Ry
redata: Fix the spin of the system       =     F
redata: Dynamics option                  =     Verlet MD run
redata: Initial MD time step             =        1
redata:   Final MD time step             =        1
redata: Length of MD time step           =     1.0000  fs
redata: Initial Temperature of MD run    =     0.0000  K
redata: Perform a MD quench              =     F
redata: ***********************************************************************
Total number of electrons:   314.000000
Total ionic charge:   314.000000

* ProcessorY, Blocksize:    2  24

k-point displ. along   1 input, could be:     0.50    0.00
k-point displ. along   2 input, could be:     0.50    0.00
 Kpoints in:          231 . Kpoints trimmed:          231

siesta: k-grid: Number of k-points =   231
siesta: k-grid: Cutoff (effective) =     5.000 Ang
siesta: k-grid: Supercell and displacements
siesta: k-grid:   21   0   0      0.500
siesta: k-grid:    0  21   0      0.500
siesta: k-grid:    0   0   1      0.000
Naive supercell factors:     2    2    2

superc: Internal auxiliary supercell:     2 x     2 x     2  =       8
superc: Number of atoms, orbitals, and projectors:    576   7488   9216

* Maximum dynamic memory allocated =     4 MB

siesta:                 ==============================
                            Begin MD step =      1
                        ==============================

superc: Internal auxiliary supercell:     2 x     2 x     2  =       8
superc: Number of atoms, orbitals, and projectors:    576   7488   9216

outcell: Unit cell vectors (Ang):
       12.804619    7.392750    0.000000
        0.000000   14.785500    0.000000
        0.000000    0.000000   10.000000

outcell: Cell vector modules (Ang)   :   14.785500   14.785500   10.000000
outcell: Cell angles (23,13,12) (deg):     90.0000     90.0000     60.0000
outcell: Cell volume (Ang**3)        :   1893.2269
New_DM. Step:     1
Initializing Density Matrix...

InitMesh: MESH =   120 x   120 x    90 =     1296000
InitMesh: Mesh cutoff (required, used) =   200.000   223.865 Ry

* Maximum dynamic memory allocated =   177 MB

stepf: Fermi-Dirac step function

siesta: Program's energy decomposition (eV):
siesta: Ebs     =     -6455.239882
siesta: Eions   =     22582.429020
siesta: Ena     =      5016.908238
siesta: Ekin    =      8560.167659
siesta: Enl     =      -156.443506
siesta: DEna    =        -0.000015
siesta: DUscf   =         0.000000
siesta: DUext   =         0.000000
siesta: Exc     =     -4840.147408
siesta: eta*DQ  =         0.000000
siesta: Emadel  =         0.000000
siesta: Emeta   =         0.000000
siesta: Emolmec =         0.000000
siesta: Ekinion =         0.000000
siesta: Eharris =    -13548.971064
siesta: Etot    =    -14001.944052
siesta: FreeEng =    -14001.944052

siesta: iscf   Eharris(eV)      E_KS(eV)   FreeEng(eV)   dDmax  Ef(eV)
siesta:    1   -13548.9711   -14001.9441   -14001.9441  5.5774 -6.3703
timer: Routine,Calls,Time,% = IterSCF        1    4133.861  99.71
elaps: Routine,Calls,Wall,% = IterSCF        1     517.395  99.70
siesta:    2   -16771.2885   -13029.4336   -13029.4337 13.5219 -3.1124
siesta:    3   -13451.2192   -13804.0221   -13804.0818  2.5931 -5.0433
siesta:    4   -13430.4009   -13611.2536   -13611.3159  0.9242 -4.1370
siesta:    5   -13403.9258   -13548.1827   -13548.1880  0.7868 -3.8507
siesta:    6   -13399.8399   -13519.7477   -13519.8161  0.8696 -3.7659
siesta:    7   -13397.8181   -13509.1574   -13509.2112  0.7998 -3.7690
siesta:    8   -13394.6167   -13476.2141   -13476.2833  0.5904 -3.8101
siesta:    9   -13394.4870   -13445.1897   -13445.2319  0.4360 -3.7588
siesta:   10   -13394.8057   -13417.4513   -13417.5111  0.3220 -3.7754
siesta:   11   -13393.8950   -13401.7655   -13401.8354  0.2418 -3.7017
siesta:   12   -13393.7558   -13383.7171   -13383.7283  0.1872 -3.6989
siesta:   13   -13393.3988   -13381.3894   -13381.4520  0.1551 -3.7075
siesta:   14   -13392.9792   -13383.3016   -13383.3589  0.1220 -3.7458
siesta:   15   -13392.8656   -13382.9107   -13382.9845  0.0667 -3.7463
siesta:   16   -13392.8169   -13384.5068   -13384.5747  0.0494 -3.7508
siesta:   17   -13392.7861   -13384.0902   -13384.1619  0.0341 -3.7535
siesta:   18   -13392.7731   -13385.5758   -13385.6466  0.0309 -3.7545
siesta:   19   -13392.7687   -13387.9726   -13388.0420  0.0303 -3.7563
siesta:   20   -13392.7666   -13389.9353   -13390.0051  0.0212 -3.7568
siesta:   21   -13392.7614   -13390.5700   -13390.6401  0.0123 -3.7584
siesta:   22   -13392.7609   -13391.1107   -13391.1820  0.0076 -3.7579
siesta:   23   -13392.7602   -13391.7474   -13391.8181  0.0049 -3.7573
siesta:   24   -13392.7601   -13392.1206   -13392.1908  0.0038 -3.7578
siesta:   25   -13392.7599   -13392.5108   -13392.5809  0.0032 -3.7580
siesta:   26   -13392.7598   -13392.6476   -13392.7178  0.0019 -3.7578
siesta:   27   -13392.7599   -13392.7300   -13392.8003  0.0012 -3.7574
siesta:   28   -13392.7598   -13392.7050   -13392.7751  0.0006 -3.7571
siesta:   29   -13392.7598   -13392.7052   -13392.7754  0.0005 -3.7571
siesta:   30   -13392.7598   -13392.7154   -13392.7855  0.0005 -3.7570
siesta:   31   -13392.7598   -13392.7367   -13392.8069  0.0002 -3.7571
siesta:   32   -13392.7598   -13392.7519   -13392.8221  0.0002 -3.7571
siesta:   33   -13392.7598   -13392.7509   -13392.8211  0.0002 -3.7572
siesta:   34   -13392.7598   -13392.7592   -13392.8294  0.0001 -3.7572
siesta:   35   -13392.7598   -13392.7645   -13392.8347  0.0001 -3.7572

siesta: E_KS(eV) =           -13392.7657

siesta: E_KS - E_eggbox =    -13392.7657

siesta: Atomic forces (eV/Ang):
----------------------------------------
   Tot   -0.014244   -0.012382    0.000000
----------------------------------------
   Max  777.057501
   Res  193.947475    sqrt( Sum f_i^2 / 3N )
----------------------------------------
   Max  777.057501    constrained

Stress-tensor-Voigt (kbar):     -644.91    -3535.31       -0.11        6.69        0.00        0.00
(Free)E + p*V (eV/cell)   -11746.2785
Target enthalpy (eV/cell)   -13392.8358

siesta: Stress tensor (static) (eV/Ang**3):
        -0.402517    0.004173    0.000000
         0.004172   -2.206543    0.000000
         0.000000    0.000000   -0.000068

siesta: Pressure (static):       1393.44321147  kBar

siesta: Stress tensor (total) (eV/Ang**3):
        -0.402517    0.004173    0.000000
         0.004172   -2.206543    0.000000
         0.000000    0.000000   -0.000068

siesta: Pressure (total):       1393.44321147  kBar

siesta: Temp_ion =       0.000 K

* Maximum dynamic memory allocated =   194 MB
Computing bands...

siesta: Program's energy decomposition (eV):
siesta: Ebs     =     -5236.912450
siesta: Eions   =     22582.429020
siesta: Ena     =      5016.908238
siesta: Ekin    =     11880.648345
siesta: Enl     =     -1950.127590
siesta: DEna    =      -846.001082
siesta: DUscf   =       115.604253
siesta: DUext   =         0.000000
siesta: Exc     =     -5027.368802
siesta: eta*DQ  =         0.000000
siesta: Emadel  =         0.000000
siesta: Emeta   =         0.000000
siesta: Emolmec =         0.000000
siesta: Ekinion =         0.000000
siesta: Eharris =    -13392.759809
siesta: Etot    =    -13392.765657
siesta: FreeEng =    -13392.835822

siesta: Final energy (eV):
siesta:  Band Struct. =   -5236.912450
siesta:       Kinetic =   11880.648345
siesta:       Hartree =   39371.313753
siesta:    Ext. field =       0.000000
siesta:   Exch.-corr. =   -5027.368802
siesta:  Ion-electron =  -90131.264502
siesta:       Ion-ion =   30513.905549
siesta:       Ekinion =       0.000000
siesta:         Total =  -13392.765657

siesta: Atomic forces (eV/Ang):
siesta:      1   -0.141785  646.419133    0.000000
siesta:      2    0.916015 -114.703203    0.000000
siesta:      3    1.422600  106.746345    0.000000
siesta:      4  -26.033419 -750.787655    0.000000
siesta:      5  -32.259161    7.024387    0.000000
siesta:      6  -22.712575 -658.756507    0.000000
siesta:      7   20.534035  660.918964    0.000000
siesta:      8    0.921964 -104.978585    0.000000
siesta:      9  -26.043281  748.980028    0.000000
siesta:     10    4.260076 -108.518926    0.000000
siesta:     11   -4.564393  669.774207    0.000000
siesta:     12    6.344033 -112.991374    0.000000
siesta:     13    0.358550  777.057501    0.000000
siesta:     14  -35.221344   -6.400033    0.000000
siesta:     15   19.325069  679.775664    0.000000
siesta:     16    1.473036   -3.906508    0.000000
siesta:     17   -0.550702    2.558595    0.000000
siesta:     18   -0.729912    0.723457    0.000000
siesta:     19   -2.026682    0.060820    0.000000
siesta:     20   -1.050059    1.976471    0.000000
siesta:     21    0.104297   -0.277310    0.000000
siesta:     22   -0.110267   -2.097643    0.000000
siesta:     23  -32.397932    0.811179    0.000000
siesta:     24    4.338095 -775.406776    0.000000
siesta:     25   -5.058048    0.327659    0.000000
siesta:     26   -0.368455   -3.284564    0.000000
siesta:     27    2.064933  120.358381    0.000000
siesta:     28   -6.839477 -549.306808    0.000000
siesta:     29   27.421435    2.812802    0.000000
siesta:     30   18.697460 -551.628621    0.000000
siesta:     31    2.065942    0.233320    0.000000
siesta:     32   -3.274182    1.358816    0.000000
siesta:     33    2.176830    2.626588    0.000000
siesta:     34   -1.278302   -0.092181    0.000000
siesta:     35   32.313813  554.847962    0.000000
siesta:     36   27.422095   -4.303119    0.000000
siesta:     37   -2.867164   -1.715168    0.000000
siesta:     38    1.835147   -0.013503    0.000000
siesta:     39   -1.302632   -0.199377    0.000000
siesta:     40    1.779712   -2.387418    0.000000
siesta:     41   -0.062385    7.601024    0.000000
siesta:     42   -0.382498   -7.639217    0.000000
siesta:     43   25.272705  564.966634    0.000000
siesta:     44   26.319324   -9.349688    0.000000
siesta:     45   -1.370933    2.949140    0.000000
siesta:     46   -0.546248   -0.675547    0.000000
siesta:     47   -0.035905    1.146938    0.000000
siesta:     48   -0.340530   -0.873281    0.000000
siesta:     49  -26.241074  662.681834    0.000000
siesta:     50  -30.480158   -5.950361    0.000000
siesta:     51    0.776385    0.892053    0.000000
siesta:     52   -0.876464   -1.216722    0.000000
siesta:     53    3.010261    0.033426    0.000000
siesta:     54   -2.094508   -0.596390    0.000000
siesta:     55    1.017010   -0.291321    0.000000
siesta:     56   -1.478250   -2.033712    0.000000
siesta:     57    1.381993    1.405046    0.000000
siesta:     58    0.641724   -1.518602    0.000000
siesta:     59    0.239059    6.700413    0.000000
siesta:     60    0.181611   -6.102199    0.000000
siesta:     61   -0.705337    1.958388    0.000000
siesta:     62    2.014472    2.548812    0.000000
siesta:     63    0.644145    0.184460    0.000000
siesta:     64   -1.554475   -3.008032    0.000000
siesta:     65   -0.313887    0.647001    0.000000
siesta:     66   12.828755 -685.767027    0.000000
siesta:     67   23.829530    1.231954    0.000000
siesta:     68    0.795271 -684.925588    0.000000
siesta:     69    7.122856  116.782254    0.000000
siesta:     70   -2.153512 -676.527483    0.000000
siesta:     71    4.119145  121.427602    0.000000
siesta:     72  -12.517689 -640.331190    0.000000
siesta: ----------------------------------------
siesta:    Tot   -0.014244   -0.012382    0.000000

siesta: Stress tensor (static) (eV/Ang**3):
siesta:    -0.402517    0.004173    0.000000
siesta:     0.004172   -2.206543    0.000000
siesta:     0.000000    0.000000   -0.000068

siesta: Cell volume =       1893.226884 Ang**3

siesta: Pressure (static):
siesta:                Solid            Molecule  Units
siesta:           0.00947225          0.15588416  Ry/Bohr**3
siesta:           0.86970944         14.31275389  eV/Ang**3
siesta:        1393.44321147      22931.80772421  kBar
(Free)E+ p_basis*V_orbitals  =      -13365.815258
(Free)Eharris+ p_basis*V_orbitals  =      -13365.810570

siesta: Electric dipole (a.u.)  =    0.000000    0.000000    0.000000
siesta: Electric dipole (Debye) =    0.000000    0.000000    0.000000

* Maximum dynamic memory allocated : Node    0 =   194 MB
* Maximum dynamic memory allocated : Node    1 =    69 MB
* Maximum dynamic memory allocated : Node    2 =    73 MB
* Maximum dynamic memory allocated : Node    3 =   185 MB
* Maximum dynamic memory allocated : Node    4 =   186 MB
* Maximum dynamic memory allocated : Node    5 =    69 MB
* Maximum dynamic memory allocated : Node    6 =    71 MB
* Maximum dynamic memory allocated : Node    7 =   171 MB

* Maximum memory occured during matrixMtoO                    

timer: CPU execution times:
timer:  Routine       Calls   Time/call    Tot.time        %
timer:  siesta            1  142451.796  142451.796   100.00
timer:  Setup             1       3.874       3.874     0.00
timer:  bands             3     269.933     809.800     0.57
timer:  writewave         1       0.039       0.039     0.00
timer:  KSV_init          1       0.008       0.008     0.00
timer:  IterMD            1  141632.414  141632.414    99.42
timer:  hsparse           1       0.234       0.234     0.00
timer:  overlap           1       7.690       7.690     0.01
timer:  IterSCF          35    4042.184  141476.424    99.32
timer:  kinefsm           2       3.949       7.898     0.01
timer:  nlefsm            2      18.312      36.625     0.03
timer:  DHSCF            36      79.982    2879.354     2.02
timer:  DHSCF1            1       0.761       0.761     0.00
timer:  DHSCF2            1      32.348      32.348     0.02
timer:  REORD           290       0.010       2.917     0.00
timer:  POISON           37       2.245      83.083     0.06
timer:  DHSCF3           36      78.222    2815.992     1.98
timer:  rhoofd           36      15.650     563.384     0.40
timer:  cellXC           36       3.501     126.019     0.09
timer:  vmat             36      37.392    1346.129     0.94
timer:  MolMec            2       0.000       0.000     0.00
timer:  diagon           35    3960.456  138615.949    97.31
timer:  c-eigval       8206       6.694   54928.759    38.56
timer:  c-buildHS      8206       0.112     919.336     0.65
timer:  cdiag         16291       6.908  112540.551    79.00
timer:  cdiag1        16291       0.426    6936.448     4.87
timer:  cdiag2        16291       1.930   31444.120    22.07
timer:  cdiag3        16291       3.950   64347.810    45.17
timer:  cdiag4        16291       0.207    3368.577     2.36
timer:  c-eigvec       8085       7.298   59001.354    41.42
timer:  c-buildD       8085       3.148   25452.376    17.87
timer:  DHSCF4            1      28.340      28.340     0.02
timer:  dfscf             1      26.564      26.564     0.02
timer:  overfsm           1       0.393       0.393     0.00
timer:  optical           1       5.010       5.010     0.00
  

elaps: ELAPSED times:
elaps:  Routine       Calls   Time/call    Tot.time        %
elaps:  siesta            1   17825.755   17825.755   100.00
elaps:  Setup             1       0.501       0.501     0.00
elaps:  bands             3      33.794     101.383     0.57
elaps:  writewave         1       0.006       0.006     0.00
elaps:  KSV_init          1       0.001       0.001     0.00
elaps:  IterMD            1   17723.210   17723.210    99.42
elaps:  hsparse           1       0.028       0.028     0.00
elaps:  overlap           1       0.966       0.966     0.01
elaps:  IterSCF          35     505.823   17703.811    99.32
elaps:  kinefsm           2       0.501       1.002     0.01
elaps:  nlefsm            2       2.278       4.557     0.03
elaps:  DHSCF            36      10.108     363.871     2.04
elaps:  DHSCF1            1       0.098       0.098     0.00
elaps:  DHSCF2            1       4.045       4.045     0.02
elaps:  REORD           290       0.001       0.392     0.00
elaps:  POISON           37       0.281      10.379     0.06
elaps:  DHSCF3           36       9.786     352.298     1.98
elaps:  rhoofd           36       4.267     153.594     0.86
elaps:  cellXC           36       0.437      15.732     0.09
elaps:  vmat             36       4.678     168.397     0.94
elaps:  MolMec            2       0.000       0.000     0.00
elaps:  diagon           35     495.585   17345.490    97.31
elaps:  c-eigval       8206       0.838    6872.693    38.55
elaps:  c-buildHS      8206       0.015     125.587     0.70
elaps:  cdiag         16291       0.864   14077.806    78.97
elaps:  cdiag1        16291       0.053     857.475     4.81
elaps:  cdiag2        16291       0.242    3934.571    22.07
elaps:  cdiag3        16291       0.495    8062.332    45.23
elaps:  cdiag4        16291       0.026     428.916     2.41
elaps:  c-eigvec       8085       0.918    7418.228    41.62
elaps:  c-buildD       8085       0.390    3149.542    17.67
elaps:  DHSCF4            1       7.171       7.171     0.04
elaps:  dfscf             1       6.800       6.800     0.04
elaps:  overfsm           1       0.049       0.049     0.00
elaps:  optical           1       0.001       0.001     0.00
  
>> End of run:  20-APR-2016   3:43:00
