Siesta Version:                                        siesta-3.2-pl-3
Architecture  : x86_64-unknown-linux-gnu--unknown
Compiler flags: mpiifort -g -O2 -fPIC -xSSE4.1 -fp-model source -shared-intel 
PARALLEL version

* Running on    8 nodes in parallel
>> Start of run:  20-APR-2016  12:17:11

                           ***********************       
                           *  WELCOME TO SIESTA  *       
                           ***********************       

reinit: Reading from standard input
************************** Dump of input data file ****************************
#(1) General system descriptors
SystemName            GRP_doping    # Descriptive name of the system
SystemLabel           GRP_doping    # Short name for naming files
%include STRUCT.fdf
%include KPT.fdf
%include BASIS.fdf
#%include TS.fdf # for transiesta calculation
#(4) DFT, Grid, SCF
XC.functional         GGA           # LDA or GGA (default = LDA)
XC.authors            PBE           # CA (Ceperley-Aldr) = PZ
                                    #    (Perdew-Zunger) - LDA - Default
                                    # PW92 (Perdew-Wang-92) - LDA
                                    # PBE (Perdew-Burke-Ernzerhof) - GGA
MeshCutoff            200.000000    Ry      # Default: 50.0 Ry ~ 0.444 Bohr
                                    #         100.0 Ry ~ 0.314 Bohr
MaxSCFIterations      500           # Default: 50
DM.MixingWeight       0.05          # Default: 0.25
DM.NumberPulay        10            # Default: 0
DM.PulayOnFile        F             # SystemLabel.P1, SystemLabel.P2
DM.Tolerance          1.d-4         # Default: 1.d-4
DM.UseSaveDM          .true.        # because of the bug
SCFMustConverge       .true.
NeglNonOverlapInt     F             # Default: F
#(5) Eigenvalue problem: order-N or diagonalization
SolutionMethod        Diagon        # or Transiesta
ElectronicTemperature 300.0 K       # Default: 300.0 K
#(6) Molecular dynamics and relaxations
#MD.TypeOfRun          CG            # Type of dynamics:
#MD.VariableCell       F
#MD.NumCGsteps         0           # 0 for single-point / 100 for gopt
#MD.MaxCGDispl         0.2 Bohr      # Default: 0.2 Bohr
#MD.MaxForceTol        0.02 eV/Ang   # Default: 0.04 eV/Ang
#MD.MaxStressTol       1.0 GPa       # Default: 1.0 GPa
# Geometry Constraints
#%block GeometryConstraints
#	position from 1 to 44
#%endblock GeometryConstraints
BandLinesScale   pi/a
%block BandLines
 1   0.00000000  0.00000000  0.00000000
50   0.00000000  0.07809418  0.00000000
50   0.04509075  0.07809242  0.00000000
20   0.00000000  0.00000000  0.00000000
%endblock BandLines
************************** End of input data file *****************************

reinit: -----------------------------------------------------------------------
reinit: System Name: GRP_doping
reinit: -----------------------------------------------------------------------
reinit: System Label: GRP_doping                                                  
reinit: -----------------------------------------------------------------------

initatom: Reading input for the pseudopotentials and atomic orbitals ----------
 Species number:            1  Label: N Atomic number:           7
 Species number:            2  Label: C Atomic number:           6
Ground state valence configuration:   2s02  2p03
Reading pseudopotential information in formatted form from N.psf

Valence configuration for pseudopotential generation:
2s( 2.00) rc: 1.48
2p( 3.00) rc: 1.48
3d( 0.00) rc: 1.48
4f( 0.00) rc: 1.48
Ground state valence configuration:   2s02  2p02
Reading pseudopotential information in formatted form from C.psf

Valence configuration for pseudopotential generation:
2s( 2.00) rc: 1.54
2p( 2.00) rc: 1.54
3d( 0.00) rc: 1.54
4f( 0.00) rc: 1.54
For N, standard SIESTA heuristics set lmxkb to 3
 (one more than the basis l, including polarization orbitals).
Use PS.lmax or PS.KBprojectors blocks to override.
For C, standard SIESTA heuristics set lmxkb to 3
 (one more than the basis l, including polarization orbitals).
Use PS.lmax or PS.KBprojectors blocks to override.

<basis_specs>
===============================================================================
N                    Z=   7    Mass=  14.010        Charge= 0.17977+309
Lmxo=1 Lmxkb= 3    BasisType=split      Semic=F
L=0  Nsemic=0  Cnfigmx=2
          n=1  nzeta=2  polorb=0
            splnorm:   0.15000    
               vcte:    0.0000    
               rinn:    0.0000    
                rcs:    0.0000      0.0000    
            lambdas:    1.0000      1.0000    
L=1  Nsemic=0  Cnfigmx=2
          n=1  nzeta=2  polorb=1
            splnorm:   0.15000    
               vcte:    0.0000    
               rinn:    0.0000    
                rcs:    0.0000      0.0000    
            lambdas:    1.0000      1.0000    
-------------------------------------------------------------------------------
L=0  Nkbl=1  erefs: 0.17977+309
L=1  Nkbl=1  erefs: 0.17977+309
L=2  Nkbl=1  erefs: 0.17977+309
L=3  Nkbl=1  erefs: 0.17977+309
===============================================================================
</basis_specs>

atom: Called for N                     (Z =   7)

read_vps: Pseudopotential generation method:
read_vps: ATM3      Troullier-Martins                       
Total valence charge:    5.00000

read_vps: Pseudopotential includes a core correction:
read_vps: Pseudo-core for xc-correction

xc_check: Exchange-correlation functional:
xc_check: GGA Perdew, Burke & Ernzerhof 1996
V l=0 = -2*Zval/r beyond r=  1.4606
V l=1 = -2*Zval/r beyond r=  1.4606
V l=2 = -2*Zval/r beyond r=  1.4606
V l=3 = -2*Zval/r beyond r=  1.4606
All V_l potentials equal beyond r=  1.4606
This should be close to max(r_c) in ps generation
All pots = -2*Zval/r beyond r=  1.4606

VLOCAL1: 99.0% of the norm of Vloc inside     20.347 Ry
VLOCAL1: 99.9% of the norm of Vloc inside     46.372 Ry
atom: Maximum radius for 4*pi*r*r*local-pseudopot. charge    1.76189
atom: Maximum radius for r*vlocal+2*Zval:    1.53550
GHOST: No ghost state for L =  0
GHOST: No ghost state for L =  1
GHOST: No ghost state for L =  2
GHOST: No ghost state for L =  3

KBgen: Kleinman-Bylander projectors: 
   l= 0   rc=  1.634559   el= -1.363963   Ekb=  5.296955   kbcos=  0.335621
   l= 1   rc=  1.614250   el= -0.521451   Ekb= -5.259161   kbcos= -0.433408
   l= 2   rc=  1.718383   el=  0.001991   Ekb= -1.271464   kbcos= -0.007566
   l= 3   rc=  1.761893   el=  0.003093   Ekb= -0.494769   kbcos= -0.001015

KBgen: Total number of  Kleinman-Bylander projectors:   16
atom: -------------------------------------------------------------------------

atom: SANKEY-TYPE ORBITALS:
atom: Selected multiple-zeta basis: split     

SPLIT: Orbitals with angular momentum L= 0

SPLIT: Basis orbitals for state 2s

SPLIT: PAO cut-off radius determined from an
SPLIT: energy shift=  0.007350 Ry

   izeta = 1
                 lambda =    1.000000
                     rc =    4.071465
                 energy =   -1.356470
                kinetic =    1.176977
    potential(screened) =   -2.533447
       potential(ionic) =   -8.057990

   izeta = 2
                 rmatch =    2.905100
              splitnorm =    0.150000
                 energy =   -1.158343
                kinetic =    1.813009
    potential(screened) =   -2.971352
       potential(ionic) =   -8.901931

SPLIT: Orbitals with angular momentum L= 1

SPLIT: Basis orbitals for state 2p

SPLIT: PAO cut-off radius determined from an
SPLIT: energy shift=  0.007350 Ry

   izeta = 1
                 lambda =    1.000000
                     rc =    4.972977
                 energy =   -0.513884
                kinetic =    3.441732
    potential(screened) =   -3.955616
       potential(ionic) =   -9.287901

   izeta = 2
                 rmatch =    3.054066
              splitnorm =    0.150000
                 energy =   -0.318226
                kinetic =    5.125348
    potential(screened) =   -5.443573
       potential(ionic) =  -11.380999

POLgen: Perturbative polarization orbital with L=  2

POLgen: Polarization orbital for state 2p

   izeta = 1
                     rc =    4.972977
                 energy =    1.607437
                kinetic =    3.268125
    potential(screened) =   -1.660688
       potential(ionic) =   -5.973652
atom: Total number of Sankey-type orbitals: 13

atm_pop: Valence configuration (for local Pseudopot. screening):
 2s( 2.00)                                                            
 2p( 3.00)                                                            
Vna: chval, zval:    5.00000   5.00000

Vna:  Cut-off radius for the neutral-atom potential:   4.972977
comcore: Pseudo-core radius Rcore=  1.554824

atom: _________________________________________________________________________

<basis_specs>
===============================================================================
C                    Z=   6    Mass=  12.010        Charge= 0.17977+309
Lmxo=1 Lmxkb= 3    BasisType=split      Semic=F
L=0  Nsemic=0  Cnfigmx=2
          n=1  nzeta=2  polorb=0
            splnorm:   0.15000    
               vcte:    0.0000    
               rinn:    0.0000    
                rcs:    0.0000      0.0000    
            lambdas:    1.0000      1.0000    
L=1  Nsemic=0  Cnfigmx=2
          n=1  nzeta=2  polorb=1
            splnorm:   0.15000    
               vcte:    0.0000    
               rinn:    0.0000    
                rcs:    0.0000      0.0000    
            lambdas:    1.0000      1.0000    
-------------------------------------------------------------------------------
L=0  Nkbl=1  erefs: 0.17977+309
L=1  Nkbl=1  erefs: 0.17977+309
L=2  Nkbl=1  erefs: 0.17977+309
L=3  Nkbl=1  erefs: 0.17977+309
===============================================================================
</basis_specs>

atom: Called for C                     (Z =   6)

read_vps: Pseudopotential generation method:
read_vps: ATM3      Troullier-Martins                       
Total valence charge:    4.00000

read_vps: Pseudopotential includes a core correction:
read_vps: Pseudo-core for xc-correction

xc_check: Exchange-correlation functional:
xc_check: GGA Perdew, Burke & Ernzerhof 1996
V l=0 = -2*Zval/r beyond r=  1.5227
V l=1 = -2*Zval/r beyond r=  1.5227
V l=2 = -2*Zval/r beyond r=  1.5227
V l=3 = -2*Zval/r beyond r=  1.5038
All V_l potentials equal beyond r=  1.5227
This should be close to max(r_c) in ps generation
All pots = -2*Zval/r beyond r=  1.5227

VLOCAL1: 99.0% of the norm of Vloc inside     18.722 Ry
VLOCAL1: 99.9% of the norm of Vloc inside     42.668 Ry
atom: Maximum radius for 4*pi*r*r*local-pseudopot. charge    1.83678
atom: Maximum radius for r*vlocal+2*Zval:    1.58088
GHOST: No ghost state for L =  0
GHOST: No ghost state for L =  1
GHOST: No ghost state for L =  2
GHOST: No ghost state for L =  3

KBgen: Kleinman-Bylander projectors: 
   l= 0   rc=  1.704034   el= -1.009801   Ekb=  5.335044   kbcos=  0.316824
   l= 1   rc=  1.704034   el= -0.388707   Ekb= -3.785862   kbcos= -0.366464
   l= 2   rc=  1.791422   el=  0.001971   Ekb= -0.970471   kbcos= -0.009212
   l= 3   rc=  1.859892   el=  0.003065   Ekb= -0.399525   kbcos= -0.001223

KBgen: Total number of  Kleinman-Bylander projectors:   16
atom: -------------------------------------------------------------------------

atom: SANKEY-TYPE ORBITALS:
atom: Selected multiple-zeta basis: split     

SPLIT: Orbitals with angular momentum L= 0

SPLIT: Basis orbitals for state 2s

SPLIT: PAO cut-off radius determined from an
SPLIT: energy shift=  0.007350 Ry

   izeta = 1
                 lambda =    1.000000
                     rc =    4.632753
                 energy =   -1.002270
                kinetic =    0.855760
    potential(screened) =   -1.858031
       potential(ionic) =   -5.417575

   izeta = 2
                 rmatch =    3.431921
              splitnorm =    0.150000
                 energy =   -0.867111
                kinetic =    1.300804
    potential(screened) =   -2.167915
       potential(ionic) =   -5.962684

SPLIT: Orbitals with angular momentum L= 1

SPLIT: Basis orbitals for state 2p

SPLIT: PAO cut-off radius determined from an
SPLIT: energy shift=  0.007350 Ry

   izeta = 1
                 lambda =    1.000000
                     rc =    5.658549
                 energy =   -0.381140
                kinetic =    2.399701
    potential(screened) =   -2.780841
       potential(ionic) =   -6.206085

   izeta = 2
                 rmatch =    3.653288
              splitnorm =    0.150000
                 energy =   -0.249149
                kinetic =    3.542762
    potential(screened) =   -3.791911
       potential(ionic) =   -7.581078

POLgen: Perturbative polarization orbital with L=  2

POLgen: Polarization orbital for state 2p

   izeta = 1
                     rc =    5.658549
                 energy =    1.109913
                kinetic =    2.304789
    potential(screened) =   -1.194876
       potential(ionic) =   -4.013592
atom: Total number of Sankey-type orbitals: 13

atm_pop: Valence configuration (for local Pseudopot. screening):
 2s( 2.00)                                                            
 2p( 2.00)                                                            
Vna: chval, zval:    4.00000   4.00000

Vna:  Cut-off radius for the neutral-atom potential:   5.658549
comcore: Pseudo-core radius Rcore=  1.791422

atom: _________________________________________________________________________

prinput: Basis input ----------------------------------------------------------

PAO.BasisType split     

%block ChemicalSpeciesLabel
    1    7 N                       # Species index, atomic number, species label
    2    6 C                       # Species index, atomic number, species label
%endblock ChemicalSpeciesLabel

%block PAO.Basis                 # Define Basis set
N                     2                    # Species label, number of l-shells
 n=2   0   2                         # n, l, Nzeta 
   4.071      2.905   
   1.000      1.000   
 n=2   1   2 P   1                   # n, l, Nzeta, Polarization, NzetaPol
   4.973      3.054   
   1.000      1.000   
C                     2                    # Species label, number of l-shells
 n=2   0   2                         # n, l, Nzeta 
   4.633      3.432   
   1.000      1.000   
 n=2   1   2 P   1                   # n, l, Nzeta, Polarization, NzetaPol
   5.659      3.653   
   1.000      1.000   
%endblock PAO.Basis

prinput: ----------------------------------------------------------------------

coor:   Atomic-coordinates input format  =     Fractional

siesta: Atomic coordinates (Bohr) and species
siesta:     -0.02582   2.59549   0.00000  1        1
siesta:     -0.02582   5.28395   0.00000  1        2
siesta:      2.30256   6.62836   0.00000  1        3
siesta:      2.30256   9.31683   0.00000  1        4
siesta:     -2.35420   6.62836   0.00000  1        5
siesta:     -2.35420   9.31683   0.00000  1        6
siesta:     -0.02582  10.66124   0.00000  1        7
siesta:     -0.02582  13.34970   0.00000  1        8
siesta:     -2.35420  14.69411   0.00000  1        9
siesta:     -2.35420  17.38257   0.00000  1       10
siesta:     -0.02582  18.72698   0.00000  1       11
siesta:     -0.02582  21.41544   0.00000  1       12
siesta:     -4.68258  18.72698   0.00000  1       13
siesta:     -4.68258  21.41544   0.00000  1       14
siesta:     -2.35420  22.75985   0.00000  1       15
siesta:     -2.35420  25.44831   0.00000  1       16
siesta:     -7.01096  22.75985   0.00000  1       17
siesta:     -7.01096  25.44831   0.00000  1       18
siesta:    -11.66772  22.75985   0.00000  1       19
siesta:    -11.66772  25.44831   0.00000  1       20
siesta:     -9.33934  26.79272   0.00000  1       21
siesta:     -9.33934  29.48119   0.00000  1       22
siesta:     -4.68258  26.79272   0.00000  1       23
siesta:     -4.68258  29.48119   0.00000  1       24
siesta:     -7.01096  30.82560   0.00000  1       25
siesta:     -7.01096  33.51406   0.00000  1       26
siesta:     -2.35420  38.89134   0.00000  2       27
siesta:     -2.35420  41.57980   0.00000  2       28
siesta:      2.30256  38.89134   0.00000  2       29
siesta:      2.30256  41.57980   0.00000  2       30
siesta:      4.63094  34.85847   0.00000  2       31
siesta:      4.63094  37.54693   0.00000  2       32
siesta:      6.95932  30.82560   0.00000  2       33
siesta:      6.95932  33.51406   0.00000  2       34
siesta:      9.28770  26.79272   0.00000  2       35
siesta:      9.28770  29.48119   0.00000  2       36
siesta:     -4.68258  34.85847   0.00000  2       37
siesta:     -4.68258  37.54693   0.00000  2       38
siesta:      4.63094  10.66124   0.00000  2       39
siesta:      4.63094  13.34970   0.00000  2       40
siesta:      6.95932  14.69411   0.00000  2       41
siesta:      6.95932  17.38257   0.00000  2       42
siesta:      9.28770  18.72698   0.00000  2       43
siesta:      9.28770  21.41544   0.00000  2       44
siesta:     11.61608  22.75985   0.00000  2       45
siesta:     11.61608  25.44831   0.00000  2       46
siesta:      2.30256  14.69411   0.00000  2       47
siesta:      2.30256  17.38257   0.00000  2       48
siesta:      4.63094  18.72698   0.00000  2       49
siesta:      4.63094  21.41544   0.00000  2       50
siesta:      6.95932  22.75985   0.00000  2       51
siesta:      6.95932  25.44831   0.00000  2       52
siesta:     -4.68258  10.66124   0.00000  2       53
siesta:     -4.68258  13.34970   0.00000  2       54
siesta:      2.30256  22.75985   0.00000  2       55
siesta:      2.30256  25.44831   0.00000  2       56
siesta:     -7.01096  14.69411   0.00000  2       57
siesta:     -7.01096  17.38257   0.00000  2       58
siesta:     -9.33934  18.72698   0.00000  2       59
siesta:     -9.33934  21.41544   0.00000  2       60
siesta:      4.63094  26.79272   0.00000  2       61
siesta:      4.63094  29.48119   0.00000  2       62
siesta:     -0.02582  26.79272   0.00000  2       63
siesta:     -0.02582  29.48119   0.00000  2       64
siesta:      2.30256  30.82560   0.00000  2       65
siesta:      2.30256  33.51406   0.00000  2       66
siesta:     -2.35420  30.82560   0.00000  2       67
siesta:     -2.35420  33.51406   0.00000  2       68
siesta:     -0.02582  34.85847   0.00000  2       69
siesta:     -0.02582  37.54693   0.00000  2       70
siesta:     -0.02582  42.92421   0.00000  2       71
siesta:     -0.02582  45.61267   0.00000  2       72

siesta: System type = slab      

initatomlists: Number of atoms, orbitals, and projectors:     72   936  1152

siesta: ******************** Simulation parameters ****************************
siesta:
siesta: The following are some of the parameters of the simulation.
siesta: A complete list of the parameters used, including default values,
siesta: can be found in file out.fdf
siesta:
redata: Non-Collinear-spin run           =     F
redata: SpinPolarized (Up/Down) run      =     F
redata: Number of spin components        =     1
redata: Long output                      =     F
redata: Number of Atomic Species         =        2
redata: Charge density info will appear in .RHO file
redata: Write Mulliken Pop.              =     NO
redata: Mesh Cutoff                      =   200.0000  Ry
redata: Net charge of the system         =     0.0000 |e|
redata: Max. number of SCF Iter          =      500
redata: SCF convergence failure will abort job
redata: Performing Pulay mixing using    =    10 iterations
redata: Mix DM in first SCF step ?       =     F
redata: Write Pulay info on disk?        =     F
redata: Discard 1st Pulay DM after  kick =     F
redata: New DM Mixing Weight             =     0.0500
redata: New DM Occupancy tolerance       = 0.000000000001
redata: No kicks to SCF
redata: DM Mixing Weight for Kicks       =     0.5000
redata: DM Tolerance for SCF             =     0.000100
redata: Require Energy convergence for SCF =     F
redata: DM Energy tolerance for SCF      =     0.000100 eV
redata: Require Harris convergence for SCF =     F
redata: DM Harris energy tolerance for SCF =     0.000100 eV
redata: Using Saved Data (generic)   =     F
redata: Use continuation files for DM    =     T
redata: Neglect nonoverlap interactions  =     F
redata: Method of Calculation            =     Diagonalization
redata: Divide and Conquer               =     T
redata: Electronic Temperature           =     0.0019  Ry
redata: Fix the spin of the system       =     F
redata: Dynamics option                  =     Verlet MD run
redata: Initial MD time step             =        1
redata:   Final MD time step             =        1
redata: Length of MD time step           =     1.0000  fs
redata: Initial Temperature of MD run    =     0.0000  K
redata: Perform a MD quench              =     F
redata: ***********************************************************************
Total number of electrons:   314.000000
Total ionic charge:   314.000000

* ProcessorY, Blocksize:    2  24

k-point displ. along   1 input, could be:     0.50    0.00
k-point displ. along   2 input, could be:     0.50    0.00
 Kpoints in:          231 . Kpoints trimmed:          231

siesta: k-grid: Number of k-points =   231
siesta: k-grid: Cutoff (effective) =     5.000 Ang
siesta: k-grid: Supercell and displacements
siesta: k-grid:   21   0   0      0.500
siesta: k-grid:    0  21   0      0.500
siesta: k-grid:    0   0   1      0.000
Naive supercell factors:     2    2    2

superc: Internal auxiliary supercell:     2 x     2 x     2  =       8
superc: Number of atoms, orbitals, and projectors:    576   7488   9216

* Maximum dynamic memory allocated =     4 MB

siesta:                 ==============================
                            Begin MD step =      1
                        ==============================

superc: Internal auxiliary supercell:     2 x     2 x     2  =       8
superc: Number of atoms, orbitals, and projectors:    576   7488   9216

outcell: Unit cell vectors (Ang):
       12.804619    7.392750    0.000000
        0.000000   14.785500    0.000000
        0.000000    0.000000   10.000000

outcell: Cell vector modules (Ang)   :   14.785500   14.785500   10.000000
outcell: Cell angles (23,13,12) (deg):     90.0000     90.0000     60.0000
outcell: Cell volume (Ang**3)        :   1893.2269
New_DM. Step:     1
Initializing Density Matrix...

InitMesh: MESH =   120 x   120 x    90 =     1296000
InitMesh: Mesh cutoff (required, used) =   200.000   223.865 Ry

* Maximum dynamic memory allocated =   177 MB

stepf: Fermi-Dirac step function

siesta: Program's energy decomposition (eV):
siesta: Ebs     =     -6414.594149
siesta: Eions   =     22582.429020
siesta: Ena     =      4997.288860
siesta: Ekin    =      8560.167659
siesta: Enl     =      -127.574038
siesta: DEna    =        -0.000015
siesta: DUscf   =         0.000000
siesta: DUext   =         0.000000
siesta: Exc     =     -4828.703289
siesta: eta*DQ  =         0.000000
siesta: Emadel  =         0.000000
siesta: Emeta   =         0.000000
siesta: Emolmec =         0.000000
siesta: Ekinion =         0.000000
siesta: Eharris =    -13582.590974
siesta: Etot    =    -13981.249843
siesta: FreeEng =    -13981.249843

siesta: iscf   Eharris(eV)      E_KS(eV)   FreeEng(eV)   dDmax  Ef(eV)
siesta:    1   -13582.5910   -13981.2498   -13981.2498  6.1497 -6.3631
timer: Routine,Calls,Time,% = IterSCF        1    4015.818  99.72
elaps: Routine,Calls,Wall,% = IterSCF        1     502.543  99.72
siesta:    2   -19069.2237   -12869.6958   -12869.7014 18.4476 -4.5634
siesta:    3   -13482.8625   -13830.0167   -13830.0708  3.2651 -5.2735
siesta:    4   -13449.7720   -13634.6184   -13634.6748  1.2545 -4.3349
siesta:    5   -13421.2190   -13519.0883   -13519.1436  1.0717 -3.9542
siesta:    6   -13418.2138   -13501.0964   -13501.1212  1.0077 -3.9027
siesta:    7   -13413.3557   -13470.2975   -13470.3326  0.7991 -3.8427
siesta:    8   -13412.1368   -13448.2426   -13448.2852  0.6304 -3.9282
siesta:    9   -13412.4199   -13426.3104   -13426.3693  0.4340 -3.8880
siesta:   10   -13411.6471   -13418.6212   -13418.6806  0.4261 -3.8697
siesta:   11   -13411.6886   -13403.3667   -13403.4205  0.3802 -3.7872
siesta:   12   -13411.3698   -13398.1621   -13398.2211  0.2805 -3.8084
siesta:   13   -13411.2333   -13394.8935   -13394.9411  0.6198 -3.7682
siesta:   14   -13410.9134   -13395.4219   -13395.4689  0.1767 -3.8534
siesta:   15   -13410.6995   -13396.8669   -13396.9183  0.1309 -3.8495
siesta:   16   -13410.6438   -13397.9999   -13398.0719  0.0676 -3.8602
siesta:   17   -13410.6145   -13400.1476   -13400.2174  0.1015 -3.8541
siesta:   18   -13410.6029   -13404.4910   -13404.5626  0.0801 -3.8711
siesta:   19   -13410.5923   -13405.9548   -13406.0237  0.0228 -3.8663
siesta:   20   -13410.5846   -13408.1657   -13408.2392  0.0130 -3.8644
siesta:   21   -13410.5823   -13408.8749   -13408.9479  0.0116 -3.8633
siesta:   22   -13410.5809   -13409.5299   -13409.6027  0.0078 -3.8607
siesta:   23   -13410.5799   -13409.9494   -13410.0222  0.0119 -3.8580
siesta:   24   -13410.5800   -13410.4339   -13410.5072  0.0034 -3.8577
siesta:   25   -13410.5798   -13410.5346   -13410.6074  0.0024 -3.8576
siesta:   26   -13410.5799   -13410.5789   -13410.6518  0.0035 -3.8577
siesta:   27   -13410.5796   -13410.5562   -13410.6289  0.0013 -3.8573
siesta:   28   -13410.5796   -13410.5884   -13410.6612  0.0009 -3.8574
siesta:   29   -13410.5796   -13410.6124   -13410.6852  0.0009 -3.8575
siesta:   30   -13410.5796   -13410.6175   -13410.6903  0.0008 -3.8575
siesta:   31   -13410.5796   -13410.5694   -13410.6422  0.0009 -3.8576
siesta:   32   -13410.5796   -13410.5754   -13410.6482  0.0004 -3.8577
siesta:   33   -13410.5796   -13410.5902   -13410.6629  0.0003 -3.8577
siesta:   34   -13410.5796   -13410.5925   -13410.6653  0.0002 -3.8578
siesta:   35   -13410.5796   -13410.5831   -13410.6559  0.0001 -3.8578

siesta: E_KS(eV) =           -13410.5812

siesta: E_KS - E_eggbox =    -13410.5812

siesta: Atomic forces (eV/Ang):
----------------------------------------
   Tot   -0.053106   -0.152651    0.000000
----------------------------------------
   Max  688.422105
   Res  184.089902    sqrt( Sum f_i^2 / 3N )
----------------------------------------
   Max  688.422105    constrained

Stress-tensor-Voigt (kbar):     -615.53    -3351.31       -0.03        1.91        0.00        0.00
(Free)E + p*V (eV/cell)   -11848.1729
Target enthalpy (eV/cell)   -13410.6540

siesta: Stress tensor (static) (eV/Ang**3):
        -0.384180    0.001191    0.000000
         0.001191   -2.091704    0.000000
         0.000000    0.000000   -0.000018

siesta: Pressure (static):       1322.29143118  kBar

siesta: Stress tensor (total) (eV/Ang**3):
        -0.384180    0.001191    0.000000
         0.001191   -2.091704    0.000000
         0.000000    0.000000   -0.000018

siesta: Pressure (total):       1322.29143118  kBar

siesta: Temp_ion =       0.000 K

* Maximum dynamic memory allocated =   193 MB
Computing bands...

siesta: Program's energy decomposition (eV):
siesta: Ebs     =     -5176.803912
siesta: Eions   =     22582.429020
siesta: Ena     =      4997.288860
siesta: Ekin    =     11769.822097
siesta: Enl     =     -1876.580285
siesta: DEna    =      -824.579063
siesta: DUscf   =       116.700831
siesta: DUext   =         0.000000
siesta: Exc     =     -5010.804607
siesta: eta*DQ  =         0.000000
siesta: Emadel  =         0.000000
siesta: Emeta   =         0.000000
siesta: Emolmec =         0.000000
siesta: Ekinion =         0.000000
siesta: Eharris =    -13410.579629
siesta: Etot    =    -13410.581187
siesta: FreeEng =    -13410.653972

siesta: Final energy (eV):
siesta:  Band Struct. =   -5176.803912
siesta:       Kinetic =   11769.822097
siesta:       Hartree =   37938.472799
siesta:    Ext. field =       0.000000
siesta:   Exch.-corr. =   -5010.804607
siesta:  Ion-electron =  -87117.037557
siesta:       Ion-ion =   29008.966081
siesta:       Ekinion =       0.000000
siesta:         Total =  -13410.581187

siesta: Atomic forces (eV/Ang):
siesta:      1    0.276141  647.218730    0.000000
siesta:      2   -2.206936 -109.300876    0.000000
siesta:      3   22.702289  658.100981    0.000000
siesta:      4    3.017668 -105.577339    0.000000
siesta:      5  -27.833203  658.013018    0.000000
siesta:      6   -2.776893 -107.251994    0.000000
siesta:      7   -1.080933  665.741227    0.000000
siesta:      8    4.172677 -107.531477    0.000000
siesta:      9   -6.800680  675.935658    0.000000
siesta:     10  -36.464527  -12.773430    0.000000
siesta:     11   24.528677  680.140581    0.000000
siesta:     12    0.934468   -4.744996    0.000000
siesta:     13   -1.458564    1.828051    0.000000
siesta:     14    0.216134    1.899920    0.000000
siesta:     15   -2.467968    1.107143    0.000000
siesta:     16   -1.671312    0.452992    0.000000
siesta:     17    0.479845    0.416663    0.000000
siesta:     18    1.686215   -0.082994    0.000000
siesta:     19    2.565649    2.565865    0.000000
siesta:     20    0.980230   -1.706277    0.000000
siesta:     21   -0.157584    0.702173    0.000000
siesta:     22    0.229100   -0.273877    0.000000
siesta:     23   -0.817439   -0.401849    0.000000
siesta:     24    0.338374   -1.970447    0.000000
siesta:     25   -0.603136   -0.001873    0.000000
siesta:     26    2.403860   -2.530277    0.000000
siesta:     27   -1.759602  118.093632    0.000000
siesta:     28  -15.156651 -657.755117    0.000000
siesta:     29   -0.707480  121.528792    0.000000
siesta:     30   -2.954802 -548.149847    0.000000
siesta:     31   26.567031    3.580869    0.000000
siesta:     32   19.407298 -552.660313    0.000000
siesta:     33    1.896763    0.184767    0.000000
siesta:     34   -3.477229    1.638058    0.000000
siesta:     35    2.265524    2.691178    0.000000
siesta:     36   -1.608923   -0.363396    0.000000
siesta:     37  -24.923141    5.570463    0.000000
siesta:     38  -17.879497 -553.288967    0.000000
siesta:     39   31.751225  555.423006    0.000000
siesta:     40   27.997518   -4.255045    0.000000
siesta:     41   -3.369978   -1.944741    0.000000
siesta:     42    1.904363    0.016273    0.000000
siesta:     43   -1.555710    0.357022    0.000000
siesta:     44    1.774149   -2.587755    0.000000
siesta:     45   -0.004688    7.768639    0.000000
siesta:     46   -0.369670   -7.747079    0.000000
siesta:     47   25.623448  561.865888    0.000000
siesta:     48   25.925446   -9.872566    0.000000
siesta:     49   -1.123221    2.913689    0.000000
siesta:     50   -0.390567   -0.728308    0.000000
siesta:     51   -0.129332    1.073701    0.000000
siesta:     52   -0.329166   -0.901097    0.000000
siesta:     53  -30.308855  556.419560    0.000000
siesta:     54  -28.481324   -8.912837    0.000000
siesta:     55    0.796971    1.358528    0.000000
siesta:     56   -0.658598   -1.488099    0.000000
siesta:     57    2.404689    0.350272    0.000000
siesta:     58   -1.881520   -0.708539    0.000000
siesta:     59    0.477704    1.181540    0.000000
siesta:     60   -2.337034   -0.576894    0.000000
siesta:     61    0.649572    0.134266    0.000000
siesta:     62   -1.228909   -3.564618    0.000000
siesta:     63   -0.403617    0.945192    0.000000
siesta:     64    1.015703 -688.422105    0.000000
siesta:     65   24.357230    3.737863    0.000000
siesta:     66    1.163363 -684.164254    0.000000
siesta:     67  -24.446297    6.051543    0.000000
siesta:     68    2.669312 -686.163864    0.000000
siesta:     69    0.892787  115.742809    0.000000
siesta:     70   -0.109229 -674.808637    0.000000
siesta:     71    0.442769  120.815810    0.000000
siesta:     72  -14.633085 -640.507225    0.000000
siesta: ----------------------------------------
siesta:    Tot   -0.053106   -0.152651    0.000000

siesta: Stress tensor (static) (eV/Ang**3):
siesta:    -0.384180    0.001191    0.000000
siesta:     0.001191   -2.091704    0.000000
siesta:     0.000000    0.000000   -0.000018

siesta: Cell volume =       1893.226884 Ang**3

siesta: Pressure (static):
siesta:                Solid            Molecule  Units
siesta:           0.00898858          0.14729437  Ry/Bohr**3
siesta:           0.82530048         13.52406830  eV/Ang**3
siesta:        1322.29143118      21668.18043694  kBar
(Free)E+ p_basis*V_orbitals  =      -13383.633408
(Free)Eharris+ p_basis*V_orbitals  =      -13383.629940

siesta: Electric dipole (a.u.)  =    0.000000    0.000000    0.000000
siesta: Electric dipole (Debye) =    0.000000    0.000000    0.000000

* Maximum dynamic memory allocated : Node    0 =   193 MB
* Maximum dynamic memory allocated : Node    1 =    70 MB
* Maximum dynamic memory allocated : Node    2 =    71 MB
* Maximum dynamic memory allocated : Node    3 =   183 MB
* Maximum dynamic memory allocated : Node    4 =   185 MB
* Maximum dynamic memory allocated : Node    5 =    71 MB
* Maximum dynamic memory allocated : Node    6 =    72 MB
* Maximum dynamic memory allocated : Node    7 =   170 MB

* Maximum memory occured during matrixMtoO                    

timer: CPU execution times:
timer:  Routine       Calls   Time/call    Tot.time        %
timer:  siesta            1  138723.787  138723.787   100.00
timer:  Setup             1       3.044       3.044     0.00
timer:  bands             3     268.546     805.638     0.58
timer:  writewave         1       0.017       0.017     0.00
timer:  KSV_init          1       0.002       0.002     0.00
timer:  IterMD            1  137909.241  137909.241    99.41
timer:  hsparse           1       0.231       0.231     0.00
timer:  overlap           1       7.687       7.687     0.01
timer:  IterSCF          35    3935.840  137754.413    99.30
timer:  kinefsm           2       3.949       7.898     0.01
timer:  nlefsm            2      18.247      36.494     0.03
timer:  DHSCF            36      79.629    2866.661     2.07
timer:  DHSCF1            1       0.762       0.762     0.00
timer:  DHSCF2            1      32.366      32.366     0.02
timer:  REORD           290       0.010       2.875     0.00
timer:  POISON           37       2.245      83.052     0.06
timer:  DHSCF3           36      77.868    2803.259     2.02
timer:  rhoofd           36      15.737     566.530     0.41
timer:  cellXC           36       3.451     124.223     0.09
timer:  vmat             36      37.190    1338.830     0.97
timer:  MolMec            2       0.000       0.000     0.00
timer:  diagon           35    3855.066  134927.317    97.26
timer:  c-eigval       8206       6.654   54602.653    39.36
timer:  c-buildHS      8206       0.110     898.776     0.65
timer:  cdiag         16291       6.786  110547.409    79.69
timer:  cdiag1        16291       0.424    6911.625     4.98
timer:  cdiag2        16291       1.900   30954.648    22.31
timer:  cdiag3        16291       3.943   64236.176    46.31
timer:  cdiag4        16291       0.204    3325.050     2.40
timer:  c-eigvec       8085       7.103   57431.415    41.40
timer:  c-buildD       8085       2.926   23654.199    17.05
timer:  DHSCF4            1      28.354      28.354     0.02
timer:  dfscf             1      26.596      26.596     0.02
timer:  overfsm           1       0.393       0.393     0.00
timer:  optical           1       5.115       5.115     0.00
  

elaps: ELAPSED times:
elaps:  Routine       Calls   Time/call    Tot.time        %
elaps:  siesta            1   17358.842   17358.842   100.00
elaps:  Setup             1       0.381       0.381     0.00
elaps:  bands             3      33.619     100.858     0.58
elaps:  writewave         1       0.002       0.002     0.00
elaps:  KSV_init          1       0.000       0.000     0.00
elaps:  IterMD            1   17256.927   17256.927    99.41
elaps:  hsparse           1       0.028       0.028     0.00
elaps:  overlap           1       0.965       0.965     0.01
elaps:  IterSCF          35     492.502   17237.559    99.30
elaps:  kinefsm           2       0.498       0.996     0.01
elaps:  nlefsm            2       2.320       4.641     0.03
elaps:  DHSCF            36      10.065     362.330     2.09
elaps:  DHSCF1            1       0.099       0.099     0.00
elaps:  DHSCF2            1       4.046       4.046     0.02
elaps:  REORD           290       0.001       0.379     0.00
elaps:  POISON           37       0.281      10.395     0.06
elaps:  DHSCF3           36       9.742     350.712     2.02
elaps:  rhoofd           36       4.296     154.668     0.89
elaps:  cellXC           36       0.430      15.492     0.09
elaps:  vmat             36       4.652     167.482     0.96
elaps:  MolMec            2       0.000       0.000     0.00
elaps:  diagon           35     482.398   16883.915    97.26
elaps:  c-eigval       8206       0.833    6831.782    39.36
elaps:  c-buildHS      8206       0.015     122.519     0.71
elaps:  cdiag         16291       0.847   13791.837    79.45
elaps:  cdiag1        16291       0.053     860.687     4.96
elaps:  cdiag2        16291       0.238    3873.045    22.31
elaps:  cdiag3        16291       0.494    8048.380    46.36
elaps:  cdiag4        16291       0.025     414.823     2.39
elaps:  c-eigvec       8085       0.888    7180.768    41.37
elaps:  c-buildD       8085       0.367    2965.579    17.08
elaps:  DHSCF4            1       7.213       7.213     0.04
elaps:  dfscf             1       6.844       6.844     0.04
elaps:  overfsm           1       0.048       0.048     0.00
elaps:  optical           1       0.000       0.000     0.00
  
>> End of run:  20-APR-2016  17:06:30
