Siesta Version:                                        siesta-3.2-pl-3
Architecture  : x86_64-unknown-linux-gnu--unknown
Compiler flags: mpiifort -g -O2 -fPIC -xSSE4.1 -fp-model source -shared-intel 
PARALLEL version

* Running on   12 nodes in parallel
>> Start of run:   6-MAY-2016  22:01:27

                           ***********************       
                           *  WELCOME TO SIESTA  *       
                           ***********************       

reinit: Reading from standard input
************************** Dump of input data file ****************************
#(1) General system descriptors
SystemName            GRP_doping    # Descriptive name of the system
SystemLabel           GRP_doping    # Short name for naming files
%include STRUCT.fdf
%include KPT.fdf
%include BASIS.fdf
#%include TS.fdf # for transiesta calculation
#(4) DFT, Grid, SCF
XC.functional         GGA           # LDA or GGA (default = LDA)
XC.authors            PBE           # CA (Ceperley-Aldr) = PZ
                                    #    (Perdew-Zunger) - LDA - Default
                                    # PW92 (Perdew-Wang-92) - LDA
                                    # PBE (Perdew-Burke-Ernzerhof) - GGA
MeshCutoff            200.000000    Ry      # Default: 50.0 Ry ~ 0.444 Bohr
                                    #         100.0 Ry ~ 0.314 Bohr
MaxSCFIterations      500           # Default: 50
DM.MixingWeight       0.05          # Default: 0.25
DM.NumberPulay        10            # Default: 0
DM.PulayOnFile        F             # SystemLabel.P1, SystemLabel.P2
DM.Tolerance          1.d-4         # Default: 1.d-4
DM.UseSaveDM          .true.        # because of the bug
SCFMustConverge       .true.
NeglNonOverlapInt     F             # Default: F
#(5) Eigenvalue problem: order-N or diagonalization
SolutionMethod        Diagon        # or Transiesta
ElectronicTemperature 300.0 K       # Default: 300.0 K
#(6) Molecular dynamics and relaxations
#MD.TypeOfRun          CG            # Type of dynamics:
#MD.VariableCell       F
#MD.NumCGsteps         0           # 0 for single-point / 100 for gopt
#MD.MaxCGDispl         0.2 Bohr      # Default: 0.2 Bohr
#MD.MaxForceTol        0.02 eV/Ang   # Default: 0.04 eV/Ang
#MD.MaxStressTol       1.0 GPa       # Default: 1.0 GPa
# Geometry Constraints
#%block GeometryConstraints
#	position from 1 to 44
#%endblock GeometryConstraints
BandLinesScale   pi/a
%block BandLines
 1   0.00000000  0.00000000  0.00000000
50   0.00000000  0.07809418  0.00000000
50   0.04509075  0.07809242  0.00000000
20   0.00000000  0.00000000  0.00000000
%endblock BandLines
************************** End of input data file *****************************

reinit: -----------------------------------------------------------------------
reinit: System Name: GRP_doping
reinit: -----------------------------------------------------------------------
reinit: System Label: GRP_doping                                                  
reinit: -----------------------------------------------------------------------

initatom: Reading input for the pseudopotentials and atomic orbitals ----------
 Species number:            1  Label: N Atomic number:           7
 Species number:            2  Label: C Atomic number:           6
Ground state valence configuration:   2s02  2p03
Reading pseudopotential information in formatted form from N.psf

Valence configuration for pseudopotential generation:
2s( 2.00) rc: 1.48
2p( 3.00) rc: 1.48
3d( 0.00) rc: 1.48
4f( 0.00) rc: 1.48
Ground state valence configuration:   2s02  2p02
Reading pseudopotential information in formatted form from C.psf

Valence configuration for pseudopotential generation:
2s( 2.00) rc: 1.54
2p( 2.00) rc: 1.54
3d( 0.00) rc: 1.54
4f( 0.00) rc: 1.54
For N, standard SIESTA heuristics set lmxkb to 3
 (one more than the basis l, including polarization orbitals).
Use PS.lmax or PS.KBprojectors blocks to override.
For C, standard SIESTA heuristics set lmxkb to 3
 (one more than the basis l, including polarization orbitals).
Use PS.lmax or PS.KBprojectors blocks to override.

<basis_specs>
===============================================================================
N                    Z=   7    Mass=  14.010        Charge= 0.17977+309
Lmxo=1 Lmxkb= 3    BasisType=split      Semic=F
L=0  Nsemic=0  Cnfigmx=2
          n=1  nzeta=2  polorb=0
            splnorm:   0.15000    
               vcte:    0.0000    
               rinn:    0.0000    
                rcs:    0.0000      0.0000    
            lambdas:    1.0000      1.0000    
L=1  Nsemic=0  Cnfigmx=2
          n=1  nzeta=2  polorb=1
            splnorm:   0.15000    
               vcte:    0.0000    
               rinn:    0.0000    
                rcs:    0.0000      0.0000    
            lambdas:    1.0000      1.0000    
-------------------------------------------------------------------------------
L=0  Nkbl=1  erefs: 0.17977+309
L=1  Nkbl=1  erefs: 0.17977+309
L=2  Nkbl=1  erefs: 0.17977+309
L=3  Nkbl=1  erefs: 0.17977+309
===============================================================================
</basis_specs>

atom: Called for N                     (Z =   7)

read_vps: Pseudopotential generation method:
read_vps: ATM3      Troullier-Martins                       
Total valence charge:    5.00000

read_vps: Pseudopotential includes a core correction:
read_vps: Pseudo-core for xc-correction

xc_check: Exchange-correlation functional:
xc_check: GGA Perdew, Burke & Ernzerhof 1996
V l=0 = -2*Zval/r beyond r=  1.4606
V l=1 = -2*Zval/r beyond r=  1.4606
V l=2 = -2*Zval/r beyond r=  1.4606
V l=3 = -2*Zval/r beyond r=  1.4606
All V_l potentials equal beyond r=  1.4606
This should be close to max(r_c) in ps generation
All pots = -2*Zval/r beyond r=  1.4606

VLOCAL1: 99.0% of the norm of Vloc inside     20.347 Ry
VLOCAL1: 99.9% of the norm of Vloc inside     46.372 Ry
atom: Maximum radius for 4*pi*r*r*local-pseudopot. charge    1.76189
atom: Maximum radius for r*vlocal+2*Zval:    1.53550
GHOST: No ghost state for L =  0
GHOST: No ghost state for L =  1
GHOST: No ghost state for L =  2
GHOST: No ghost state for L =  3

KBgen: Kleinman-Bylander projectors: 
   l= 0   rc=  1.634559   el= -1.363963   Ekb=  5.296955   kbcos=  0.335621
   l= 1   rc=  1.614250   el= -0.521451   Ekb= -5.259161   kbcos= -0.433408
   l= 2   rc=  1.718383   el=  0.001991   Ekb= -1.271464   kbcos= -0.007566
   l= 3   rc=  1.761893   el=  0.003093   Ekb= -0.494769   kbcos= -0.001015

KBgen: Total number of  Kleinman-Bylander projectors:   16
atom: -------------------------------------------------------------------------

atom: SANKEY-TYPE ORBITALS:
atom: Selected multiple-zeta basis: split     

SPLIT: Orbitals with angular momentum L= 0

SPLIT: Basis orbitals for state 2s

SPLIT: PAO cut-off radius determined from an
SPLIT: energy shift=  0.007350 Ry

   izeta = 1
                 lambda =    1.000000
                     rc =    4.071465
                 energy =   -1.356470
                kinetic =    1.176977
    potential(screened) =   -2.533447
       potential(ionic) =   -8.057990

   izeta = 2
                 rmatch =    2.905100
              splitnorm =    0.150000
                 energy =   -1.158343
                kinetic =    1.813009
    potential(screened) =   -2.971352
       potential(ionic) =   -8.901931

SPLIT: Orbitals with angular momentum L= 1

SPLIT: Basis orbitals for state 2p

SPLIT: PAO cut-off radius determined from an
SPLIT: energy shift=  0.007350 Ry

   izeta = 1
                 lambda =    1.000000
                     rc =    4.972977
                 energy =   -0.513884
                kinetic =    3.441732
    potential(screened) =   -3.955616
       potential(ionic) =   -9.287901

   izeta = 2
                 rmatch =    3.054066
              splitnorm =    0.150000
                 energy =   -0.318226
                kinetic =    5.125348
    potential(screened) =   -5.443573
       potential(ionic) =  -11.380999

POLgen: Perturbative polarization orbital with L=  2

POLgen: Polarization orbital for state 2p

   izeta = 1
                     rc =    4.972977
                 energy =    1.607437
                kinetic =    3.268125
    potential(screened) =   -1.660688
       potential(ionic) =   -5.973652
atom: Total number of Sankey-type orbitals: 13

atm_pop: Valence configuration (for local Pseudopot. screening):
 2s( 2.00)                                                            
 2p( 3.00)                                                            
Vna: chval, zval:    5.00000   5.00000

Vna:  Cut-off radius for the neutral-atom potential:   4.972977
comcore: Pseudo-core radius Rcore=  1.554824

atom: _________________________________________________________________________

<basis_specs>
===============================================================================
C                    Z=   6    Mass=  12.010        Charge= 0.17977+309
Lmxo=1 Lmxkb= 3    BasisType=split      Semic=F
L=0  Nsemic=0  Cnfigmx=2
          n=1  nzeta=2  polorb=0
            splnorm:   0.15000    
               vcte:    0.0000    
               rinn:    0.0000    
                rcs:    0.0000      0.0000    
            lambdas:    1.0000      1.0000    
L=1  Nsemic=0  Cnfigmx=2
          n=1  nzeta=2  polorb=1
            splnorm:   0.15000    
               vcte:    0.0000    
               rinn:    0.0000    
                rcs:    0.0000      0.0000    
            lambdas:    1.0000      1.0000    
-------------------------------------------------------------------------------
L=0  Nkbl=1  erefs: 0.17977+309
L=1  Nkbl=1  erefs: 0.17977+309
L=2  Nkbl=1  erefs: 0.17977+309
L=3  Nkbl=1  erefs: 0.17977+309
===============================================================================
</basis_specs>

atom: Called for C                     (Z =   6)

read_vps: Pseudopotential generation method:
read_vps: ATM3      Troullier-Martins                       
Total valence charge:    4.00000

read_vps: Pseudopotential includes a core correction:
read_vps: Pseudo-core for xc-correction

xc_check: Exchange-correlation functional:
xc_check: GGA Perdew, Burke & Ernzerhof 1996
V l=0 = -2*Zval/r beyond r=  1.5227
V l=1 = -2*Zval/r beyond r=  1.5227
V l=2 = -2*Zval/r beyond r=  1.5227
V l=3 = -2*Zval/r beyond r=  1.5038
All V_l potentials equal beyond r=  1.5227
This should be close to max(r_c) in ps generation
All pots = -2*Zval/r beyond r=  1.5227

VLOCAL1: 99.0% of the norm of Vloc inside     18.722 Ry
VLOCAL1: 99.9% of the norm of Vloc inside     42.668 Ry
atom: Maximum radius for 4*pi*r*r*local-pseudopot. charge    1.83678
atom: Maximum radius for r*vlocal+2*Zval:    1.58088
GHOST: No ghost state for L =  0
GHOST: No ghost state for L =  1
GHOST: No ghost state for L =  2
GHOST: No ghost state for L =  3

KBgen: Kleinman-Bylander projectors: 
   l= 0   rc=  1.704034   el= -1.009801   Ekb=  5.335044   kbcos=  0.316824
   l= 1   rc=  1.704034   el= -0.388707   Ekb= -3.785862   kbcos= -0.366464
   l= 2   rc=  1.791422   el=  0.001971   Ekb= -0.970471   kbcos= -0.009212
   l= 3   rc=  1.859892   el=  0.003065   Ekb= -0.399525   kbcos= -0.001223

KBgen: Total number of  Kleinman-Bylander projectors:   16
atom: -------------------------------------------------------------------------

atom: SANKEY-TYPE ORBITALS:
atom: Selected multiple-zeta basis: split     

SPLIT: Orbitals with angular momentum L= 0

SPLIT: Basis orbitals for state 2s

SPLIT: PAO cut-off radius determined from an
SPLIT: energy shift=  0.007350 Ry

   izeta = 1
                 lambda =    1.000000
                     rc =    4.632753
                 energy =   -1.002270
                kinetic =    0.855760
    potential(screened) =   -1.858031
       potential(ionic) =   -5.417575

   izeta = 2
                 rmatch =    3.431921
              splitnorm =    0.150000
                 energy =   -0.867111
                kinetic =    1.300804
    potential(screened) =   -2.167915
       potential(ionic) =   -5.962684

SPLIT: Orbitals with angular momentum L= 1

SPLIT: Basis orbitals for state 2p

SPLIT: PAO cut-off radius determined from an
SPLIT: energy shift=  0.007350 Ry

   izeta = 1
                 lambda =    1.000000
                     rc =    5.658549
                 energy =   -0.381140
                kinetic =    2.399701
    potential(screened) =   -2.780841
       potential(ionic) =   -6.206085

   izeta = 2
                 rmatch =    3.653288
              splitnorm =    0.150000
                 energy =   -0.249149
                kinetic =    3.542762
    potential(screened) =   -3.791911
       potential(ionic) =   -7.581078

POLgen: Perturbative polarization orbital with L=  2

POLgen: Polarization orbital for state 2p

   izeta = 1
                     rc =    5.658549
                 energy =    1.109913
                kinetic =    2.304789
    potential(screened) =   -1.194876
       potential(ionic) =   -4.013592
atom: Total number of Sankey-type orbitals: 13

atm_pop: Valence configuration (for local Pseudopot. screening):
 2s( 2.00)                                                            
 2p( 2.00)                                                            
Vna: chval, zval:    4.00000   4.00000

Vna:  Cut-off radius for the neutral-atom potential:   5.658549
comcore: Pseudo-core radius Rcore=  1.791422

atom: _________________________________________________________________________

prinput: Basis input ----------------------------------------------------------

PAO.BasisType split     

%block ChemicalSpeciesLabel
    1    7 N                       # Species index, atomic number, species label
    2    6 C                       # Species index, atomic number, species label
%endblock ChemicalSpeciesLabel

%block PAO.Basis                 # Define Basis set
N                     2                    # Species label, number of l-shells
 n=2   0   2                         # n, l, Nzeta 
   4.071      2.905   
   1.000      1.000   
 n=2   1   2 P   1                   # n, l, Nzeta, Polarization, NzetaPol
   4.973      3.054   
   1.000      1.000   
C                     2                    # Species label, number of l-shells
 n=2   0   2                         # n, l, Nzeta 
   4.633      3.432   
   1.000      1.000   
 n=2   1   2 P   1                   # n, l, Nzeta, Polarization, NzetaPol
   5.659      3.653   
   1.000      1.000   
%endblock PAO.Basis

prinput: ----------------------------------------------------------------------

coor:   Atomic-coordinates input format  =     Fractional

siesta: Atomic coordinates (Bohr) and species
siesta:     -0.02582   5.28395   0.00000  1        1
siesta:      9.28770  26.79272   0.00000  1        2
siesta:     -0.02582  18.72698   0.00000  1        3
siesta:      2.30256  25.44831   0.00000  1        4
siesta:    -11.66772  25.44831   0.00000  1        5
siesta:     -4.68258  26.79272   0.00000  1        6
siesta:     -0.02582  34.85847   0.00000  1        7
siesta:     -0.02582   2.59549   0.00000  2        8
siesta:     -2.35420  38.89134   0.00000  2        9
siesta:     -2.35420  41.57980   0.00000  2       10
siesta:      2.30256  38.89134   0.00000  2       11
siesta:      2.30256  41.57980   0.00000  2       12
siesta:      4.63094  34.85847   0.00000  2       13
siesta:      4.63094  37.54693   0.00000  2       14
siesta:      6.95932  30.82560   0.00000  2       15
siesta:      6.95932  33.51406   0.00000  2       16
siesta:      9.28770  29.48119   0.00000  2       17
siesta:     -4.68258  34.85847   0.00000  2       18
siesta:     -4.68258  37.54693   0.00000  2       19
siesta:      2.30256   6.62836   0.00000  2       20
siesta:      2.30256   9.31683   0.00000  2       21
siesta:      4.63094  10.66124   0.00000  2       22
siesta:      4.63094  13.34970   0.00000  2       23
siesta:      6.95932  14.69411   0.00000  2       24
siesta:      6.95932  17.38257   0.00000  2       25
siesta:      9.28770  18.72698   0.00000  2       26
siesta:      9.28770  21.41544   0.00000  2       27
siesta:     11.61608  22.75985   0.00000  2       28
siesta:     11.61608  25.44831   0.00000  2       29
siesta:     -2.35420   6.62836   0.00000  2       30
siesta:     -2.35420   9.31683   0.00000  2       31
siesta:     -0.02582  10.66124   0.00000  2       32
siesta:     -0.02582  13.34970   0.00000  2       33
siesta:      2.30256  14.69411   0.00000  2       34
siesta:      2.30256  17.38257   0.00000  2       35
siesta:      4.63094  18.72698   0.00000  2       36
siesta:      4.63094  21.41544   0.00000  2       37
siesta:      6.95932  22.75985   0.00000  2       38
siesta:      6.95932  25.44831   0.00000  2       39
siesta:     -4.68258  10.66124   0.00000  2       40
siesta:     -4.68258  13.34970   0.00000  2       41
siesta:     -2.35420  14.69411   0.00000  2       42
siesta:     -2.35420  17.38257   0.00000  2       43
siesta:     -0.02582  21.41544   0.00000  2       44
siesta:      2.30256  22.75985   0.00000  2       45
siesta:     -7.01096  14.69411   0.00000  2       46
siesta:     -7.01096  17.38257   0.00000  2       47
siesta:     -4.68258  18.72698   0.00000  2       48
siesta:     -4.68258  21.41544   0.00000  2       49
siesta:     -2.35420  22.75985   0.00000  2       50
siesta:     -2.35420  25.44831   0.00000  2       51
siesta:     -9.33934  18.72698   0.00000  2       52
siesta:     -9.33934  21.41544   0.00000  2       53
siesta:     -7.01096  22.75985   0.00000  2       54
siesta:     -7.01096  25.44831   0.00000  2       55
siesta:    -11.66772  22.75985   0.00000  2       56
siesta:     -9.33934  26.79272   0.00000  2       57
siesta:     -9.33934  29.48119   0.00000  2       58
siesta:      4.63094  26.79272   0.00000  2       59
siesta:      4.63094  29.48119   0.00000  2       60
siesta:     -0.02582  26.79272   0.00000  2       61
siesta:     -0.02582  29.48119   0.00000  2       62
siesta:     -4.68258  29.48119   0.00000  2       63
siesta:      2.30256  30.82560   0.00000  2       64
siesta:      2.30256  33.51406   0.00000  2       65
siesta:     -2.35420  30.82560   0.00000  2       66
siesta:     -2.35420  33.51406   0.00000  2       67
siesta:     -7.01096  30.82560   0.00000  2       68
siesta:     -7.01096  33.51406   0.00000  2       69
siesta:     -0.02582  37.54693   0.00000  2       70
siesta:     -0.02582  42.92421   0.00000  2       71
siesta:     -0.02582  45.61267   0.00000  2       72

siesta: System type = slab      

initatomlists: Number of atoms, orbitals, and projectors:     72   936  1152

siesta: ******************** Simulation parameters ****************************
siesta:
siesta: The following are some of the parameters of the simulation.
siesta: A complete list of the parameters used, including default values,
siesta: can be found in file out.fdf
siesta:
redata: Non-Collinear-spin run           =     F
redata: SpinPolarized (Up/Down) run      =     F
redata: Number of spin components        =     1
redata: Long output                      =     F
redata: Number of Atomic Species         =        2
redata: Charge density info will appear in .RHO file
redata: Write Mulliken Pop.              =     NO
redata: Mesh Cutoff                      =   200.0000  Ry
redata: Net charge of the system         =     0.0000 |e|
redata: Max. number of SCF Iter          =      500
redata: SCF convergence failure will abort job
redata: Performing Pulay mixing using    =    10 iterations
redata: Mix DM in first SCF step ?       =     F
redata: Write Pulay info on disk?        =     F
redata: Discard 1st Pulay DM after  kick =     F
redata: New DM Mixing Weight             =     0.0500
redata: New DM Occupancy tolerance       = 0.000000000001
redata: No kicks to SCF
redata: DM Mixing Weight for Kicks       =     0.5000
redata: DM Tolerance for SCF             =     0.000100
redata: Require Energy convergence for SCF =     F
redata: DM Energy tolerance for SCF      =     0.000100 eV
redata: Require Harris convergence for SCF =     F
redata: DM Harris energy tolerance for SCF =     0.000100 eV
redata: Using Saved Data (generic)   =     F
redata: Use continuation files for DM    =     T
redata: Neglect nonoverlap interactions  =     F
redata: Method of Calculation            =     Diagonalization
redata: Divide and Conquer               =     T
redata: Electronic Temperature           =     0.0019  Ry
redata: Fix the spin of the system       =     F
redata: Dynamics option                  =     Verlet MD run
redata: Initial MD time step             =        1
redata:   Final MD time step             =        1
redata: Length of MD time step           =     1.0000  fs
redata: Initial Temperature of MD run    =     0.0000  K
redata: Perform a MD quench              =     F
redata: ***********************************************************************
Total number of electrons:   295.000000
Total ionic charge:   295.000000

* ProcessorY, Blocksize:    3  24

k-point displ. along   1 input, could be:     0.50    0.00
k-point displ. along   2 input, could be:     0.50    0.00
 Kpoints in:          231 . Kpoints trimmed:          231

siesta: k-grid: Number of k-points =   231
siesta: k-grid: Cutoff (effective) =     5.000 Ang
siesta: k-grid: Supercell and displacements
siesta: k-grid:   21   0   0      0.500
siesta: k-grid:    0  21   0      0.500
siesta: k-grid:    0   0   1      0.000
Naive supercell factors:     2    2    2

superc: Internal auxiliary supercell:     2 x     2 x     2  =       8
superc: Number of atoms, orbitals, and projectors:    576   7488   9216

* Maximum dynamic memory allocated =     4 MB

siesta:                 ==============================
                            Begin MD step =      1
                        ==============================

superc: Internal auxiliary supercell:     2 x     2 x     2  =       8
superc: Number of atoms, orbitals, and projectors:    576   7488   9216

outcell: Unit cell vectors (Ang):
       12.804619    7.392750    0.000000
        0.000000   14.785500    0.000000
        0.000000    0.000000   10.000000

outcell: Cell vector modules (Ang)   :   14.785500   14.785500   10.000000
outcell: Cell angles (23,13,12) (deg):     90.0000     90.0000     60.0000
outcell: Cell volume (Ang**3)        :   1893.2269
New_DM. Step:     1
Initializing Density Matrix...

InitMesh: MESH =   120 x   120 x    90 =     1296000
InitMesh: Mesh cutoff (required, used) =   200.000   223.865 Ry

* Maximum dynamic memory allocated =   137 MB

stepf: Fermi-Dirac step function

siesta: Program's energy decomposition (eV):
siesta: Ebs     =     -6013.055506
siesta: Eions   =     19528.238980
siesta: Ena     =      4783.848494
siesta: Ekin    =      6965.634232
siesta: Enl     =       416.297151
siesta: DEna    =        -0.000015
siesta: DUscf   =         0.000000
siesta: DUext   =         0.000000
siesta: Exc     =     -4344.181078
siesta: eta*DQ  =         0.000000
siesta: Emadel  =         0.000000
siesta: Emeta   =         0.000000
siesta: Emolmec =         0.000000
siesta: Ekinion =         0.000000
siesta: Eharris =    -11357.986966
siesta: Etot    =    -11706.640197
siesta: FreeEng =    -11706.640197

siesta: iscf   Eharris(eV)      E_KS(eV)   FreeEng(eV)   dDmax  Ef(eV)
siesta:    1   -11357.9870   -11706.6402   -11706.6402  5.4599 -7.4445
timer: Routine,Calls,Time,% = IterSCF        1    3004.485  99.59
elaps: Routine,Calls,Wall,% = IterSCF        1     250.968  99.59
siesta:    2   -15338.2904   -10757.5157   -10757.5505  7.8834 -3.5882
siesta:    3   -11377.8408   -11432.5213   -11432.5611  1.5054 -3.6281
siesta:    4   -11277.4290   -11384.7974   -11384.8321  1.2658 -4.1084
siesta:    5   -11245.5456   -11336.6821   -11336.7408  1.0974 -4.3803
siesta:    6   -11229.8881   -11305.6908   -11305.7466  0.9532 -4.3842
siesta:    7   -11223.5243   -11292.5324   -11292.5593  0.8772 -4.3225
siesta:    8   -11215.4337   -11276.8423   -11276.8949  0.7213 -4.3282
siesta:    9   -11214.3562   -11269.0470   -11269.0796  0.8176 -4.1944
siesta:   10   -11212.2340   -11243.3374   -11243.3932  0.6019 -4.1536
siesta:   11   -11211.8152   -11232.6805   -11232.7452  0.3942 -4.1083
siesta:   12   -11211.4581   -11219.3702   -11219.4038  0.2837 -4.0681
siesta:   13   -11211.0555   -11212.6726   -11212.7026  0.3482 -4.0666
siesta:   14   -11210.5648   -11212.6463   -11212.6743  0.2337 -4.1840
siesta:   15   -11210.6313   -11209.3762   -11209.4172  0.1663 -4.2360
siesta:   16   -11210.5632   -11208.3768   -11208.4174  0.1042 -4.2493
siesta:   17   -11210.3322   -11207.2506   -11207.2924  0.0839 -4.2384
siesta:   18   -11210.2289   -11206.7281   -11206.7680  0.0669 -4.2322
siesta:   19   -11210.2176   -11207.0118   -11207.0503  0.0491 -4.2413
siesta:   20   -11210.1978   -11207.1199   -11207.1578  0.0390 -4.2459
siesta:   21   -11210.1711   -11207.3282   -11207.3681  0.0190 -4.2393
siesta:   22   -11210.1724   -11207.8574   -11207.8971  0.0158 -4.2410
siesta:   23   -11210.1680   -11208.8044   -11208.8457  0.0154 -4.2353
siesta:   24   -11210.1665   -11209.3889   -11209.4287  0.0128 -4.2363
siesta:   25   -11210.1659   -11209.7871   -11209.8271  0.0090 -4.2374
siesta:   26   -11210.1654   -11210.0094   -11210.0496  0.0035 -4.2354
siesta:   27   -11210.1652   -11210.0210   -11210.0612  0.0042 -4.2344
siesta:   28   -11210.1649   -11210.0378   -11210.0781  0.0038 -4.2345
siesta:   29   -11210.1648   -11210.0701   -11210.1106  0.0027 -4.2352
siesta:   30   -11210.1649   -11210.1305   -11210.1710  0.0015 -4.2356
siesta:   31   -11210.1649   -11210.1458   -11210.1862  0.0008 -4.2357
siesta:   32   -11210.1649   -11210.1611   -11210.2015  0.0006 -4.2358
siesta:   33   -11210.1649   -11210.1748   -11210.2152  0.0002 -4.2356
siesta:   34   -11210.1648   -11210.1746   -11210.2150  0.0002 -4.2356
siesta:   35   -11210.1648   -11210.1771   -11210.2175  0.0002 -4.2355
siesta:   36   -11210.1648   -11210.1758   -11210.2162  0.0001 -4.2354

siesta: E_KS(eV) =           -11210.1731

siesta: E_KS - E_eggbox =    -11210.1731

siesta: Atomic forces (eV/Ang):
----------------------------------------
   Tot   -0.178574    0.017471    0.000000
----------------------------------------
   Max  680.062978
   Res  165.331378    sqrt( Sum f_i^2 / 3N )
----------------------------------------
   Max  680.062978    constrained

Stress-tensor-Voigt (kbar):     -683.35    -2926.46       -0.12        1.83        0.00        0.00
(Free)E + p*V (eV/cell)    -9788.3237
Target enthalpy (eV/cell)   -11210.2136

siesta: Stress tensor (static) (eV/Ang**3):
        -0.426508    0.001143    0.000000
         0.001143   -1.826536    0.000000
         0.000000    0.000000   -0.000078

siesta: Pressure (static):       1203.31239293  kBar

siesta: Stress tensor (total) (eV/Ang**3):
        -0.426508    0.001143    0.000000
         0.001143   -1.826536    0.000000
         0.000000    0.000000   -0.000078

siesta: Pressure (total):       1203.31239293  kBar

siesta: Temp_ion =       0.000 K

* Maximum dynamic memory allocated =   148 MB
Computing bands...

siesta: Program's energy decomposition (eV):
siesta: Ebs     =     -4753.426580
siesta: Eions   =     19528.238980
siesta: Ena     =      4783.848494
siesta: Ekin    =      9969.156601
siesta: Enl     =     -1247.729934
siesta: DEna    =      -774.807036
siesta: DUscf   =       101.079463
siesta: DUext   =         0.000000
siesta: Exc     =     -4513.481754
siesta: eta*DQ  =         0.000000
siesta: Emadel  =         0.000000
siesta: Emeta   =         0.000000
siesta: Emolmec =         0.000000
siesta: Ekinion =         0.000000
siesta: Eharris =    -11210.164846
siesta: Etot    =    -11210.173146
siesta: FreeEng =    -11210.213555

siesta: Final energy (eV):
siesta:  Band Struct. =   -4753.426580
siesta:       Kinetic =    9969.156601
siesta:       Hartree =   32546.726124
siesta:    Ext. field =       0.000000
siesta:   Exch.-corr. =   -4513.481754
siesta:  Ion-electron =  -74693.180136
siesta:       Ion-ion =   25480.606019
siesta:       Ekinion =       0.000000
siesta:         Total =  -11210.173146

siesta: Atomic forces (eV/Ang):
siesta:      1   -0.136070 -125.428508    0.000000
siesta:      2    0.741905    1.423354    0.000000
siesta:      3    0.417165  680.062978    0.000000
siesta:      4    0.675091   -1.422782    0.000000
siesta:      5    0.802317   -5.175440    0.000000
siesta:      6   -0.073101   -0.099103    0.000000
siesta:      7   -0.032161  123.066208    0.000000
siesta:      8   -0.491042  547.154976    0.000000
siesta:      9    2.516546  127.412148    0.000000
siesta:     10  -17.764887 -549.511123    0.000000
siesta:     11   -2.282681  127.311760    0.000000
siesta:     12   17.501922 -549.730842    0.000000
siesta:     13   26.709298    6.557603    0.000000
siesta:     14   34.388082 -548.763567    0.000000
siesta:     15    1.582955   -0.447738    0.000000
siesta:     16   -2.490860    1.603744    0.000000
siesta:     17    0.351501   -0.787823    0.000000
siesta:     18  -26.893021    6.535481    0.000000
siesta:     19  -34.236865 -548.587953    0.000000
siesta:     20    6.601465  550.587906    0.000000
siesta:     21   -1.029417 -122.781305    0.000000
siesta:     22   35.040204  548.864128    0.000000
siesta:     23   26.274357   -6.132786    0.000000
siesta:     24   -2.856336   -2.066618    0.000000
siesta:     25    1.659374    0.024608    0.000000
siesta:     26   -1.121854   -0.176881    0.000000
siesta:     27    2.045481   -2.037681    0.000000
siesta:     28   -0.243268    6.912051    0.000000
siesta:     29   -1.234930   -5.171307    0.000000
siesta:     30   -6.951267  550.691113    0.000000
siesta:     31    1.152915 -122.993562    0.000000
siesta:     32    0.075432  550.620548    0.000000
siesta:     33    0.057090 -127.529051    0.000000
siesta:     34   18.148326  557.872105    0.000000
siesta:     35   25.956467   -7.126611    0.000000
siesta:     36   -0.973194    2.792359    0.000000
siesta:     37    0.152123    0.120433    0.000000
siesta:     38    0.320206    1.043714    0.000000
siesta:     39    0.375875   -0.572728    0.000000
siesta:     40  -35.345762  549.061599    0.000000
siesta:     41  -26.473383   -6.638174    0.000000
siesta:     42  -17.849454  557.936099    0.000000
siesta:     43  -25.927417   -7.074904    0.000000
siesta:     44    0.849957    0.700346    0.000000
siesta:     45    0.071818    0.946148    0.000000
siesta:     46    2.584699   -1.783309    0.000000
siesta:     47   -1.676376   -0.252032    0.000000
siesta:     48    0.923019    2.569477    0.000000
siesta:     49    0.137795   -0.022967    0.000000
siesta:     50   -1.616554    0.617962    0.000000
siesta:     51   -0.299279   -0.205865    0.000000
siesta:     52    1.227571    0.260144    0.000000
siesta:     53   -1.585159   -2.262934    0.000000
siesta:     54    0.287003    0.990811    0.000000
siesta:     55    0.212891   -0.291977    0.000000
siesta:     56   -0.167210    7.022251    0.000000
siesta:     57   -1.584995    0.473630    0.000000
siesta:     58    0.558260   -0.213037    0.000000
siesta:     59    0.023746   -0.233169    0.000000
siesta:     60   -2.786349   -2.567931    0.000000
siesta:     61   -0.191823   -0.497588    0.000000
siesta:     62    0.764843 -570.094517    0.000000
siesta:     63    2.081003   -3.008930    0.000000
siesta:     64   24.540488    2.750789    0.000000
siesta:     65   13.258136 -560.518980    0.000000
siesta:     66  -24.303679    2.200467    0.000000
siesta:     67  -12.924400 -560.158100    0.000000
siesta:     68   -1.718425   -0.581375    0.000000
siesta:     69    2.700696    2.032871    0.000000
siesta:     70   -0.117766 -543.250655    0.000000
siesta:     71   -0.038520  114.409732    0.000000
siesta:     72   -0.529091 -646.412222    0.000000
siesta: ----------------------------------------
siesta:    Tot   -0.178574    0.017471    0.000000

siesta: Stress tensor (static) (eV/Ang**3):
siesta:    -0.426508    0.001143    0.000000
siesta:     0.001143   -1.826536    0.000000
siesta:     0.000000    0.000000   -0.000078

siesta: Cell volume =       1893.226884 Ang**3

siesta: Pressure (static):
siesta:                Solid            Molecule  Units
siesta:           0.00817979          0.12948925  Ry/Bohr**3
siesta:           0.75104040         11.88926234  eV/Ang**3
siesta:        1203.31239293      19048.90421550  kBar
(Free)E+ p_basis*V_orbitals  =      -11180.476681
(Free)Eharris+ p_basis*V_orbitals  =      -11180.465706

siesta: Electric dipole (a.u.)  =    0.000000    0.000000    0.000000
siesta: Electric dipole (Debye) =    0.000000    0.000000    0.000000

* Maximum dynamic memory allocated : Node    0 =   148 MB
* Maximum dynamic memory allocated : Node    1 =    58 MB
* Maximum dynamic memory allocated : Node    2 =    59 MB
* Maximum dynamic memory allocated : Node    3 =   136 MB
* Maximum dynamic memory allocated : Node    4 =   148 MB
* Maximum dynamic memory allocated : Node    5 =    54 MB
* Maximum dynamic memory allocated : Node    6 =    55 MB
* Maximum dynamic memory allocated : Node    7 =   141 MB
* Maximum dynamic memory allocated : Node    8 =   132 MB
* Maximum dynamic memory allocated : Node    9 =    54 MB
* Maximum dynamic memory allocated : Node   10 =    55 MB
* Maximum dynamic memory allocated : Node   11 =   127 MB

* Maximum memory occured during matrixMtoO                    

timer: CPU execution times:
timer:  Routine       Calls   Time/call    Tot.time        %
timer:  siesta            1  105950.077  105950.077   100.00
timer:  Setup             1       3.459       3.459     0.00
timer:  bands             3     226.582     679.745     0.64
timer:  writewave         1       0.021       0.021     0.00
timer:  KSV_init          1       0.003       0.003     0.00
timer:  IterMD            1  105259.829  105259.829    99.35
timer:  hsparse           1       0.169       0.169     0.00
timer:  overlap           1       5.738       5.738     0.01
timer:  IterSCF          36    2920.258  105129.297    99.23
timer:  kinefsm           2       2.916       5.831     0.01
timer:  nlefsm            2      18.829      37.658     0.04
timer:  DHSCF            37      67.161    2484.955     2.35
timer:  DHSCF1            1       0.903       0.903     0.00
timer:  DHSCF2            1      25.029      25.029     0.02
timer:  REORD           298       0.003       0.745     0.00
timer:  POISON           38       0.449      17.057     0.02
timer:  DHSCF3           37      65.863    2436.923     2.30
timer:  rhoofd           37      13.149     486.521     0.46
timer:  cellXC           37       2.467      91.279     0.09
timer:  vmat             37      32.646    1207.910     1.14
timer:  MolMec            2       0.000       0.000     0.00
timer:  diagon           36    2851.926  102669.343    96.90
timer:  c-eigval       8437       5.599   47235.869    44.58
timer:  c-buildHS      8437       0.033     282.604     0.27
timer:  cdiag         16753       5.692   95353.272    90.00
timer:  cdiag1        16753       0.262    4395.998     4.15
timer:  cdiag2        16753       1.836   30755.700    29.03
timer:  cdiag3        16753       3.393   56848.626    53.66
timer:  cdiag4        16753       0.088    1466.176     1.38
timer:  c-eigvec       8316       5.848   48633.323    45.90
timer:  c-buildD       8316       0.894    7434.527     7.02
timer:  DHSCF4            1      21.844      21.844     0.02
timer:  dfscf             1      20.393      20.393     0.02
timer:  overfsm           1       0.286       0.286     0.00
timer:  optical           1       6.427       6.427     0.01
  

elaps: ELAPSED times:
elaps:  Routine       Calls   Time/call    Tot.time        %
elaps:  siesta            1    8849.963    8849.963   100.00
elaps:  Setup             1       0.289       0.289     0.00
elaps:  bands             3      18.942      56.826     0.64
elaps:  writewave         1       0.002       0.002     0.00
elaps:  KSV_init          1       0.000       0.000     0.00
elaps:  IterMD            1    8792.307    8792.307    99.35
elaps:  hsparse           1       0.016       0.016     0.00
elaps:  overlap           1       0.710       0.710     0.01
elaps:  IterSCF          36     243.928    8781.403    99.23
elaps:  kinefsm           2       0.362       0.724     0.01
elaps:  nlefsm            2       1.639       3.279     0.04
elaps:  DHSCF            37       5.658     209.356     2.37
elaps:  DHSCF1            1       0.077       0.077     0.00
elaps:  DHSCF2            1       2.089       2.089     0.02
elaps:  REORD           298       0.000       0.090     0.00
elaps:  POISON           38       0.038       1.429     0.02
elaps:  DHSCF3           37       5.502     203.586     2.30
elaps:  rhoofd           37       2.295      84.921     0.96
elaps:  cellXC           37       0.206       7.610     0.09
elaps:  vmat             37       2.728     100.925     1.14
elaps:  MolMec            2       0.000       0.000     0.00
elaps:  diagon           36     238.226    8576.138    96.91
elaps:  c-eigval       8437       0.468    3945.549    44.58
elaps:  c-buildHS      8437       0.003      29.506     0.33
elaps:  cdiag         16753       0.471    7892.884    89.19
elaps:  cdiag1        16753       0.021     357.745     4.04
elaps:  cdiag2        16753       0.153    2571.374    29.06
elaps:  cdiag3        16753       0.284    4755.062    53.73
elaps:  cdiag4        16753       0.007     117.557     1.33
elaps:  c-eigvec       8316       0.481    4001.505    45.21
elaps:  c-buildD       8316       0.082     681.576     7.70
elaps:  DHSCF4            1       3.566       3.566     0.04
elaps:  dfscf             1       3.375       3.375     0.04
elaps:  overfsm           1       0.029       0.029     0.00
elaps:  optical           1       0.000       0.000     0.00
  
>> End of run:   7-MAY-2016   0:28:57
