Siesta Version:                                        siesta-3.2-pl-3
Architecture  : x86_64-unknown-linux-gnu--unknown
Compiler flags: mpiifort -g -O2 -fPIC -xSSE4.1 -fp-model source -shared-intel 
PARALLEL version

* Running on    8 nodes in parallel
>> Start of run:  20-APR-2016  21:24:29

                           ***********************       
                           *  WELCOME TO SIESTA  *       
                           ***********************       

reinit: Reading from standard input
************************** Dump of input data file ****************************
#(1) General system descriptors
SystemName            GRP_doping    # Descriptive name of the system
SystemLabel           GRP_doping    # Short name for naming files
%include STRUCT.fdf
%include KPT.fdf
%include BASIS.fdf
#%include TS.fdf # for transiesta calculation
#(4) DFT, Grid, SCF
XC.functional         GGA           # LDA or GGA (default = LDA)
XC.authors            PBE           # CA (Ceperley-Aldr) = PZ
                                    #    (Perdew-Zunger) - LDA - Default
                                    # PW92 (Perdew-Wang-92) - LDA
                                    # PBE (Perdew-Burke-Ernzerhof) - GGA
MeshCutoff            200.000000    Ry      # Default: 50.0 Ry ~ 0.444 Bohr
                                    #         100.0 Ry ~ 0.314 Bohr
MaxSCFIterations      500           # Default: 50
DM.MixingWeight       0.05          # Default: 0.25
DM.NumberPulay        10            # Default: 0
DM.PulayOnFile        F             # SystemLabel.P1, SystemLabel.P2
DM.Tolerance          1.d-4         # Default: 1.d-4
DM.UseSaveDM          .true.        # because of the bug
SCFMustConverge       .true.
NeglNonOverlapInt     F             # Default: F
#(5) Eigenvalue problem: order-N or diagonalization
SolutionMethod        Diagon        # or Transiesta
ElectronicTemperature 300.0 K       # Default: 300.0 K
#(6) Molecular dynamics and relaxations
#MD.TypeOfRun          CG            # Type of dynamics:
#MD.VariableCell       F
#MD.NumCGsteps         0           # 0 for single-point / 100 for gopt
#MD.MaxCGDispl         0.2 Bohr      # Default: 0.2 Bohr
#MD.MaxForceTol        0.02 eV/Ang   # Default: 0.04 eV/Ang
#MD.MaxStressTol       1.0 GPa       # Default: 1.0 GPa
# Geometry Constraints
#%block GeometryConstraints
#	position from 1 to 44
#%endblock GeometryConstraints
BandLinesScale   pi/a
%block BandLines
 1   0.00000000  0.00000000  0.00000000
50   0.00000000  0.07809418  0.00000000
50   0.04509075  0.07809242  0.00000000
20   0.00000000  0.00000000  0.00000000
%endblock BandLines
************************** End of input data file *****************************

reinit: -----------------------------------------------------------------------
reinit: System Name: GRP_doping
reinit: -----------------------------------------------------------------------
reinit: System Label: GRP_doping                                                  
reinit: -----------------------------------------------------------------------

initatom: Reading input for the pseudopotentials and atomic orbitals ----------
 Species number:            1  Label: N Atomic number:           7
 Species number:            2  Label: C Atomic number:           6
Ground state valence configuration:   2s02  2p03
Reading pseudopotential information in formatted form from N.psf

Valence configuration for pseudopotential generation:
2s( 2.00) rc: 1.48
2p( 3.00) rc: 1.48
3d( 0.00) rc: 1.48
4f( 0.00) rc: 1.48
Ground state valence configuration:   2s02  2p02
Reading pseudopotential information in formatted form from C.psf

Valence configuration for pseudopotential generation:
2s( 2.00) rc: 1.54
2p( 2.00) rc: 1.54
3d( 0.00) rc: 1.54
4f( 0.00) rc: 1.54
For N, standard SIESTA heuristics set lmxkb to 3
 (one more than the basis l, including polarization orbitals).
Use PS.lmax or PS.KBprojectors blocks to override.
For C, standard SIESTA heuristics set lmxkb to 3
 (one more than the basis l, including polarization orbitals).
Use PS.lmax or PS.KBprojectors blocks to override.

<basis_specs>
===============================================================================
N                    Z=   7    Mass=  14.010        Charge= 0.17977+309
Lmxo=1 Lmxkb= 3    BasisType=split      Semic=F
L=0  Nsemic=0  Cnfigmx=2
          n=1  nzeta=2  polorb=0
            splnorm:   0.15000    
               vcte:    0.0000    
               rinn:    0.0000    
                rcs:    0.0000      0.0000    
            lambdas:    1.0000      1.0000    
L=1  Nsemic=0  Cnfigmx=2
          n=1  nzeta=2  polorb=1
            splnorm:   0.15000    
               vcte:    0.0000    
               rinn:    0.0000    
                rcs:    0.0000      0.0000    
            lambdas:    1.0000      1.0000    
-------------------------------------------------------------------------------
L=0  Nkbl=1  erefs: 0.17977+309
L=1  Nkbl=1  erefs: 0.17977+309
L=2  Nkbl=1  erefs: 0.17977+309
L=3  Nkbl=1  erefs: 0.17977+309
===============================================================================
</basis_specs>

atom: Called for N                     (Z =   7)

read_vps: Pseudopotential generation method:
read_vps: ATM3      Troullier-Martins                       
Total valence charge:    5.00000

read_vps: Pseudopotential includes a core correction:
read_vps: Pseudo-core for xc-correction

xc_check: Exchange-correlation functional:
xc_check: GGA Perdew, Burke & Ernzerhof 1996
V l=0 = -2*Zval/r beyond r=  1.4606
V l=1 = -2*Zval/r beyond r=  1.4606
V l=2 = -2*Zval/r beyond r=  1.4606
V l=3 = -2*Zval/r beyond r=  1.4606
All V_l potentials equal beyond r=  1.4606
This should be close to max(r_c) in ps generation
All pots = -2*Zval/r beyond r=  1.4606

VLOCAL1: 99.0% of the norm of Vloc inside     20.347 Ry
VLOCAL1: 99.9% of the norm of Vloc inside     46.372 Ry
atom: Maximum radius for 4*pi*r*r*local-pseudopot. charge    1.76189
atom: Maximum radius for r*vlocal+2*Zval:    1.53550
GHOST: No ghost state for L =  0
GHOST: No ghost state for L =  1
GHOST: No ghost state for L =  2
GHOST: No ghost state for L =  3

KBgen: Kleinman-Bylander projectors: 
   l= 0   rc=  1.634559   el= -1.363963   Ekb=  5.296955   kbcos=  0.335621
   l= 1   rc=  1.614250   el= -0.521451   Ekb= -5.259161   kbcos= -0.433408
   l= 2   rc=  1.718383   el=  0.001991   Ekb= -1.271464   kbcos= -0.007566
   l= 3   rc=  1.761893   el=  0.003093   Ekb= -0.494769   kbcos= -0.001015

KBgen: Total number of  Kleinman-Bylander projectors:   16
atom: -------------------------------------------------------------------------

atom: SANKEY-TYPE ORBITALS:
atom: Selected multiple-zeta basis: split     

SPLIT: Orbitals with angular momentum L= 0

SPLIT: Basis orbitals for state 2s

SPLIT: PAO cut-off radius determined from an
SPLIT: energy shift=  0.007350 Ry

   izeta = 1
                 lambda =    1.000000
                     rc =    4.071465
                 energy =   -1.356470
                kinetic =    1.176977
    potential(screened) =   -2.533447
       potential(ionic) =   -8.057990

   izeta = 2
                 rmatch =    2.905100
              splitnorm =    0.150000
                 energy =   -1.158343
                kinetic =    1.813009
    potential(screened) =   -2.971352
       potential(ionic) =   -8.901931

SPLIT: Orbitals with angular momentum L= 1

SPLIT: Basis orbitals for state 2p

SPLIT: PAO cut-off radius determined from an
SPLIT: energy shift=  0.007350 Ry

   izeta = 1
                 lambda =    1.000000
                     rc =    4.972977
                 energy =   -0.513884
                kinetic =    3.441732
    potential(screened) =   -3.955616
       potential(ionic) =   -9.287901

   izeta = 2
                 rmatch =    3.054066
              splitnorm =    0.150000
                 energy =   -0.318226
                kinetic =    5.125348
    potential(screened) =   -5.443573
       potential(ionic) =  -11.380999

POLgen: Perturbative polarization orbital with L=  2

POLgen: Polarization orbital for state 2p

   izeta = 1
                     rc =    4.972977
                 energy =    1.607437
                kinetic =    3.268125
    potential(screened) =   -1.660688
       potential(ionic) =   -5.973652
atom: Total number of Sankey-type orbitals: 13

atm_pop: Valence configuration (for local Pseudopot. screening):
 2s( 2.00)                                                            
 2p( 3.00)                                                            
Vna: chval, zval:    5.00000   5.00000

Vna:  Cut-off radius for the neutral-atom potential:   4.972977
comcore: Pseudo-core radius Rcore=  1.554824

atom: _________________________________________________________________________

<basis_specs>
===============================================================================
C                    Z=   6    Mass=  12.010        Charge= 0.17977+309
Lmxo=1 Lmxkb= 3    BasisType=split      Semic=F
L=0  Nsemic=0  Cnfigmx=2
          n=1  nzeta=2  polorb=0
            splnorm:   0.15000    
               vcte:    0.0000    
               rinn:    0.0000    
                rcs:    0.0000      0.0000    
            lambdas:    1.0000      1.0000    
L=1  Nsemic=0  Cnfigmx=2
          n=1  nzeta=2  polorb=1
            splnorm:   0.15000    
               vcte:    0.0000    
               rinn:    0.0000    
                rcs:    0.0000      0.0000    
            lambdas:    1.0000      1.0000    
-------------------------------------------------------------------------------
L=0  Nkbl=1  erefs: 0.17977+309
L=1  Nkbl=1  erefs: 0.17977+309
L=2  Nkbl=1  erefs: 0.17977+309
L=3  Nkbl=1  erefs: 0.17977+309
===============================================================================
</basis_specs>

atom: Called for C                     (Z =   6)

read_vps: Pseudopotential generation method:
read_vps: ATM3      Troullier-Martins                       
Total valence charge:    4.00000

read_vps: Pseudopotential includes a core correction:
read_vps: Pseudo-core for xc-correction

xc_check: Exchange-correlation functional:
xc_check: GGA Perdew, Burke & Ernzerhof 1996
V l=0 = -2*Zval/r beyond r=  1.5227
V l=1 = -2*Zval/r beyond r=  1.5227
V l=2 = -2*Zval/r beyond r=  1.5227
V l=3 = -2*Zval/r beyond r=  1.5038
All V_l potentials equal beyond r=  1.5227
This should be close to max(r_c) in ps generation
All pots = -2*Zval/r beyond r=  1.5227

VLOCAL1: 99.0% of the norm of Vloc inside     18.722 Ry
VLOCAL1: 99.9% of the norm of Vloc inside     42.668 Ry
atom: Maximum radius for 4*pi*r*r*local-pseudopot. charge    1.83678
atom: Maximum radius for r*vlocal+2*Zval:    1.58088
GHOST: No ghost state for L =  0
GHOST: No ghost state for L =  1
GHOST: No ghost state for L =  2
GHOST: No ghost state for L =  3

KBgen: Kleinman-Bylander projectors: 
   l= 0   rc=  1.704034   el= -1.009801   Ekb=  5.335044   kbcos=  0.316824
   l= 1   rc=  1.704034   el= -0.388707   Ekb= -3.785862   kbcos= -0.366464
   l= 2   rc=  1.791422   el=  0.001971   Ekb= -0.970471   kbcos= -0.009212
   l= 3   rc=  1.859892   el=  0.003065   Ekb= -0.399525   kbcos= -0.001223

KBgen: Total number of  Kleinman-Bylander projectors:   16
atom: -------------------------------------------------------------------------

atom: SANKEY-TYPE ORBITALS:
atom: Selected multiple-zeta basis: split     

SPLIT: Orbitals with angular momentum L= 0

SPLIT: Basis orbitals for state 2s

SPLIT: PAO cut-off radius determined from an
SPLIT: energy shift=  0.007350 Ry

   izeta = 1
                 lambda =    1.000000
                     rc =    4.632753
                 energy =   -1.002270
                kinetic =    0.855760
    potential(screened) =   -1.858031
       potential(ionic) =   -5.417575

   izeta = 2
                 rmatch =    3.431921
              splitnorm =    0.150000
                 energy =   -0.867111
                kinetic =    1.300804
    potential(screened) =   -2.167915
       potential(ionic) =   -5.962684

SPLIT: Orbitals with angular momentum L= 1

SPLIT: Basis orbitals for state 2p

SPLIT: PAO cut-off radius determined from an
SPLIT: energy shift=  0.007350 Ry

   izeta = 1
                 lambda =    1.000000
                     rc =    5.658549
                 energy =   -0.381140
                kinetic =    2.399701
    potential(screened) =   -2.780841
       potential(ionic) =   -6.206085

   izeta = 2
                 rmatch =    3.653288
              splitnorm =    0.150000
                 energy =   -0.249149
                kinetic =    3.542762
    potential(screened) =   -3.791911
       potential(ionic) =   -7.581078

POLgen: Perturbative polarization orbital with L=  2

POLgen: Polarization orbital for state 2p

   izeta = 1
                     rc =    5.658549
                 energy =    1.109913
                kinetic =    2.304789
    potential(screened) =   -1.194876
       potential(ionic) =   -4.013592
atom: Total number of Sankey-type orbitals: 13

atm_pop: Valence configuration (for local Pseudopot. screening):
 2s( 2.00)                                                            
 2p( 2.00)                                                            
Vna: chval, zval:    4.00000   4.00000

Vna:  Cut-off radius for the neutral-atom potential:   5.658549
comcore: Pseudo-core radius Rcore=  1.791422

atom: _________________________________________________________________________

prinput: Basis input ----------------------------------------------------------

PAO.BasisType split     

%block ChemicalSpeciesLabel
    1    7 N                       # Species index, atomic number, species label
    2    6 C                       # Species index, atomic number, species label
%endblock ChemicalSpeciesLabel

%block PAO.Basis                 # Define Basis set
N                     2                    # Species label, number of l-shells
 n=2   0   2                         # n, l, Nzeta 
   4.071      2.905   
   1.000      1.000   
 n=2   1   2 P   1                   # n, l, Nzeta, Polarization, NzetaPol
   4.973      3.054   
   1.000      1.000   
C                     2                    # Species label, number of l-shells
 n=2   0   2                         # n, l, Nzeta 
   4.633      3.432   
   1.000      1.000   
 n=2   1   2 P   1                   # n, l, Nzeta, Polarization, NzetaPol
   5.659      3.653   
   1.000      1.000   
%endblock PAO.Basis

prinput: ----------------------------------------------------------------------

coor:   Atomic-coordinates input format  =     Fractional

siesta: Atomic coordinates (Bohr) and species
siesta:     -2.35420  38.89134   0.00000  1        1
siesta:     -2.35420  41.57980   0.00000  1        2
siesta:      6.95932  30.82560   0.00000  1        3
siesta:      6.95932  33.51406   0.00000  1        4
siesta:     -4.68258  34.85847   0.00000  1        5
siesta:     -4.68258  37.54693   0.00000  1        6
siesta:      2.30256   9.31683   0.00000  1        7
siesta:     -4.68258  10.66124   0.00000  1        8
siesta:     -4.68258  13.34970   0.00000  1        9
siesta:     -2.35420  14.69411   0.00000  1       10
siesta:     -2.35420  17.38257   0.00000  1       11
siesta:     -0.02582  18.72698   0.00000  1       12
siesta:     -0.02582  21.41544   0.00000  1       13
siesta:      2.30256  22.75985   0.00000  1       14
siesta:      2.30256  25.44831   0.00000  1       15
siesta:    -11.66772  22.75985   0.00000  1       16
siesta:    -11.66772  25.44831   0.00000  1       17
siesta:     -9.33934  26.79272   0.00000  1       18
siesta:     -9.33934  29.48119   0.00000  1       19
siesta:      4.63094  26.79272   0.00000  1       20
siesta:      4.63094  29.48119   0.00000  1       21
siesta:     -2.35420  30.82560   0.00000  1       22
siesta:     -7.01096  30.82560   0.00000  1       23
siesta:     -7.01096  33.51406   0.00000  1       24
siesta:     -0.02582  42.92421   0.00000  1       25
siesta:     -0.02582  45.61267   0.00000  1       26
siesta:     -0.02582   2.59549   0.00000  2       27
siesta:     -0.02582   5.28395   0.00000  2       28
siesta:      2.30256  38.89134   0.00000  2       29
siesta:      2.30256  41.57980   0.00000  2       30
siesta:      4.63094  34.85847   0.00000  2       31
siesta:      4.63094  37.54693   0.00000  2       32
siesta:      9.28770  26.79272   0.00000  2       33
siesta:      9.28770  29.48119   0.00000  2       34
siesta:      2.30256   6.62836   0.00000  2       35
siesta:      4.63094  10.66124   0.00000  2       36
siesta:      4.63094  13.34970   0.00000  2       37
siesta:      6.95932  14.69411   0.00000  2       38
siesta:      6.95932  17.38257   0.00000  2       39
siesta:      9.28770  18.72698   0.00000  2       40
siesta:      9.28770  21.41544   0.00000  2       41
siesta:     11.61608  22.75985   0.00000  2       42
siesta:     11.61608  25.44831   0.00000  2       43
siesta:     -2.35420   6.62836   0.00000  2       44
siesta:     -2.35420   9.31683   0.00000  2       45
siesta:     -0.02582  10.66124   0.00000  2       46
siesta:     -0.02582  13.34970   0.00000  2       47
siesta:      2.30256  14.69411   0.00000  2       48
siesta:      2.30256  17.38257   0.00000  2       49
siesta:      4.63094  18.72698   0.00000  2       50
siesta:      4.63094  21.41544   0.00000  2       51
siesta:      6.95932  22.75985   0.00000  2       52
siesta:      6.95932  25.44831   0.00000  2       53
siesta:     -7.01096  14.69411   0.00000  2       54
siesta:     -7.01096  17.38257   0.00000  2       55
siesta:     -4.68258  18.72698   0.00000  2       56
siesta:     -4.68258  21.41544   0.00000  2       57
siesta:     -2.35420  22.75985   0.00000  2       58
siesta:     -2.35420  25.44831   0.00000  2       59
siesta:     -9.33934  18.72698   0.00000  2       60
siesta:     -9.33934  21.41544   0.00000  2       61
siesta:     -7.01096  22.75985   0.00000  2       62
siesta:     -7.01096  25.44831   0.00000  2       63
siesta:     -0.02582  26.79272   0.00000  2       64
siesta:     -0.02582  29.48119   0.00000  2       65
siesta:     -4.68258  26.79272   0.00000  2       66
siesta:     -4.68258  29.48119   0.00000  2       67
siesta:      2.30256  30.82560   0.00000  2       68
siesta:      2.30256  33.51406   0.00000  2       69
siesta:     -2.35420  33.51406   0.00000  2       70
siesta:     -0.02582  34.85847   0.00000  2       71
siesta:     -0.02582  37.54693   0.00000  2       72

siesta: System type = slab      

initatomlists: Number of atoms, orbitals, and projectors:     72   936  1152

siesta: ******************** Simulation parameters ****************************
siesta:
siesta: The following are some of the parameters of the simulation.
siesta: A complete list of the parameters used, including default values,
siesta: can be found in file out.fdf
siesta:
redata: Non-Collinear-spin run           =     F
redata: SpinPolarized (Up/Down) run      =     F
redata: Number of spin components        =     1
redata: Long output                      =     F
redata: Number of Atomic Species         =        2
redata: Charge density info will appear in .RHO file
redata: Write Mulliken Pop.              =     NO
redata: Mesh Cutoff                      =   200.0000  Ry
redata: Net charge of the system         =     0.0000 |e|
redata: Max. number of SCF Iter          =      500
redata: SCF convergence failure will abort job
redata: Performing Pulay mixing using    =    10 iterations
redata: Mix DM in first SCF step ?       =     F
redata: Write Pulay info on disk?        =     F
redata: Discard 1st Pulay DM after  kick =     F
redata: New DM Mixing Weight             =     0.0500
redata: New DM Occupancy tolerance       = 0.000000000001
redata: No kicks to SCF
redata: DM Mixing Weight for Kicks       =     0.5000
redata: DM Tolerance for SCF             =     0.000100
redata: Require Energy convergence for SCF =     F
redata: DM Energy tolerance for SCF      =     0.000100 eV
redata: Require Harris convergence for SCF =     F
redata: DM Harris energy tolerance for SCF =     0.000100 eV
redata: Using Saved Data (generic)   =     F
redata: Use continuation files for DM    =     T
redata: Neglect nonoverlap interactions  =     F
redata: Method of Calculation            =     Diagonalization
redata: Divide and Conquer               =     T
redata: Electronic Temperature           =     0.0019  Ry
redata: Fix the spin of the system       =     F
redata: Dynamics option                  =     Verlet MD run
redata: Initial MD time step             =        1
redata:   Final MD time step             =        1
redata: Length of MD time step           =     1.0000  fs
redata: Initial Temperature of MD run    =     0.0000  K
redata: Perform a MD quench              =     F
redata: ***********************************************************************
Total number of electrons:   314.000000
Total ionic charge:   314.000000

* ProcessorY, Blocksize:    2  24

k-point displ. along   1 input, could be:     0.50    0.00
k-point displ. along   2 input, could be:     0.50    0.00
 Kpoints in:          231 . Kpoints trimmed:          231

siesta: k-grid: Number of k-points =   231
siesta: k-grid: Cutoff (effective) =     5.000 Ang
siesta: k-grid: Supercell and displacements
siesta: k-grid:   21   0   0      0.500
siesta: k-grid:    0  21   0      0.500
siesta: k-grid:    0   0   1      0.000
Naive supercell factors:     2    2    2

superc: Internal auxiliary supercell:     2 x     2 x     2  =       8
superc: Number of atoms, orbitals, and projectors:    576   7488   9216

* Maximum dynamic memory allocated =     4 MB

siesta:                 ==============================
                            Begin MD step =      1
                        ==============================

superc: Internal auxiliary supercell:     2 x     2 x     2  =       8
superc: Number of atoms, orbitals, and projectors:    576   7488   9216

outcell: Unit cell vectors (Ang):
       12.804619    7.392750    0.000000
        0.000000   14.785500    0.000000
        0.000000    0.000000   10.000000

outcell: Cell vector modules (Ang)   :   14.785500   14.785500   10.000000
outcell: Cell angles (23,13,12) (deg):     90.0000     90.0000     60.0000
outcell: Cell volume (Ang**3)        :   1893.2269
New_DM. Step:     1
Initializing Density Matrix...

InitMesh: MESH =   120 x   120 x    90 =     1296000
InitMesh: Mesh cutoff (required, used) =   200.000   223.865 Ry

* Maximum dynamic memory allocated =   179 MB

stepf: Fermi-Dirac step function

siesta: Program's energy decomposition (eV):
siesta: Ebs     =     -6394.215642
siesta: Eions   =     22582.429020
siesta: Ena     =      5001.502344
siesta: Ekin    =      8560.167659
siesta: Enl     =      -140.122105
siesta: DEna    =        -0.000015
siesta: DUscf   =         0.000000
siesta: DUext   =         0.000000
siesta: Exc     =     -4831.400335
siesta: eta*DQ  =         0.000000
siesta: Emadel  =         0.000000
siesta: Emeta   =         0.000000
siesta: Emolmec =         0.000000
siesta: Ekinion =         0.000000
siesta: Eharris =    -13570.622244
siesta: Etot    =    -13992.281471
siesta: FreeEng =    -13992.281471

siesta: iscf   Eharris(eV)      E_KS(eV)   FreeEng(eV)   dDmax  Ef(eV)
siesta:    1   -13570.6222   -13992.2815   -13992.2815  6.3921 -6.5595
timer: Routine,Calls,Time,% = IterSCF        1    4103.823  99.72
elaps: Routine,Calls,Wall,% = IterSCF        1     513.551  99.72
siesta:    2   -17064.7127   -12983.3769   -12983.3772  9.4896 -4.0228
siesta:    3   -13539.6681   -13698.5540   -13698.5570  1.7243 -4.1207
siesta:    4   -13475.7993   -13633.8344   -13633.9137  1.0997 -3.6978
siesta:    5   -13456.0626   -13579.5507   -13579.5965  1.0676 -3.5121
siesta:    6   -13429.5057   -13543.5953   -13543.6355  1.0722 -3.5376
siesta:    7   -13418.4871   -13521.3329   -13521.3443  0.9575 -3.6024
siesta:    8   -13416.1940   -13508.1343   -13508.1916  0.7562 -3.5710
siesta:    9   -13414.8076   -13498.2201   -13498.2779  0.6883 -3.5586
siesta:   10   -13413.7178   -13457.8250   -13457.8823  0.3320 -3.5617
siesta:   11   -13413.3699   -13445.6682   -13445.6999  0.2684 -3.5186
siesta:   12   -13413.1147   -13415.0657   -13415.1253  0.2823 -3.4857
siesta:   13   -13412.8629   -13413.5960   -13413.6473  0.2721 -3.4951
siesta:   14   -13412.6743   -13414.2549   -13414.2995  0.2256 -3.5029
siesta:   15   -13412.3504   -13415.4168   -13415.4678  0.1559 -3.5521
siesta:   16   -13412.2626   -13413.9268   -13413.9817  0.0886 -3.5532
siesta:   17   -13412.2145   -13413.2171   -13413.2659  0.0632 -3.5571
siesta:   18   -13412.1860   -13413.4264   -13413.4712  0.0588 -3.5520
siesta:   19   -13412.1760   -13414.2710   -13414.3145  0.0350 -3.5413
siesta:   20   -13412.1744   -13413.9781   -13414.0186  0.0364 -3.5405
siesta:   21   -13412.1590   -13412.7119   -13412.7526  0.0284 -3.5407
siesta:   22   -13412.1607   -13411.8054   -13411.8486  0.0183 -3.5379
siesta:   23   -13412.1600   -13411.7991   -13411.8401  0.0136 -3.5374
siesta:   24   -13412.1589   -13411.9790   -13412.0197  0.0084 -3.5379
siesta:   25   -13412.1587   -13412.0423   -13412.0828  0.0054 -3.5396
siesta:   26   -13412.1580   -13411.9292   -13411.9698  0.0035 -3.5418
siesta:   27   -13412.1582   -13411.9907   -13412.0316  0.0027 -3.5417
siesta:   28   -13412.1580   -13412.0600   -13412.1006  0.0018 -3.5420
siesta:   29   -13412.1581   -13412.1275   -13412.1683  0.0013 -3.5421
siesta:   30   -13412.1580   -13412.1450   -13412.1857  0.0011 -3.5424
siesta:   31   -13412.1581   -13412.1511   -13412.1918  0.0009 -3.5425
siesta:   32   -13412.1580   -13412.1646   -13412.2052  0.0006 -3.5427
siesta:   33   -13412.1581   -13412.1881   -13412.2288  0.0009 -3.5427
siesta:   34   -13412.1581   -13412.1702   -13412.2108  0.0003 -3.5427
siesta:   35   -13412.1581   -13412.1517   -13412.1923  0.0002 -3.5426
siesta:   36   -13412.1581   -13412.1530   -13412.1937  0.0002 -3.5426
siesta:   37   -13412.1580   -13412.1536   -13412.1942  0.0001 -3.5425
siesta:   38   -13412.1581   -13412.1617   -13412.2023  0.0001 -3.5425

siesta: E_KS(eV) =           -13412.1595

siesta: E_KS - E_eggbox =    -13412.1595

siesta: Atomic forces (eV/Ang):
----------------------------------------
   Tot    0.049884   -0.021138    0.000000
----------------------------------------
   Max  786.330988
   Res  183.916895    sqrt( Sum f_i^2 / 3N )
----------------------------------------
   Max  786.330988    constrained

Stress-tensor-Voigt (kbar):     -652.46    -3297.79       -0.01        0.06        0.00        0.00
(Free)E + p*V (eV/cell)   -11856.2622
Target enthalpy (eV/cell)   -13412.2002

siesta: Stress tensor (static) (eV/Ang**3):
        -0.407230    0.000039    0.000000
         0.000040   -2.058298    0.000000
         0.000000    0.000000   -0.000005

siesta: Pressure (static):       1316.75420172  kBar

siesta: Stress tensor (total) (eV/Ang**3):
        -0.407230    0.000039    0.000000
         0.000040   -2.058298    0.000000
         0.000000    0.000000   -0.000005

siesta: Pressure (total):       1316.75420172  kBar

siesta: Temp_ion =       0.000 K

* Maximum dynamic memory allocated =   196 MB
Computing bands...

siesta: Program's energy decomposition (eV):
siesta: Ebs     =     -5197.272527
siesta: Eions   =     22582.429020
siesta: Ena     =      5001.502344
siesta: Ekin    =     11697.510976
siesta: Enl     =     -1843.748659
siesta: DEna    =      -788.578411
siesta: DUscf   =       107.475326
siesta: DUext   =         0.000000
siesta: Exc     =     -5003.892093
siesta: eta*DQ  =         0.000000
siesta: Emadel  =         0.000000
siesta: Emeta   =         0.000000
siesta: Emolmec =         0.000000
siesta: Ekinion =         0.000000
siesta: Eharris =    -13412.158051
siesta: Etot    =    -13412.159535
siesta: FreeEng =    -13412.200156

siesta: Final energy (eV):
siesta:  Band Struct. =   -5197.272527
siesta:       Kinetic =   11697.510976
siesta:       Hartree =   37692.320709
siesta:    Ext. field =       0.000000
siesta:   Exch.-corr. =   -5003.892093
siesta:  Ion-electron =  -86581.118771
siesta:       Ion-ion =   28783.019643
siesta:       Ekinion =       0.000000
siesta:         Total =  -13412.159535

siesta: Atomic forces (eV/Ang):
siesta:      1    9.633986  109.309432    0.000000
siesta:      2  -24.120453 -748.843543    0.000000
siesta:      3    3.849602    0.302670    0.000000
siesta:      4   -3.163021   -1.728918    0.000000
siesta:      5  -23.794573   -4.218355    0.000000
siesta:      6  -26.629123 -750.282554    0.000000
siesta:      7   -6.192413 -115.166470    0.000000
siesta:      8  -27.050191  756.665245    0.000000
siesta:      9  -37.019954   -0.483608    0.000000
siesta:     10    0.730227  772.872725    0.000000
siesta:     11  -34.812642   -2.155472    0.000000
siesta:     12   -2.514905  786.330988    0.000000
siesta:     13    1.975375    1.285907    0.000000
siesta:     14    2.142389    0.886443    0.000000
siesta:     15    0.359190    2.569982    0.000000
siesta:     16    1.132378    3.560569    0.000000
siesta:     17    0.409974   -2.104354    0.000000
siesta:     18    2.005756   -0.638753    0.000000
siesta:     19   -0.871710    0.738087    0.000000
siesta:     20    0.992665   -0.976273    0.000000
siesta:     21   -3.357936   -2.372422    0.000000
siesta:     22  -28.336425    7.061525    0.000000
siesta:     23    1.709661   -0.747609    0.000000
siesta:     24   -0.502717   -3.795713    0.000000
siesta:     25    0.543508  113.982637    0.000000
siesta:     26    7.801429 -741.991798    0.000000
siesta:     27   -9.837007  552.796772    0.000000
siesta:     28   -3.554733 -124.146572    0.000000
siesta:     29    1.960016  121.984450    0.000000
siesta:     30   15.113632 -555.851809    0.000000
siesta:     31   25.907042    3.740302    0.000000
siesta:     32   28.434598 -550.571022    0.000000
siesta:     33    0.289822    2.374564    0.000000
siesta:     34   -1.694546    2.455344    0.000000
siesta:     35    5.452204  540.158997    0.000000
siesta:     36   30.984600  550.990068    0.000000
siesta:     37   26.231763   -4.157853    0.000000
siesta:     38   -3.221078   -1.978849    0.000000
siesta:     39    2.596926   -0.091533    0.000000
siesta:     40   -1.731616   -0.071620    0.000000
siesta:     41    1.549734   -2.556747    0.000000
siesta:     42    0.060889    7.534222    0.000000
siesta:     43   -0.223172   -6.700680    0.000000
siesta:     44  -35.807755  548.747017    0.000000
siesta:     45    6.851177 -120.277219    0.000000
siesta:     46  -25.286300  552.930146    0.000000
siesta:     47    7.468282 -122.691838    0.000000
siesta:     48    6.360188  561.327892    0.000000
siesta:     49   27.129691   -7.549189    0.000000
siesta:     50   -2.362466    4.172907    0.000000
siesta:     51   -0.411099   -0.600913    0.000000
siesta:     52   -1.017490    1.183984    0.000000
siesta:     53   -0.660513   -0.482007    0.000000
siesta:     54    2.393509   -0.621814    0.000000
siesta:     55   -1.322645   -1.389275    0.000000
siesta:     56    0.589161    2.095615    0.000000
siesta:     57    1.198678   -0.699575    0.000000
siesta:     58   -0.721766    0.009316    0.000000
siesta:     59    0.887306   -0.797831    0.000000
siesta:     60   -0.236401    0.751963    0.000000
siesta:     61   -1.362442   -0.631001    0.000000
siesta:     62   -0.243838    1.085364    0.000000
siesta:     63   -0.482687   -0.182957    0.000000
siesta:     64    1.183258   -0.275240    0.000000
siesta:     65   11.473935 -577.224495    0.000000
siesta:     66   -0.753264    0.337247    0.000000
siesta:     67   -0.692400   -1.758431    0.000000
siesta:     68   23.594866    6.891573    0.000000
siesta:     69   29.748073 -565.194672    0.000000
siesta:     70    0.097015 -566.871296    0.000000
siesta:     71    3.366989  125.228210    0.000000
siesta:     72   15.829669 -553.503022    0.000000
siesta: ----------------------------------------
siesta:    Tot    0.049884   -0.021138    0.000000

siesta: Stress tensor (static) (eV/Ang**3):
siesta:    -0.407230    0.000039    0.000000
siesta:     0.000040   -2.058298    0.000000
siesta:     0.000000    0.000000   -0.000005

siesta: Cell volume =       1893.226884 Ang**3

siesta: Pressure (static):
siesta:                Solid            Molecule  Units
siesta:           0.00895094          0.14545356  Ry/Bohr**3
siesta:           0.82184445         13.35505153  eV/Ang**3
siesta:        1316.75420172      21397.38278525  kBar
(Free)E+ p_basis*V_orbitals  =      -13385.179592
(Free)Eharris+ p_basis*V_orbitals  =      -13385.175963

siesta: Electric dipole (a.u.)  =    0.000000    0.000000    0.000000
siesta: Electric dipole (Debye) =    0.000000    0.000000    0.000000

* Maximum dynamic memory allocated : Node    0 =   196 MB
* Maximum dynamic memory allocated : Node    1 =    69 MB
* Maximum dynamic memory allocated : Node    2 =    73 MB
* Maximum dynamic memory allocated : Node    3 =   187 MB
* Maximum dynamic memory allocated : Node    4 =   183 MB
* Maximum dynamic memory allocated : Node    5 =    70 MB
* Maximum dynamic memory allocated : Node    6 =    72 MB
* Maximum dynamic memory allocated : Node    7 =   169 MB

* Maximum memory occured during matrixMtoO                    

timer: CPU execution times:
timer:  Routine       Calls   Time/call    Tot.time        %
timer:  siesta            1  153271.585  153271.585   100.00
timer:  Setup             1       3.064       3.064     0.00
timer:  bands             3     269.392     808.177     0.53
timer:  writewave         1       0.016       0.016     0.00
timer:  KSV_init          1       0.003       0.003     0.00
timer:  IterMD            1  152454.470  152454.470    99.47
timer:  hsparse           1       0.233       0.233     0.00
timer:  overlap           1       7.707       7.707     0.01
timer:  IterSCF          38    4007.647  152290.579    99.36
timer:  kinefsm           2       3.954       7.907     0.01
timer:  nlefsm            2      18.218      36.436     0.02
timer:  DHSCF            39      83.219    3245.554     2.12
timer:  DHSCF1            1       0.765       0.765     0.00
timer:  DHSCF2            1      32.511      32.511     0.02
timer:  REORD           314       0.010       3.104     0.00
timer:  POISON           40       2.256      90.235     0.06
timer:  DHSCF3           39      81.580    3181.603     2.08
timer:  rhoofd           39      15.922     620.952     0.41
timer:  cellXC           39       3.469     135.289     0.09
timer:  vmat             39      38.756    1511.474     0.99
timer:  MolMec            2       0.000       0.000     0.00
timer:  diagon           38    3923.253  149083.616    97.27
timer:  c-eigval       8899       6.670   59353.294    38.72
timer:  c-buildHS      8899       0.113    1007.154     0.66
timer:  cdiag         17677       6.857  121209.305    79.08
timer:  cdiag1        17677       0.429    7578.252     4.94
timer:  cdiag2        17677       1.904   33657.279    21.96
timer:  cdiag3        17677       3.951   69840.313    45.57
timer:  cdiag4        17677       0.205    3628.637     2.37
timer:  c-eigvec       8778       7.222   63395.578    41.36
timer:  c-buildD       8778       3.087   27095.889    17.68
timer:  DHSCF4            1      28.611      28.611     0.02
timer:  dfscf             1      26.838      26.838     0.02
timer:  overfsm           1       0.396       0.396     0.00
timer:  optical           1       5.131       5.131     0.00
  

elaps: ELAPSED times:
elaps:  Routine       Calls   Time/call    Tot.time        %
elaps:  siesta            1   19178.686   19178.686   100.00
elaps:  Setup             1       0.382       0.382     0.00
elaps:  bands             3      33.725     101.175     0.53
elaps:  writewave         1       0.002       0.002     0.00
elaps:  KSV_init          1       0.000       0.000     0.00
elaps:  IterMD            1   19076.453   19076.453    99.47
elaps:  hsparse           1       0.028       0.028     0.00
elaps:  overlap           1       0.975       0.975     0.01
elaps:  IterSCF          38     501.472   19055.951    99.36
elaps:  kinefsm           2       0.496       0.993     0.01
elaps:  nlefsm            2       2.385       4.770     0.02
elaps:  DHSCF            39      10.511     409.940     2.14
elaps:  DHSCF1            1       0.097       0.097     0.00
elaps:  DHSCF2            1       4.066       4.066     0.02
elaps:  REORD           314       0.001       0.445     0.00
elaps:  POISON           40       0.282      11.268     0.06
elaps:  DHSCF3           39      10.206     398.040     2.08
elaps:  rhoofd           39       4.453     173.685     0.91
elaps:  cellXC           39       0.433      16.895     0.09
elaps:  vmat             39       4.848     189.073     0.99
elaps:  MolMec            2       0.000       0.000     0.00
elaps:  diagon           38     490.903   18654.313    97.27
elaps:  c-eigval       8899       0.834    7426.136    38.72
elaps:  c-buildHS      8899       0.015     135.405     0.71
elaps:  cdiag         17677       0.863   15254.468    79.54
elaps:  cdiag1        17677       0.053     940.364     4.90
elaps:  cdiag2        17677       0.238    4211.260    21.96
elaps:  cdiag3        17677       0.495    8750.145    45.62
elaps:  cdiag4        17677       0.026     462.120     2.41
elaps:  c-eigvec       8778       0.918    8057.257    42.01
elaps:  c-buildD       8778       0.372    3265.021    17.02
elaps:  DHSCF4            1       7.455       7.455     0.04
elaps:  dfscf             1       7.079       7.079     0.04
elaps:  overfsm           1       0.050       0.050     0.00
elaps:  optical           1       0.000       0.000     0.00
  
>> End of run:  21-APR-2016   2:44:08
