Siesta Version:                                        siesta-3.2-pl-3
Architecture  : x86_64-unknown-linux-gnu--unknown
Compiler flags: mpiifort -g -O2 -fPIC -xSSE4.1 -fp-model source -shared-intel 
PARALLEL version

* Running on    8 nodes in parallel
>> Start of run:  24-APR-2016  18:29:42

                           ***********************       
                           *  WELCOME TO SIESTA  *       
                           ***********************       

reinit: Reading from standard input
************************** Dump of input data file ****************************
#(1) General system descriptors
SystemName            GRP_doping    # Descriptive name of the system
SystemLabel           GRP_doping    # Short name for naming files
%include STRUCT.fdf
%include KPT.fdf
%include BASIS.fdf
#%include TS.fdf # for transiesta calculation
#(4) DFT, Grid, SCF
XC.functional         GGA           # LDA or GGA (default = LDA)
XC.authors            PBE           # CA (Ceperley-Aldr) = PZ
                                    #    (Perdew-Zunger) - LDA - Default
                                    # PW92 (Perdew-Wang-92) - LDA
                                    # PBE (Perdew-Burke-Ernzerhof) - GGA
MeshCutoff            200.000000    Ry      # Default: 50.0 Ry ~ 0.444 Bohr
                                    #         100.0 Ry ~ 0.314 Bohr
MaxSCFIterations      500           # Default: 50
DM.MixingWeight       0.05          # Default: 0.25
DM.NumberPulay        10            # Default: 0
DM.PulayOnFile        F             # SystemLabel.P1, SystemLabel.P2
DM.Tolerance          1.d-4         # Default: 1.d-4
DM.UseSaveDM          .true.        # because of the bug
SCFMustConverge       .true.
NeglNonOverlapInt     F             # Default: F
#(5) Eigenvalue problem: order-N or diagonalization
SolutionMethod        Diagon        # or Transiesta
ElectronicTemperature 300.0 K       # Default: 300.0 K
#(6) Molecular dynamics and relaxations
#MD.TypeOfRun          CG            # Type of dynamics:
#MD.VariableCell       F
#MD.NumCGsteps         0           # 0 for single-point / 100 for gopt
#MD.MaxCGDispl         0.2 Bohr      # Default: 0.2 Bohr
#MD.MaxForceTol        0.02 eV/Ang   # Default: 0.04 eV/Ang
#MD.MaxStressTol       1.0 GPa       # Default: 1.0 GPa
# Geometry Constraints
#%block GeometryConstraints
#	position from 1 to 44
#%endblock GeometryConstraints
BandLinesScale   pi/a
%block BandLines
 1   0.00000000  0.00000000  0.00000000
50   0.00000000  0.07809418  0.00000000
50   0.04509075  0.07809242  0.00000000
20   0.00000000  0.00000000  0.00000000
%endblock BandLines
************************** End of input data file *****************************

reinit: -----------------------------------------------------------------------
reinit: System Name: GRP_doping
reinit: -----------------------------------------------------------------------
reinit: System Label: GRP_doping                                                  
reinit: -----------------------------------------------------------------------

initatom: Reading input for the pseudopotentials and atomic orbitals ----------
 Species number:            1  Label: B Atomic number:           5
 Species number:            2  Label: C Atomic number:           6
Ground state valence configuration:   2s02  2p01
Reading pseudopotential information in formatted form from B.psf

Valence configuration for pseudopotential generation:
2s( 2.00) rc: 1.74
2p( 1.00) rc: 1.74
3d( 0.00) rc: 1.74
4f( 0.00) rc: 1.74
Ground state valence configuration:   2s02  2p02
Reading pseudopotential information in formatted form from C.psf

Valence configuration for pseudopotential generation:
2s( 2.00) rc: 1.54
2p( 2.00) rc: 1.54
3d( 0.00) rc: 1.54
4f( 0.00) rc: 1.54
For B, standard SIESTA heuristics set lmxkb to 3
 (one more than the basis l, including polarization orbitals).
Use PS.lmax or PS.KBprojectors blocks to override.
For C, standard SIESTA heuristics set lmxkb to 3
 (one more than the basis l, including polarization orbitals).
Use PS.lmax or PS.KBprojectors blocks to override.

<basis_specs>
===============================================================================
B                    Z=   5    Mass=  10.810        Charge= 0.17977+309
Lmxo=1 Lmxkb= 3    BasisType=split      Semic=F
L=0  Nsemic=0  Cnfigmx=2
          n=1  nzeta=2  polorb=0
            splnorm:   0.15000    
               vcte:    0.0000    
               rinn:    0.0000    
                rcs:    0.0000      0.0000    
            lambdas:    1.0000      1.0000    
L=1  Nsemic=0  Cnfigmx=2
          n=1  nzeta=2  polorb=1
            splnorm:   0.15000    
               vcte:    0.0000    
               rinn:    0.0000    
                rcs:    0.0000      0.0000    
            lambdas:    1.0000      1.0000    
-------------------------------------------------------------------------------
L=0  Nkbl=1  erefs: 0.17977+309
L=1  Nkbl=1  erefs: 0.17977+309
L=2  Nkbl=1  erefs: 0.17977+309
L=3  Nkbl=1  erefs: 0.17977+309
===============================================================================
</basis_specs>

atom: Called for B                     (Z =   5)

read_vps: Pseudopotential generation method:
read_vps: ATM3      Troullier-Martins                       
Total valence charge:    3.00000

read_vps: Pseudopotential includes a core correction:
read_vps: Pseudo-core for xc-correction

xc_check: Exchange-correlation functional:
xc_check: GGA Perdew, Burke & Ernzerhof 1996
V l=0 = -2*Zval/r beyond r=  1.7165
V l=1 = -2*Zval/r beyond r=  1.7165
V l=2 = -2*Zval/r beyond r=  1.7165
V l=3 = -2*Zval/r beyond r=  1.6951
All V_l potentials equal beyond r=  1.7165
This should be close to max(r_c) in ps generation
All pots = -2*Zval/r beyond r=  1.7165

VLOCAL1: 99.0% of the norm of Vloc inside     14.733 Ry
VLOCAL1: 99.9% of the norm of Vloc inside     33.577 Ry
atom: Maximum radius for 4*pi*r*r*local-pseudopot. charge    2.04484
atom: Maximum radius for r*vlocal+2*Zval:    1.75994
GHOST: No ghost state for L =  0
GHOST: No ghost state for L =  1
GHOST: No ghost state for L =  2
GHOST: No ghost state for L =  3

KBgen: Kleinman-Bylander projectors: 
   l= 0   rc=  1.897051   el= -0.693730   Ekb=  4.595746   kbcos=  0.286105
   l= 1   rc=  1.920920   el= -0.265236   Ekb= -2.350715   kbcos= -0.315747
   l= 2   rc=  2.044840   el=  0.002055   Ekb= -0.690767   kbcos= -0.013822
   l= 3   rc=  2.149707   el=  0.003188   Ekb= -0.315358   kbcos= -0.002055

KBgen: Total number of  Kleinman-Bylander projectors:   16
atom: -------------------------------------------------------------------------

atom: SANKEY-TYPE ORBITALS:
atom: Selected multiple-zeta basis: split     

SPLIT: Orbitals with angular momentum L= 0

SPLIT: Basis orbitals for state 2s

SPLIT: PAO cut-off radius determined from an
SPLIT: energy shift=  0.007350 Ry

   izeta = 1
                 lambda =    1.000000
                     rc =    5.422032
                 energy =   -0.686029
                kinetic =    0.576707
    potential(screened) =   -1.262736
       potential(ionic) =   -3.271094

   izeta = 2
                 rmatch =    4.222573
              splitnorm =    0.150000
                 energy =   -0.602132
                kinetic =    0.858975
    potential(screened) =   -1.461107
       potential(ionic) =   -3.582536

SPLIT: Orbitals with angular momentum L= 1

SPLIT: Basis orbitals for state 2p

SPLIT: PAO cut-off radius determined from an
SPLIT: energy shift=  0.007350 Ry

   izeta = 1
                 lambda =    1.000000
                     rc =    6.790259
                 energy =   -0.258578
                kinetic =    1.481412
    potential(screened) =   -1.739989
       potential(ionic) =   -3.657461

   izeta = 2
                 rmatch =    4.608740
              splitnorm =    0.150000
                 energy =   -0.173757
                kinetic =    2.186690
    potential(screened) =   -2.360447
       potential(ionic) =   -4.464260

POLgen: Perturbative polarization orbital with L=  2

POLgen: Polarization orbital for state 2p

   izeta = 1
                     rc =    6.790259
                 energy =    0.684082
                kinetic =    1.471481
    potential(screened) =   -0.787399
       potential(ionic) =   -2.406985
atom: Total number of Sankey-type orbitals: 13

atm_pop: Valence configuration (for local Pseudopot. screening):
 2s( 2.00)                                                            
 2p( 1.00)                                                            
Vna: chval, zval:    3.00000   3.00000

Vna:  Cut-off radius for the neutral-atom potential:   6.790259
comcore: Pseudo-core radius Rcore=  2.122997

atom: _________________________________________________________________________

<basis_specs>
===============================================================================
C                    Z=   6    Mass=  12.010        Charge= 0.17977+309
Lmxo=1 Lmxkb= 3    BasisType=split      Semic=F
L=0  Nsemic=0  Cnfigmx=2
          n=1  nzeta=2  polorb=0
            splnorm:   0.15000    
               vcte:    0.0000    
               rinn:    0.0000    
                rcs:    0.0000      0.0000    
            lambdas:    1.0000      1.0000    
L=1  Nsemic=0  Cnfigmx=2
          n=1  nzeta=2  polorb=1
            splnorm:   0.15000    
               vcte:    0.0000    
               rinn:    0.0000    
                rcs:    0.0000      0.0000    
            lambdas:    1.0000      1.0000    
-------------------------------------------------------------------------------
L=0  Nkbl=1  erefs: 0.17977+309
L=1  Nkbl=1  erefs: 0.17977+309
L=2  Nkbl=1  erefs: 0.17977+309
L=3  Nkbl=1  erefs: 0.17977+309
===============================================================================
</basis_specs>

atom: Called for C                     (Z =   6)

read_vps: Pseudopotential generation method:
read_vps: ATM3      Troullier-Martins                       
Total valence charge:    4.00000

read_vps: Pseudopotential includes a core correction:
read_vps: Pseudo-core for xc-correction

xc_check: Exchange-correlation functional:
xc_check: GGA Perdew, Burke & Ernzerhof 1996
V l=0 = -2*Zval/r beyond r=  1.5227
V l=1 = -2*Zval/r beyond r=  1.5227
V l=2 = -2*Zval/r beyond r=  1.5227
V l=3 = -2*Zval/r beyond r=  1.5038
All V_l potentials equal beyond r=  1.5227
This should be close to max(r_c) in ps generation
All pots = -2*Zval/r beyond r=  1.5227

VLOCAL1: 99.0% of the norm of Vloc inside     18.722 Ry
VLOCAL1: 99.9% of the norm of Vloc inside     42.668 Ry
atom: Maximum radius for 4*pi*r*r*local-pseudopot. charge    1.83678
atom: Maximum radius for r*vlocal+2*Zval:    1.58088
GHOST: No ghost state for L =  0
GHOST: No ghost state for L =  1
GHOST: No ghost state for L =  2
GHOST: No ghost state for L =  3

KBgen: Kleinman-Bylander projectors: 
   l= 0   rc=  1.704034   el= -1.009801   Ekb=  5.335044   kbcos=  0.316824
   l= 1   rc=  1.704034   el= -0.388707   Ekb= -3.785862   kbcos= -0.366464
   l= 2   rc=  1.791422   el=  0.001971   Ekb= -0.970471   kbcos= -0.009212
   l= 3   rc=  1.859892   el=  0.003065   Ekb= -0.399525   kbcos= -0.001223

KBgen: Total number of  Kleinman-Bylander projectors:   16
atom: -------------------------------------------------------------------------

atom: SANKEY-TYPE ORBITALS:
atom: Selected multiple-zeta basis: split     

SPLIT: Orbitals with angular momentum L= 0

SPLIT: Basis orbitals for state 2s

SPLIT: PAO cut-off radius determined from an
SPLIT: energy shift=  0.007350 Ry

   izeta = 1
                 lambda =    1.000000
                     rc =    4.632753
                 energy =   -1.002270
                kinetic =    0.855760
    potential(screened) =   -1.858031
       potential(ionic) =   -5.417575

   izeta = 2
                 rmatch =    3.431921
              splitnorm =    0.150000
                 energy =   -0.867111
                kinetic =    1.300804
    potential(screened) =   -2.167915
       potential(ionic) =   -5.962684

SPLIT: Orbitals with angular momentum L= 1

SPLIT: Basis orbitals for state 2p

SPLIT: PAO cut-off radius determined from an
SPLIT: energy shift=  0.007350 Ry

   izeta = 1
                 lambda =    1.000000
                     rc =    5.658549
                 energy =   -0.381140
                kinetic =    2.399701
    potential(screened) =   -2.780841
       potential(ionic) =   -6.206085

   izeta = 2
                 rmatch =    3.653288
              splitnorm =    0.150000
                 energy =   -0.249149
                kinetic =    3.542762
    potential(screened) =   -3.791911
       potential(ionic) =   -7.581078

POLgen: Perturbative polarization orbital with L=  2

POLgen: Polarization orbital for state 2p

   izeta = 1
                     rc =    5.658549
                 energy =    1.109913
                kinetic =    2.304789
    potential(screened) =   -1.194876
       potential(ionic) =   -4.013592
atom: Total number of Sankey-type orbitals: 13

atm_pop: Valence configuration (for local Pseudopot. screening):
 2s( 2.00)                                                            
 2p( 2.00)                                                            
Vna: chval, zval:    4.00000   4.00000

Vna:  Cut-off radius for the neutral-atom potential:   5.658549
comcore: Pseudo-core radius Rcore=  1.791422

atom: _________________________________________________________________________

prinput: Basis input ----------------------------------------------------------

PAO.BasisType split     

%block ChemicalSpeciesLabel
    1    5 B                       # Species index, atomic number, species label
    2    6 C                       # Species index, atomic number, species label
%endblock ChemicalSpeciesLabel

%block PAO.Basis                 # Define Basis set
B                     2                    # Species label, number of l-shells
 n=2   0   2                         # n, l, Nzeta 
   5.422      4.223   
   1.000      1.000   
 n=2   1   2 P   1                   # n, l, Nzeta, Polarization, NzetaPol
   6.790      4.609   
   1.000      1.000   
C                     2                    # Species label, number of l-shells
 n=2   0   2                         # n, l, Nzeta 
   4.633      3.432   
   1.000      1.000   
 n=2   1   2 P   1                   # n, l, Nzeta, Polarization, NzetaPol
   5.659      3.653   
   1.000      1.000   
%endblock PAO.Basis

prinput: ----------------------------------------------------------------------

coor:   Atomic-coordinates input format  =     Fractional

siesta: Atomic coordinates (Bohr) and species
siesta:      4.63094  34.85847   0.00000  1        1
siesta:      6.95932  30.82560   0.00000  1        2
siesta:      6.95932  33.51406   0.00000  1        3
siesta:      4.63094  10.66124   0.00000  1        4
siesta:      4.63094  13.34970   0.00000  1        5
siesta:      6.95932  17.38257   0.00000  1        6
siesta:      2.30256  14.69411   0.00000  1        7
siesta:      2.30256  17.38257   0.00000  1        8
siesta:      4.63094  18.72698   0.00000  1        9
siesta:      4.63094  21.41544   0.00000  1       10
siesta:     -0.02582  18.72698   0.00000  1       11
siesta:     -0.02582  21.41544   0.00000  1       12
siesta:      2.30256  22.75985   0.00000  1       13
siesta:     -4.68258  21.41544   0.00000  1       14
siesta:     -2.35420  22.75985   0.00000  1       15
siesta:     -7.01096  22.75985   0.00000  1       16
siesta:     -7.01096  25.44831   0.00000  1       17
siesta:     -4.68258  26.79272   0.00000  1       18
siesta:     -4.68258  29.48119   0.00000  1       19
siesta:      2.30256  33.51406   0.00000  1       20
siesta:     -2.35420  30.82560   0.00000  1       21
siesta:     -2.35420  33.51406   0.00000  1       22
siesta:     -0.02582  34.85847   0.00000  1       23
siesta:     -0.02582   2.59549   0.00000  2       24
siesta:     -0.02582   5.28395   0.00000  2       25
siesta:     -2.35420  38.89134   0.00000  2       26
siesta:     -2.35420  41.57980   0.00000  2       27
siesta:      2.30256  38.89134   0.00000  2       28
siesta:      2.30256  41.57980   0.00000  2       29
siesta:      4.63094  37.54693   0.00000  2       30
siesta:      9.28770  26.79272   0.00000  2       31
siesta:      9.28770  29.48119   0.00000  2       32
siesta:     -4.68258  34.85847   0.00000  2       33
siesta:     -4.68258  37.54693   0.00000  2       34
siesta:      2.30256   6.62836   0.00000  2       35
siesta:      2.30256   9.31683   0.00000  2       36
siesta:      6.95932  14.69411   0.00000  2       37
siesta:      9.28770  18.72698   0.00000  2       38
siesta:      9.28770  21.41544   0.00000  2       39
siesta:     11.61608  22.75985   0.00000  2       40
siesta:     11.61608  25.44831   0.00000  2       41
siesta:     -2.35420   6.62836   0.00000  2       42
siesta:     -2.35420   9.31683   0.00000  2       43
siesta:     -0.02582  10.66124   0.00000  2       44
siesta:     -0.02582  13.34970   0.00000  2       45
siesta:      6.95932  22.75985   0.00000  2       46
siesta:      6.95932  25.44831   0.00000  2       47
siesta:     -4.68258  10.66124   0.00000  2       48
siesta:     -4.68258  13.34970   0.00000  2       49
siesta:     -2.35420  14.69411   0.00000  2       50
siesta:     -2.35420  17.38257   0.00000  2       51
siesta:      2.30256  25.44831   0.00000  2       52
siesta:     -7.01096  14.69411   0.00000  2       53
siesta:     -7.01096  17.38257   0.00000  2       54
siesta:     -4.68258  18.72698   0.00000  2       55
siesta:     -2.35420  25.44831   0.00000  2       56
siesta:     -9.33934  18.72698   0.00000  2       57
siesta:     -9.33934  21.41544   0.00000  2       58
siesta:    -11.66772  22.75985   0.00000  2       59
siesta:    -11.66772  25.44831   0.00000  2       60
siesta:     -9.33934  26.79272   0.00000  2       61
siesta:     -9.33934  29.48119   0.00000  2       62
siesta:      4.63094  26.79272   0.00000  2       63
siesta:      4.63094  29.48119   0.00000  2       64
siesta:     -0.02582  26.79272   0.00000  2       65
siesta:     -0.02582  29.48119   0.00000  2       66
siesta:      2.30256  30.82560   0.00000  2       67
siesta:     -7.01096  30.82560   0.00000  2       68
siesta:     -7.01096  33.51406   0.00000  2       69
siesta:     -0.02582  37.54693   0.00000  2       70
siesta:     -0.02582  42.92421   0.00000  2       71
siesta:     -0.02582  45.61267   0.00000  2       72

siesta: System type = slab      

initatomlists: Number of atoms, orbitals, and projectors:     72   936  1152

siesta: ******************** Simulation parameters ****************************
siesta:
siesta: The following are some of the parameters of the simulation.
siesta: A complete list of the parameters used, including default values,
siesta: can be found in file out.fdf
siesta:
redata: Non-Collinear-spin run           =     F
redata: SpinPolarized (Up/Down) run      =     F
redata: Number of spin components        =     1
redata: Long output                      =     F
redata: Number of Atomic Species         =        2
redata: Charge density info will appear in .RHO file
redata: Write Mulliken Pop.              =     NO
redata: Mesh Cutoff                      =   200.0000  Ry
redata: Net charge of the system         =     0.0000 |e|
redata: Max. number of SCF Iter          =      500
redata: SCF convergence failure will abort job
redata: Performing Pulay mixing using    =    10 iterations
redata: Mix DM in first SCF step ?       =     F
redata: Write Pulay info on disk?        =     F
redata: Discard 1st Pulay DM after  kick =     F
redata: New DM Mixing Weight             =     0.0500
redata: New DM Occupancy tolerance       = 0.000000000001
redata: No kicks to SCF
redata: DM Mixing Weight for Kicks       =     0.5000
redata: DM Tolerance for SCF             =     0.000100
redata: Require Energy convergence for SCF =     F
redata: DM Energy tolerance for SCF      =     0.000100 eV
redata: Require Harris convergence for SCF =     F
redata: DM Harris energy tolerance for SCF =     0.000100 eV
redata: Using Saved Data (generic)   =     F
redata: Use continuation files for DM    =     T
redata: Neglect nonoverlap interactions  =     F
redata: Method of Calculation            =     Diagonalization
redata: Divide and Conquer               =     T
redata: Electronic Temperature           =     0.0019  Ry
redata: Fix the spin of the system       =     F
redata: Dynamics option                  =     Verlet MD run
redata: Initial MD time step             =        1
redata:   Final MD time step             =        1
redata: Length of MD time step           =     1.0000  fs
redata: Initial Temperature of MD run    =     0.0000  K
redata: Perform a MD quench              =     F
redata: ***********************************************************************
Total number of electrons:   265.000000
Total ionic charge:   265.000000

* ProcessorY, Blocksize:    2  24

k-point displ. along   1 input, could be:     0.50    0.00
k-point displ. along   2 input, could be:     0.50    0.00
 Kpoints in:          231 . Kpoints trimmed:          231

siesta: k-grid: Number of k-points =   231
siesta: k-grid: Cutoff (effective) =     5.000 Ang
siesta: k-grid: Supercell and displacements
siesta: k-grid:   21   0   0      0.500
siesta: k-grid:    0  21   0      0.500
siesta: k-grid:    0   0   1      0.000
Naive supercell factors:     2    2    2

superc: Internal auxiliary supercell:     2 x     2 x     2  =       8
superc: Number of atoms, orbitals, and projectors:    576   7488   9216

* Maximum dynamic memory allocated =     4 MB

siesta:                 ==============================
                            Begin MD step =      1
                        ==============================

superc: Internal auxiliary supercell:     2 x     2 x     2  =       8
superc: Number of atoms, orbitals, and projectors:    576   7488   9216

outcell: Unit cell vectors (Ang):
       12.804619    7.392750    0.000000
        0.000000   14.785500    0.000000
        0.000000    0.000000   10.000000

outcell: Cell vector modules (Ang)   :   14.785500   14.785500   10.000000
outcell: Cell angles (23,13,12) (deg):     90.0000     90.0000     60.0000
outcell: Cell volume (Ang**3)        :   1893.2269
New_DM. Step:     1
Initializing Density Matrix...

InitMesh: MESH =   120 x   120 x    90 =     1296000
InitMesh: Mesh cutoff (required, used) =   200.000   223.865 Ry

* Maximum dynamic memory allocated =   228 MB

stepf: Fermi-Dirac step function

siesta: Program's energy decomposition (eV):
siesta: Ebs     =     -5472.287634
siesta: Eions   =     15457.706713
siesta: Ena     =      4160.230002
siesta: Ekin    =      5165.204314
siesta: Enl     =       833.422587
siesta: DEna    =        -0.000007
siesta: DUscf   =         0.000000
siesta: DUext   =         0.000000
siesta: Exc     =     -4203.954756
siesta: eta*DQ  =         0.000000
siesta: Emadel  =         0.000000
siesta: Emeta   =         0.000000
siesta: Emolmec =         0.000000
siesta: Ekinion =         0.000000
siesta: Eharris =     -9269.317965
siesta: Etot    =     -9502.804574
siesta: FreeEng =     -9502.804574

siesta: iscf   Eharris(eV)      E_KS(eV)   FreeEng(eV)   dDmax  Ef(eV)
siesta:    1    -9269.3180    -9502.8046    -9502.8046  6.7633 -8.5637
timer: Routine,Calls,Time,% = IterSCF        1    4449.132  99.74
elaps: Routine,Calls,Wall,% = IterSCF        1     556.819  99.74
siesta:    2   -15088.7092    -8394.5257    -8394.5591 19.9710 -4.3976
siesta:    3    -9226.9389    -9368.9977    -9369.0446  3.1934 -7.0075
siesta:    4    -9202.3906    -9262.2456    -9262.3042  1.7180 -6.1387
siesta:    5    -9143.1976    -9187.6140    -9187.6510  1.2014 -5.9116
siesta:    6    -9125.1337    -9128.7429    -9128.7814  1.1395 -5.4005
siesta:    7    -9120.2130    -9114.9328    -9114.9749  1.0653 -5.3300
siesta:    8    -9113.2468    -9103.4240    -9103.4762  0.7044 -5.4525
siesta:    9    -9112.4817    -9098.5517    -9098.6128  0.7061 -5.4616
siesta:   10    -9112.5282    -9088.4672    -9088.5385  0.4209 -5.3214
siesta:   11    -9112.2913    -9083.8490    -9083.9148  0.3706 -5.2980
siesta:   12    -9111.9529    -9081.7325    -9081.7962  0.2951 -5.2750
siesta:   13    -9111.3605    -9082.8501    -9082.9180  0.1939 -5.2472
siesta:   14    -9110.8765    -9086.9794    -9087.0379  0.1855 -5.2722
siesta:   15    -9110.6336    -9089.8531    -9089.9285  0.2368 -5.2685
siesta:   16    -9110.3199    -9095.5081    -9095.5713  0.1491 -5.2825
siesta:   17    -9110.2692    -9098.9834    -9099.0464  0.1554 -5.2926
siesta:   18    -9110.2176    -9099.8416    -9099.9055  0.0719 -5.2938
siesta:   19    -9110.2007    -9101.8320    -9101.8994  0.0664 -5.3037
siesta:   20    -9110.1823    -9104.8472    -9104.9164  0.0353 -5.3185
siesta:   21    -9110.1811    -9106.8284    -9106.8971  0.0211 -5.3252
siesta:   22    -9110.1766    -9108.8793    -9108.9479  0.0145 -5.3283
siesta:   23    -9110.1744    -9109.1083    -9109.1774  0.0089 -5.3245
siesta:   24    -9110.1740    -9109.9147    -9109.9839  0.0078 -5.3195
siesta:   25    -9110.1733    -9110.0696    -9110.1388  0.0062 -5.3177
siesta:   26    -9110.1732    -9110.2146    -9110.2840  0.0038 -5.3159
siesta:   27    -9110.1730    -9110.2626    -9110.3317  0.0022 -5.3164
siesta:   28    -9110.1730    -9110.2520    -9110.3211  0.0018 -5.3167
siesta:   29    -9110.1730    -9110.2638    -9110.3329  0.0015 -5.3170
siesta:   30    -9110.1730    -9110.2172    -9110.2864  0.0011 -5.3173
siesta:   31    -9110.1730    -9110.1977    -9110.2669  0.0006 -5.3174
siesta:   32    -9110.1729    -9110.2026    -9110.2716  0.0006 -5.3176
siesta:   33    -9110.1729    -9110.1983    -9110.2674  0.0005 -5.3175
siesta:   34    -9110.1729    -9110.2029    -9110.2721  0.0004 -5.3175
siesta:   35    -9110.1729    -9110.1980    -9110.2672  0.0003 -5.3174
siesta:   36    -9110.1729    -9110.1921    -9110.2613  0.0002 -5.3174
siesta:   37    -9110.1729    -9110.1825    -9110.2516  0.0001 -5.3174
siesta:   38    -9110.1729    -9110.1772    -9110.2463  0.0001 -5.3174

siesta: E_KS(eV) =            -9110.1762

siesta: E_KS - E_eggbox =     -9110.1762

siesta: Atomic forces (eV/Ang):
----------------------------------------
   Tot   -0.029144    0.108024    0.000000
----------------------------------------
   Max  557.975935
   Res  139.417828    sqrt( Sum f_i^2 / 3N )
----------------------------------------
   Max  557.975935    constrained

Stress-tensor-Voigt (kbar):     -781.67    -2593.16       -0.69       10.32        0.00        0.00
(Free)E + p*V (eV/cell)    -7780.6859
Target enthalpy (eV/cell)    -9110.2454

siesta: Stress tensor (static) (eV/Ang**3):
        -0.487874    0.006440    0.000000
         0.006440   -1.618508    0.000000
         0.000000    0.000000   -0.000433

siesta: Pressure (static):       1125.17533862  kBar

siesta: Stress tensor (total) (eV/Ang**3):
        -0.487874    0.006440    0.000000
         0.006440   -1.618508    0.000000
         0.000000    0.000000   -0.000433

siesta: Pressure (total):       1125.17533862  kBar

siesta: Temp_ion =       0.000 K

* Maximum dynamic memory allocated =   245 MB
Computing bands...

siesta: Program's energy decomposition (eV):
siesta: Ebs     =     -4087.963434
siesta: Eions   =     15457.706713
siesta: Ena     =      4160.230002
siesta: Ekin    =      7993.223138
siesta: Enl     =      -764.923193
siesta: DEna    =      -774.493238
siesta: DUscf   =       104.832905
siesta: DUext   =         0.000000
siesta: Exc     =     -4371.339140
siesta: eta*DQ  =         0.000000
siesta: Emadel  =         0.000000
siesta: Emeta   =         0.000000
siesta: Emolmec =         0.000000
siesta: Ekinion =         0.000000
siesta: Eharris =     -9110.172910
siesta: Etot    =     -9110.176240
siesta: FreeEng =     -9110.245405

siesta: Final energy (eV):
siesta:  Band Struct. =   -4087.963434
siesta:       Kinetic =    7993.223138
siesta:       Hartree =   25880.383778
siesta:    Ext. field =       0.000000
siesta:   Exch.-corr. =   -4371.339140
siesta:  Ion-electron =  -59466.549225
siesta:       Ion-ion =   20854.105210
siesta:       Ekinion =       0.000000
siesta:         Total =   -9110.176240

siesta: Atomic forces (eV/Ang):
siesta:      1   15.305474   -0.876273    0.000000
siesta:      2    3.500873   -1.665258    0.000000
siesta:      3    3.227980    4.202445    0.000000
siesta:      4   26.621110  404.030976    0.000000
siesta:      5   19.365612    2.314739    0.000000
siesta:      6    8.414574   -5.253570    0.000000
siesta:      7   21.174769  403.029090    0.000000
siesta:      8   15.018120   -0.815085    0.000000
siesta:      9   -2.241757   -1.194968    0.000000
siesta:     10    4.291463    0.700368    0.000000
siesta:     11    0.701018  408.384681    0.000000
siesta:     12   -0.136784   -4.032358    0.000000
siesta:     13   -2.192173    5.664848    0.000000
siesta:     14    0.844066   -6.164605    0.000000
siesta:     15    0.532850    6.755595    0.000000
siesta:     16   -2.110095   -1.178705    0.000000
siesta:     17   -4.036035    2.749022    0.000000
siesta:     18    4.987309   -3.333091    0.000000
siesta:     19   -1.889068    3.918980    0.000000
siesta:     20   16.878154 -403.645232    0.000000
siesta:     21  -15.717800    2.298289    0.000000
siesta:     22  -14.050236 -398.281078    0.000000
siesta:     23   -0.638133  104.509374    0.000000
siesta:     24    3.726472  549.230395    0.000000
siesta:     25   -2.651088 -131.739127    0.000000
siesta:     26   -0.045531  124.703262    0.000000
siesta:     27  -20.583267 -551.206965    0.000000
siesta:     28    4.955871  119.756720    0.000000
siesta:     29   16.048144 -406.457130    0.000000
siesta:     30   30.989547 -405.920313    0.000000
siesta:     31    3.556730    3.201335    0.000000
siesta:     32    1.308368   -3.084260    0.000000
siesta:     33  -25.179462   -0.065959    0.000000
siesta:     34  -31.104520 -551.210465    0.000000
siesta:     35   16.902359  402.838537    0.000000
siesta:     36    8.318133 -118.465455    0.000000
siesta:     37   -1.168863   -2.293711    0.000000
siesta:     38    1.444852    4.444620    0.000000
siesta:     39    3.262099   -3.249340    0.000000
siesta:     40    0.195349    7.418155    0.000000
siesta:     41    0.156512   -7.563342    0.000000
siesta:     42  -18.254414  406.946985    0.000000
siesta:     43    3.465086 -124.272811    0.000000
siesta:     44    3.315012  551.697907    0.000000
siesta:     45    7.432775 -118.811935    0.000000
siesta:     46    1.471644    4.072707    0.000000
siesta:     47   -0.178642   -1.652170    0.000000
siesta:     48  -33.973867  551.199901    0.000000
siesta:     49  -25.790284   -4.507498    0.000000
siesta:     50  -24.847275  557.975935    0.000000
siesta:     51  -23.697411   -3.201948    0.000000
siesta:     52    0.674125    3.771638    0.000000
siesta:     53    2.202245   -1.493326    0.000000
siesta:     54   -2.285711   -1.358786    0.000000
siesta:     55    1.845912   -2.308659    0.000000
siesta:     56    3.633248    3.719199    0.000000
siesta:     57    1.367895   -0.058602    0.000000
siesta:     58   -5.829441   -3.559304    0.000000
siesta:     59   -0.591613    5.128068    0.000000
siesta:     60    0.411288   -5.451408    0.000000
siesta:     61   -6.735661    3.594739    0.000000
siesta:     62    2.306198   -0.052459    0.000000
siesta:     63   -0.528386    0.779343    0.000000
siesta:     64   -4.471618   -3.805796    0.000000
siesta:     65   -0.117381   -1.484093    0.000000
siesta:     66   -2.992036 -557.547209    0.000000
siesta:     67   23.219351    4.931943    0.000000
siesta:     68   -6.677998    2.204388    0.000000
siesta:     69    2.802706    2.187554    0.000000
siesta:     70   -8.009126 -542.447645    0.000000
siesta:     71    6.344516  125.900951    0.000000
siesta:     72   -3.523275 -404.444729    0.000000
siesta: ----------------------------------------
siesta:    Tot   -0.029144    0.108024    0.000000

siesta: Stress tensor (static) (eV/Ang**3):
siesta:    -0.487874    0.006440    0.000000
siesta:     0.006440   -1.618508    0.000000
siesta:     0.000000    0.000000   -0.000433

siesta: Cell volume =       1893.226884 Ang**3

siesta: Pressure (static):
siesta:                Solid            Molecule  Units
siesta:           0.00764863          0.10618268  Ry/Bohr**3
siesta:           0.70227162          9.74933246  eV/Ang**3
siesta:        1125.17533862      15620.32149935  kBar
(Free)E+ p_basis*V_orbitals  =       -9072.240860
(Free)Eharris+ p_basis*V_orbitals  =       -9072.236599

siesta: Electric dipole (a.u.)  =    0.000000    0.000000    0.000000
siesta: Electric dipole (Debye) =    0.000000    0.000000    0.000000

* Maximum dynamic memory allocated : Node    0 =   245 MB
* Maximum dynamic memory allocated : Node    1 =    85 MB
* Maximum dynamic memory allocated : Node    2 =    89 MB
* Maximum dynamic memory allocated : Node    3 =   235 MB
* Maximum dynamic memory allocated : Node    4 =   228 MB
* Maximum dynamic memory allocated : Node    5 =    82 MB
* Maximum dynamic memory allocated : Node    6 =    86 MB
* Maximum dynamic memory allocated : Node    7 =   210 MB

* Maximum memory occured during matrixMtoO                    

timer: CPU execution times:
timer:  Routine       Calls   Time/call    Tot.time        %
timer:  siesta            1  167050.725  167050.725   100.00
timer:  Setup             1       3.030       3.030     0.00
timer:  bands             3     269.604     808.813     0.48
timer:  writewave         1       0.020       0.020     0.00
timer:  KSV_init          1       0.000       0.000     0.00
timer:  IterMD            1  166233.026  166233.026    99.51
timer:  hsparse           1       0.394       0.394     0.00
timer:  overlap           1       7.803       7.803     0.00
timer:  IterSCF          38    4368.344  165997.063    99.37
timer:  kinefsm           2       4.086       8.171     0.00
timer:  nlefsm            2      21.708      43.416     0.03
timer:  DHSCF            39     125.751    4904.300     2.94
timer:  DHSCF1            1       1.015       1.015     0.00
timer:  DHSCF2            1      46.316      46.316     0.03
timer:  REORD           314       0.010       3.140     0.00
timer:  POISON           40       2.249      89.959     0.05
timer:  DHSCF3           39     123.351    4810.692     2.88
timer:  rhoofd           39      26.358    1027.952     0.62
timer:  cellXC           39       3.477     135.586     0.08
timer:  vmat             39      60.486    2358.957     1.41
timer:  MolMec            2       0.000       0.000     0.00
timer:  diagon           38    4241.354  161171.460    96.48
timer:  c-eigval       8899       6.687   59503.554    35.62
timer:  c-buildHS      8899       0.124    1107.393     0.66
timer:  cdiag         17677       6.917  122270.513    73.19
timer:  cdiag1        17677       0.426    7538.868     4.51
timer:  cdiag2        17677       1.911   33777.338    20.22
timer:  cdiag3        17677       3.950   69820.580    41.80
timer:  cdiag4        17677       0.224    3961.707     2.37
timer:  c-eigvec       8778       7.333   64369.986    38.53
timer:  c-buildD       8778       4.335   38055.979    22.78
timer:  DHSCF4            1      44.225      44.225     0.03
timer:  dfscf             1      41.539      41.539     0.02
timer:  overfsm           1       0.496       0.496     0.00
timer:  optical           1       5.115       5.115     0.00
  

elaps: ELAPSED times:
elaps:  Routine       Calls   Time/call    Tot.time        %
elaps:  siesta            1   20905.273   20905.273   100.00
elaps:  Setup             1       0.379       0.379     0.00
elaps:  bands             3      33.752     101.256     0.48
elaps:  writewave         1       0.002       0.002     0.00
elaps:  KSV_init          1       0.000       0.000     0.00
elaps:  IterMD            1   20802.964   20802.964    99.51
elaps:  hsparse           1       0.050       0.050     0.00
elaps:  overlap           1       0.976       0.976     0.00
elaps:  IterSCF          38     546.670   20773.452    99.37
elaps:  kinefsm           2       0.505       1.010     0.00
elaps:  nlefsm            2       2.558       5.116     0.02
elaps:  DHSCF            39      15.876     619.147     2.96
elaps:  DHSCF1            1       0.132       0.132     0.00
elaps:  DHSCF2            1       5.789       5.789     0.03
elaps:  REORD           314       0.001       0.414     0.00
elaps:  POISON           40       0.281      11.258     0.05
elaps:  DHSCF3           39      15.432     601.834     2.88
elaps:  rhoofd           39       7.087     276.408     1.32
elaps:  cellXC           39       0.434      16.931     0.08
elaps:  vmat             39       7.567     295.095     1.41
elaps:  MolMec            2       0.000       0.000     0.00
elaps:  diagon           38     530.795   20170.192    96.48
elaps:  c-eigval       8899       0.837    7444.977    35.61
elaps:  c-buildHS      8899       0.017     149.120     0.71
elaps:  cdiag         17677       0.859   15182.516    72.63
elaps:  cdiag1        17677       0.053     936.922     4.48
elaps:  cdiag2        17677       0.239    4226.447    20.22
elaps:  cdiag3        17677       0.495    8747.670    41.84
elaps:  cdiag4        17677       0.028     496.568     2.38
elaps:  c-eigvec       8778       0.908    7973.301    38.14
elaps:  c-buildD       8778       0.552    4846.056    23.18
elaps:  DHSCF4            1      11.110      11.110     0.05
elaps:  dfscf             1      10.574      10.574     0.05
elaps:  overfsm           1       0.058       0.058     0.00
elaps:  optical           1       0.000       0.000     0.00
  
>> End of run:  25-APR-2016   0:18:07
