Siesta Version:                                        siesta-3.2-pl-3
Architecture  : x86_64-unknown-linux-gnu--unknown
Compiler flags: mpiifort -g -O2 -fPIC -xSSE4.1 -fp-model source -shared-intel 
PARALLEL version

* Running on    8 nodes in parallel
>> Start of run:  27-APR-2016   3:31:11

                           ***********************       
                           *  WELCOME TO SIESTA  *       
                           ***********************       

reinit: Reading from standard input
************************** Dump of input data file ****************************
#(1) General system descriptors
SystemName            GRP_doping    # Descriptive name of the system
SystemLabel           GRP_doping    # Short name for naming files
%include STRUCT.fdf
%include KPT.fdf
%include BASIS.fdf
#%include TS.fdf # for transiesta calculation
#(4) DFT, Grid, SCF
XC.functional         GGA           # LDA or GGA (default = LDA)
XC.authors            PBE           # CA (Ceperley-Aldr) = PZ
                                    #    (Perdew-Zunger) - LDA - Default
                                    # PW92 (Perdew-Wang-92) - LDA
                                    # PBE (Perdew-Burke-Ernzerhof) - GGA
MeshCutoff            200.000000    Ry      # Default: 50.0 Ry ~ 0.444 Bohr
                                    #         100.0 Ry ~ 0.314 Bohr
MaxSCFIterations      500           # Default: 50
DM.MixingWeight       0.05          # Default: 0.25
DM.NumberPulay        10            # Default: 0
DM.PulayOnFile        F             # SystemLabel.P1, SystemLabel.P2
DM.Tolerance          1.d-4         # Default: 1.d-4
DM.UseSaveDM          .true.        # because of the bug
SCFMustConverge       .true.
NeglNonOverlapInt     F             # Default: F
#(5) Eigenvalue problem: order-N or diagonalization
SolutionMethod        Diagon        # or Transiesta
ElectronicTemperature 300.0 K       # Default: 300.0 K
#(6) Molecular dynamics and relaxations
#MD.TypeOfRun          CG            # Type of dynamics:
#MD.VariableCell       F
#MD.NumCGsteps         0           # 0 for single-point / 100 for gopt
#MD.MaxCGDispl         0.2 Bohr      # Default: 0.2 Bohr
#MD.MaxForceTol        0.02 eV/Ang   # Default: 0.04 eV/Ang
#MD.MaxStressTol       1.0 GPa       # Default: 1.0 GPa
# Geometry Constraints
#%block GeometryConstraints
#	position from 1 to 44
#%endblock GeometryConstraints
BandLinesScale   pi/a
%block BandLines
 1   0.00000000  0.00000000  0.00000000
50   0.00000000  0.07809418  0.00000000
50   0.04509075  0.07809242  0.00000000
20   0.00000000  0.00000000  0.00000000
%endblock BandLines
************************** End of input data file *****************************

reinit: -----------------------------------------------------------------------
reinit: System Name: GRP_doping
reinit: -----------------------------------------------------------------------
reinit: System Label: GRP_doping                                                  
reinit: -----------------------------------------------------------------------

initatom: Reading input for the pseudopotentials and atomic orbitals ----------
 Species number:            1  Label: B Atomic number:           5
 Species number:            2  Label: C Atomic number:           6
Ground state valence configuration:   2s02  2p01
Reading pseudopotential information in formatted form from B.psf

Valence configuration for pseudopotential generation:
2s( 2.00) rc: 1.74
2p( 1.00) rc: 1.74
3d( 0.00) rc: 1.74
4f( 0.00) rc: 1.74
Ground state valence configuration:   2s02  2p02
Reading pseudopotential information in formatted form from C.psf

Valence configuration for pseudopotential generation:
2s( 2.00) rc: 1.54
2p( 2.00) rc: 1.54
3d( 0.00) rc: 1.54
4f( 0.00) rc: 1.54
For B, standard SIESTA heuristics set lmxkb to 3
 (one more than the basis l, including polarization orbitals).
Use PS.lmax or PS.KBprojectors blocks to override.
For C, standard SIESTA heuristics set lmxkb to 3
 (one more than the basis l, including polarization orbitals).
Use PS.lmax or PS.KBprojectors blocks to override.

<basis_specs>
===============================================================================
B                    Z=   5    Mass=  10.810        Charge= 0.17977+309
Lmxo=1 Lmxkb= 3    BasisType=split      Semic=F
L=0  Nsemic=0  Cnfigmx=2
          n=1  nzeta=2  polorb=0
            splnorm:   0.15000    
               vcte:    0.0000    
               rinn:    0.0000    
                rcs:    0.0000      0.0000    
            lambdas:    1.0000      1.0000    
L=1  Nsemic=0  Cnfigmx=2
          n=1  nzeta=2  polorb=1
            splnorm:   0.15000    
               vcte:    0.0000    
               rinn:    0.0000    
                rcs:    0.0000      0.0000    
            lambdas:    1.0000      1.0000    
-------------------------------------------------------------------------------
L=0  Nkbl=1  erefs: 0.17977+309
L=1  Nkbl=1  erefs: 0.17977+309
L=2  Nkbl=1  erefs: 0.17977+309
L=3  Nkbl=1  erefs: 0.17977+309
===============================================================================
</basis_specs>

atom: Called for B                     (Z =   5)

read_vps: Pseudopotential generation method:
read_vps: ATM3      Troullier-Martins                       
Total valence charge:    3.00000

read_vps: Pseudopotential includes a core correction:
read_vps: Pseudo-core for xc-correction

xc_check: Exchange-correlation functional:
xc_check: GGA Perdew, Burke & Ernzerhof 1996
V l=0 = -2*Zval/r beyond r=  1.7165
V l=1 = -2*Zval/r beyond r=  1.7165
V l=2 = -2*Zval/r beyond r=  1.7165
V l=3 = -2*Zval/r beyond r=  1.6951
All V_l potentials equal beyond r=  1.7165
This should be close to max(r_c) in ps generation
All pots = -2*Zval/r beyond r=  1.7165

VLOCAL1: 99.0% of the norm of Vloc inside     14.733 Ry
VLOCAL1: 99.9% of the norm of Vloc inside     33.577 Ry
atom: Maximum radius for 4*pi*r*r*local-pseudopot. charge    2.04484
atom: Maximum radius for r*vlocal+2*Zval:    1.75994
GHOST: No ghost state for L =  0
GHOST: No ghost state for L =  1
GHOST: No ghost state for L =  2
GHOST: No ghost state for L =  3

KBgen: Kleinman-Bylander projectors: 
   l= 0   rc=  1.897051   el= -0.693730   Ekb=  4.595746   kbcos=  0.286105
   l= 1   rc=  1.920920   el= -0.265236   Ekb= -2.350715   kbcos= -0.315747
   l= 2   rc=  2.044840   el=  0.002055   Ekb= -0.690767   kbcos= -0.013822
   l= 3   rc=  2.149707   el=  0.003188   Ekb= -0.315358   kbcos= -0.002055

KBgen: Total number of  Kleinman-Bylander projectors:   16
atom: -------------------------------------------------------------------------

atom: SANKEY-TYPE ORBITALS:
atom: Selected multiple-zeta basis: split     

SPLIT: Orbitals with angular momentum L= 0

SPLIT: Basis orbitals for state 2s

SPLIT: PAO cut-off radius determined from an
SPLIT: energy shift=  0.007350 Ry

   izeta = 1
                 lambda =    1.000000
                     rc =    5.422032
                 energy =   -0.686029
                kinetic =    0.576707
    potential(screened) =   -1.262736
       potential(ionic) =   -3.271094

   izeta = 2
                 rmatch =    4.222573
              splitnorm =    0.150000
                 energy =   -0.602132
                kinetic =    0.858975
    potential(screened) =   -1.461107
       potential(ionic) =   -3.582536

SPLIT: Orbitals with angular momentum L= 1

SPLIT: Basis orbitals for state 2p

SPLIT: PAO cut-off radius determined from an
SPLIT: energy shift=  0.007350 Ry

   izeta = 1
                 lambda =    1.000000
                     rc =    6.790259
                 energy =   -0.258578
                kinetic =    1.481412
    potential(screened) =   -1.739989
       potential(ionic) =   -3.657461

   izeta = 2
                 rmatch =    4.608740
              splitnorm =    0.150000
                 energy =   -0.173757
                kinetic =    2.186690
    potential(screened) =   -2.360447
       potential(ionic) =   -4.464260

POLgen: Perturbative polarization orbital with L=  2

POLgen: Polarization orbital for state 2p

   izeta = 1
                     rc =    6.790259
                 energy =    0.684082
                kinetic =    1.471481
    potential(screened) =   -0.787399
       potential(ionic) =   -2.406985
atom: Total number of Sankey-type orbitals: 13

atm_pop: Valence configuration (for local Pseudopot. screening):
 2s( 2.00)                                                            
 2p( 1.00)                                                            
Vna: chval, zval:    3.00000   3.00000

Vna:  Cut-off radius for the neutral-atom potential:   6.790259
comcore: Pseudo-core radius Rcore=  2.122997

atom: _________________________________________________________________________

<basis_specs>
===============================================================================
C                    Z=   6    Mass=  12.010        Charge= 0.17977+309
Lmxo=1 Lmxkb= 3    BasisType=split      Semic=F
L=0  Nsemic=0  Cnfigmx=2
          n=1  nzeta=2  polorb=0
            splnorm:   0.15000    
               vcte:    0.0000    
               rinn:    0.0000    
                rcs:    0.0000      0.0000    
            lambdas:    1.0000      1.0000    
L=1  Nsemic=0  Cnfigmx=2
          n=1  nzeta=2  polorb=1
            splnorm:   0.15000    
               vcte:    0.0000    
               rinn:    0.0000    
                rcs:    0.0000      0.0000    
            lambdas:    1.0000      1.0000    
-------------------------------------------------------------------------------
L=0  Nkbl=1  erefs: 0.17977+309
L=1  Nkbl=1  erefs: 0.17977+309
L=2  Nkbl=1  erefs: 0.17977+309
L=3  Nkbl=1  erefs: 0.17977+309
===============================================================================
</basis_specs>

atom: Called for C                     (Z =   6)

read_vps: Pseudopotential generation method:
read_vps: ATM3      Troullier-Martins                       
Total valence charge:    4.00000

read_vps: Pseudopotential includes a core correction:
read_vps: Pseudo-core for xc-correction

xc_check: Exchange-correlation functional:
xc_check: GGA Perdew, Burke & Ernzerhof 1996
V l=0 = -2*Zval/r beyond r=  1.5227
V l=1 = -2*Zval/r beyond r=  1.5227
V l=2 = -2*Zval/r beyond r=  1.5227
V l=3 = -2*Zval/r beyond r=  1.5038
All V_l potentials equal beyond r=  1.5227
This should be close to max(r_c) in ps generation
All pots = -2*Zval/r beyond r=  1.5227

VLOCAL1: 99.0% of the norm of Vloc inside     18.722 Ry
VLOCAL1: 99.9% of the norm of Vloc inside     42.668 Ry
atom: Maximum radius for 4*pi*r*r*local-pseudopot. charge    1.83678
atom: Maximum radius for r*vlocal+2*Zval:    1.58088
GHOST: No ghost state for L =  0
GHOST: No ghost state for L =  1
GHOST: No ghost state for L =  2
GHOST: No ghost state for L =  3

KBgen: Kleinman-Bylander projectors: 
   l= 0   rc=  1.704034   el= -1.009801   Ekb=  5.335044   kbcos=  0.316824
   l= 1   rc=  1.704034   el= -0.388707   Ekb= -3.785862   kbcos= -0.366464
   l= 2   rc=  1.791422   el=  0.001971   Ekb= -0.970471   kbcos= -0.009212
   l= 3   rc=  1.859892   el=  0.003065   Ekb= -0.399525   kbcos= -0.001223

KBgen: Total number of  Kleinman-Bylander projectors:   16
atom: -------------------------------------------------------------------------

atom: SANKEY-TYPE ORBITALS:
atom: Selected multiple-zeta basis: split     

SPLIT: Orbitals with angular momentum L= 0

SPLIT: Basis orbitals for state 2s

SPLIT: PAO cut-off radius determined from an
SPLIT: energy shift=  0.007350 Ry

   izeta = 1
                 lambda =    1.000000
                     rc =    4.632753
                 energy =   -1.002270
                kinetic =    0.855760
    potential(screened) =   -1.858031
       potential(ionic) =   -5.417575

   izeta = 2
                 rmatch =    3.431921
              splitnorm =    0.150000
                 energy =   -0.867111
                kinetic =    1.300804
    potential(screened) =   -2.167915
       potential(ionic) =   -5.962684

SPLIT: Orbitals with angular momentum L= 1

SPLIT: Basis orbitals for state 2p

SPLIT: PAO cut-off radius determined from an
SPLIT: energy shift=  0.007350 Ry

   izeta = 1
                 lambda =    1.000000
                     rc =    5.658549
                 energy =   -0.381140
                kinetic =    2.399701
    potential(screened) =   -2.780841
       potential(ionic) =   -6.206085

   izeta = 2
                 rmatch =    3.653288
              splitnorm =    0.150000
                 energy =   -0.249149
                kinetic =    3.542762
    potential(screened) =   -3.791911
       potential(ionic) =   -7.581078

POLgen: Perturbative polarization orbital with L=  2

POLgen: Polarization orbital for state 2p

   izeta = 1
                     rc =    5.658549
                 energy =    1.109913
                kinetic =    2.304789
    potential(screened) =   -1.194876
       potential(ionic) =   -4.013592
atom: Total number of Sankey-type orbitals: 13

atm_pop: Valence configuration (for local Pseudopot. screening):
 2s( 2.00)                                                            
 2p( 2.00)                                                            
Vna: chval, zval:    4.00000   4.00000

Vna:  Cut-off radius for the neutral-atom potential:   5.658549
comcore: Pseudo-core radius Rcore=  1.791422

atom: _________________________________________________________________________

prinput: Basis input ----------------------------------------------------------

PAO.BasisType split     

%block ChemicalSpeciesLabel
    1    5 B                       # Species index, atomic number, species label
    2    6 C                       # Species index, atomic number, species label
%endblock ChemicalSpeciesLabel

%block PAO.Basis                 # Define Basis set
B                     2                    # Species label, number of l-shells
 n=2   0   2                         # n, l, Nzeta 
   5.422      4.223   
   1.000      1.000   
 n=2   1   2 P   1                   # n, l, Nzeta, Polarization, NzetaPol
   6.790      4.609   
   1.000      1.000   
C                     2                    # Species label, number of l-shells
 n=2   0   2                         # n, l, Nzeta 
   4.633      3.432   
   1.000      1.000   
 n=2   1   2 P   1                   # n, l, Nzeta, Polarization, NzetaPol
   5.659      3.653   
   1.000      1.000   
%endblock PAO.Basis

prinput: ----------------------------------------------------------------------

coor:   Atomic-coordinates input format  =     Fractional

siesta: Atomic coordinates (Bohr) and species
siesta:     -0.02582   5.28395   0.00000  1        1
siesta:      2.30256   6.62836   0.00000  1        2
siesta:      2.30256   9.31683   0.00000  1        3
siesta:     -2.35420   6.62836   0.00000  1        4
siesta:     -2.35420   9.31683   0.00000  1        5
siesta:     -0.02582  10.66124   0.00000  1        6
siesta:     -0.02582  21.41544   0.00000  1        7
siesta:      2.30256  22.75985   0.00000  1        8
siesta:      2.30256  25.44831   0.00000  1        9
siesta:     -2.35420  22.75985   0.00000  1       10
siesta:     -2.35420  25.44831   0.00000  1       11
siesta:     -9.33934  18.72698   0.00000  1       12
siesta:     -9.33934  21.41544   0.00000  1       13
siesta:     -7.01096  22.75985   0.00000  1       14
siesta:     -7.01096  25.44831   0.00000  1       15
siesta:    -11.66772  22.75985   0.00000  1       16
siesta:    -11.66772  25.44831   0.00000  1       17
siesta:     -9.33934  26.79272   0.00000  1       18
siesta:     -9.33934  29.48119   0.00000  1       19
siesta:     -0.02582  26.79272   0.00000  1       20
siesta:     -0.02582   2.59549   0.00000  2       21
siesta:     -2.35420  38.89134   0.00000  2       22
siesta:     -2.35420  41.57980   0.00000  2       23
siesta:      2.30256  38.89134   0.00000  2       24
siesta:      2.30256  41.57980   0.00000  2       25
siesta:      4.63094  34.85847   0.00000  2       26
siesta:      4.63094  37.54693   0.00000  2       27
siesta:      6.95932  30.82560   0.00000  2       28
siesta:      6.95932  33.51406   0.00000  2       29
siesta:      9.28770  26.79272   0.00000  2       30
siesta:      9.28770  29.48119   0.00000  2       31
siesta:     -4.68258  34.85847   0.00000  2       32
siesta:     -4.68258  37.54693   0.00000  2       33
siesta:      4.63094  10.66124   0.00000  2       34
siesta:      4.63094  13.34970   0.00000  2       35
siesta:      6.95932  14.69411   0.00000  2       36
siesta:      6.95932  17.38257   0.00000  2       37
siesta:      9.28770  18.72698   0.00000  2       38
siesta:      9.28770  21.41544   0.00000  2       39
siesta:     11.61608  22.75985   0.00000  2       40
siesta:     11.61608  25.44831   0.00000  2       41
siesta:     -0.02582  13.34970   0.00000  2       42
siesta:      2.30256  14.69411   0.00000  2       43
siesta:      2.30256  17.38257   0.00000  2       44
siesta:      4.63094  18.72698   0.00000  2       45
siesta:      4.63094  21.41544   0.00000  2       46
siesta:      6.95932  22.75985   0.00000  2       47
siesta:      6.95932  25.44831   0.00000  2       48
siesta:     -4.68258  10.66124   0.00000  2       49
siesta:     -4.68258  13.34970   0.00000  2       50
siesta:     -2.35420  14.69411   0.00000  2       51
siesta:     -2.35420  17.38257   0.00000  2       52
siesta:     -0.02582  18.72698   0.00000  2       53
siesta:     -7.01096  14.69411   0.00000  2       54
siesta:     -7.01096  17.38257   0.00000  2       55
siesta:     -4.68258  18.72698   0.00000  2       56
siesta:     -4.68258  21.41544   0.00000  2       57
siesta:      4.63094  26.79272   0.00000  2       58
siesta:      4.63094  29.48119   0.00000  2       59
siesta:     -0.02582  29.48119   0.00000  2       60
siesta:     -4.68258  26.79272   0.00000  2       61
siesta:     -4.68258  29.48119   0.00000  2       62
siesta:      2.30256  30.82560   0.00000  2       63
siesta:      2.30256  33.51406   0.00000  2       64
siesta:     -2.35420  30.82560   0.00000  2       65
siesta:     -2.35420  33.51406   0.00000  2       66
siesta:     -7.01096  30.82560   0.00000  2       67
siesta:     -7.01096  33.51406   0.00000  2       68
siesta:     -0.02582  34.85847   0.00000  2       69
siesta:     -0.02582  37.54693   0.00000  2       70
siesta:     -0.02582  42.92421   0.00000  2       71
siesta:     -0.02582  45.61267   0.00000  2       72

siesta: System type = slab      

initatomlists: Number of atoms, orbitals, and projectors:     72   936  1152

siesta: ******************** Simulation parameters ****************************
siesta:
siesta: The following are some of the parameters of the simulation.
siesta: A complete list of the parameters used, including default values,
siesta: can be found in file out.fdf
siesta:
redata: Non-Collinear-spin run           =     F
redata: SpinPolarized (Up/Down) run      =     F
redata: Number of spin components        =     1
redata: Long output                      =     F
redata: Number of Atomic Species         =        2
redata: Charge density info will appear in .RHO file
redata: Write Mulliken Pop.              =     NO
redata: Mesh Cutoff                      =   200.0000  Ry
redata: Net charge of the system         =     0.0000 |e|
redata: Max. number of SCF Iter          =      500
redata: SCF convergence failure will abort job
redata: Performing Pulay mixing using    =    10 iterations
redata: Mix DM in first SCF step ?       =     F
redata: Write Pulay info on disk?        =     F
redata: Discard 1st Pulay DM after  kick =     F
redata: New DM Mixing Weight             =     0.0500
redata: New DM Occupancy tolerance       = 0.000000000001
redata: No kicks to SCF
redata: DM Mixing Weight for Kicks       =     0.5000
redata: DM Tolerance for SCF             =     0.000100
redata: Require Energy convergence for SCF =     F
redata: DM Energy tolerance for SCF      =     0.000100 eV
redata: Require Harris convergence for SCF =     F
redata: DM Harris energy tolerance for SCF =     0.000100 eV
redata: Using Saved Data (generic)   =     F
redata: Use continuation files for DM    =     T
redata: Neglect nonoverlap interactions  =     F
redata: Method of Calculation            =     Diagonalization
redata: Divide and Conquer               =     T
redata: Electronic Temperature           =     0.0019  Ry
redata: Fix the spin of the system       =     F
redata: Dynamics option                  =     Verlet MD run
redata: Initial MD time step             =        1
redata:   Final MD time step             =        1
redata: Length of MD time step           =     1.0000  fs
redata: Initial Temperature of MD run    =     0.0000  K
redata: Perform a MD quench              =     F
redata: ***********************************************************************
Total number of electrons:   268.000000
Total ionic charge:   268.000000

* ProcessorY, Blocksize:    2  24

k-point displ. along   1 input, could be:     0.50    0.00
k-point displ. along   2 input, could be:     0.50    0.00
 Kpoints in:          231 . Kpoints trimmed:          231

siesta: k-grid: Number of k-points =   231
siesta: k-grid: Cutoff (effective) =     5.000 Ang
siesta: k-grid: Supercell and displacements
siesta: k-grid:   21   0   0      0.500
siesta: k-grid:    0  21   0      0.500
siesta: k-grid:    0   0   1      0.000
Naive supercell factors:     2    2    2

superc: Internal auxiliary supercell:     2 x     2 x     2  =       8
superc: Number of atoms, orbitals, and projectors:    576   7488   9216

* Maximum dynamic memory allocated =     4 MB

siesta:                 ==============================
                            Begin MD step =      1
                        ==============================

superc: Internal auxiliary supercell:     2 x     2 x     2  =       8
superc: Number of atoms, orbitals, and projectors:    576   7488   9216

outcell: Unit cell vectors (Ang):
       12.804619    7.392750    0.000000
        0.000000   14.785500    0.000000
        0.000000    0.000000   10.000000

outcell: Cell vector modules (Ang)   :   14.785500   14.785500   10.000000
outcell: Cell angles (23,13,12) (deg):     90.0000     90.0000     60.0000
outcell: Cell volume (Ang**3)        :   1893.2269
New_DM. Step:     1
Initializing Density Matrix...

InitMesh: MESH =   120 x   120 x    90 =     1296000
InitMesh: Mesh cutoff (required, used) =   200.000   223.865 Ry

* Maximum dynamic memory allocated =   228 MB

stepf: Fermi-Dirac step function

siesta: Program's energy decomposition (eV):
siesta: Ebs     =     -5540.555476
siesta: Eions   =     15841.876847
siesta: Ena     =      4253.813653
siesta: Ekin    =      5323.417823
siesta: Enl     =       812.960840
siesta: DEna    =        -0.000008
siesta: DUscf   =         0.000000
siesta: DUext   =         0.000000
siesta: Exc     =     -4198.237278
siesta: eta*DQ  =         0.000000
siesta: Emadel  =         0.000000
siesta: Emeta   =         0.000000
siesta: Emolmec =         0.000000
siesta: Ekinion =         0.000000
siesta: Eharris =     -9423.904715
siesta: Etot    =     -9649.921818
siesta: FreeEng =     -9649.921818

siesta: iscf   Eharris(eV)      E_KS(eV)   FreeEng(eV)   dDmax  Ef(eV)
siesta:    1    -9423.9047    -9649.9218    -9649.9218  7.0870 -8.4103
timer: Routine,Calls,Time,% = IterSCF        1    4497.415  99.74
elaps: Routine,Calls,Wall,% = IterSCF        1     562.862  99.74
siesta:    2   -14829.7503    -8521.4324    -8521.5003 22.6793 -3.3675
siesta:    3    -9392.6803    -9504.8046    -9504.8345  3.2082 -6.3934
siesta:    4    -9357.2788    -9406.5300    -9406.5796  1.8800 -5.3333
siesta:    5    -9307.9220    -9291.1452    -9291.1550  1.3866 -4.7583
siesta:    6    -9282.1838    -9270.9617    -9271.0154  1.2952 -4.7745
siesta:    7    -9266.5872    -9250.2938    -9250.3728  0.7028 -4.9946
siesta:    8    -9264.0778    -9245.5250    -9245.5642  1.0264 -4.9668
siesta:    9    -9262.5391    -9243.4568    -9243.5058  0.7693 -4.9985
siesta:   10    -9257.6840    -9238.4526    -9238.4982  0.8110 -5.0023
siesta:   11    -9257.4800    -9233.8979    -9233.9688  0.4912 -5.0117
siesta:   12    -9258.6987    -9232.3410    -9232.4013  0.7858 -4.9072
siesta:   13    -9260.1026    -9225.4143    -9225.4988  0.5699 -4.8997
siesta:   14    -9257.6858    -9225.8574    -9225.9178  0.4886 -4.9324
siesta:   15    -9257.0229    -9222.2669    -9222.3193  0.3440 -4.9169
siesta:   16    -9256.2350    -9226.2397    -9226.2929  0.3167 -4.9526
siesta:   17    -9256.0438    -9226.5865    -9226.6399  0.2203 -4.9748
siesta:   18    -9255.5589    -9232.6195    -9232.6715  0.3791 -4.9632
siesta:   19    -9255.3867    -9234.1327    -9234.2135  0.1737 -4.9999
siesta:   20    -9255.3181    -9243.4525    -9243.5351  0.4895 -4.9972
siesta:   21    -9255.2347    -9243.0343    -9243.1151  0.3536 -5.0021
siesta:   22    -9255.2484    -9246.6855    -9246.7750  0.4207 -5.0054
siesta:   23    -9255.2171    -9250.2327    -9250.3165  0.1871 -5.0185
siesta:   24    -9255.1435    -9250.0303    -9250.1296  0.1132 -5.0179
siesta:   25    -9255.1374    -9251.3218    -9251.4192  0.0585 -5.0234
siesta:   26    -9255.1163    -9251.8811    -9251.9768  0.0678 -5.0188
siesta:   27    -9255.1147    -9252.9336    -9253.0301  0.0372 -5.0212
siesta:   28    -9255.1062    -9253.3254    -9253.4197  0.0415 -5.0207
siesta:   29    -9255.0920    -9255.5795    -9255.6743  0.0798 -5.0189
siesta:   30    -9255.0875    -9255.4045    -9255.5026  0.0364 -5.0177
siesta:   31    -9255.0877    -9255.0797    -9255.1767  0.0298 -5.0146
siesta:   32    -9255.0872    -9255.0096    -9255.1055  0.0223 -5.0114
siesta:   33    -9255.0870    -9254.9861    -9255.0821  0.0202 -5.0110
siesta:   34    -9255.0862    -9254.8360    -9254.9319  0.0221 -5.0099
siesta:   35    -9255.0862    -9254.7484    -9254.8447  0.0178 -5.0101
siesta:   36    -9255.0865    -9254.5236    -9254.6198  0.0116 -5.0100
siesta:   37    -9255.0870    -9254.5491    -9254.6451  0.0077 -5.0111
siesta:   38    -9255.0867    -9254.6562    -9254.7519  0.0054 -5.0134
siesta:   39    -9255.0860    -9254.8134    -9254.9090  0.0093 -5.0140
siesta:   40    -9255.0865    -9254.8178    -9254.9138  0.0107 -5.0155
siesta:   41    -9255.0862    -9254.9190    -9255.0145  0.0013 -5.0156
siesta:   42    -9255.0864    -9254.9238    -9255.0196  0.0037 -5.0161
siesta:   43    -9255.0863    -9254.9161    -9255.0117  0.0009 -5.0156
siesta:   44    -9255.0863    -9254.9378    -9255.0335  0.0010 -5.0153
siesta:   45    -9255.0863    -9254.9555    -9255.0512  0.0008 -5.0152
siesta:   46    -9255.0862    -9254.9673    -9255.0631  0.0005 -5.0152
siesta:   47    -9255.0862    -9254.9814    -9255.0772  0.0007 -5.0151
siesta:   48    -9255.0863    -9255.0242    -9255.1200  0.0007 -5.0150
siesta:   49    -9255.0863    -9255.0498    -9255.1456  0.0003 -5.0148
siesta:   50    -9255.0862    -9255.0685    -9255.1642  0.0001 -5.0148
siesta:   51    -9255.0862    -9255.0683    -9255.1641  0.0002 -5.0147
siesta:   52    -9255.0862    -9255.0753    -9255.1711  0.0001 -5.0148

siesta: E_KS(eV) =            -9255.0787

siesta: E_KS - E_eggbox =     -9255.0787

siesta: Atomic forces (eV/Ang):
----------------------------------------
   Tot   -0.182248    0.072261    0.000000
----------------------------------------
   Max  569.801680
   Res  148.478572    sqrt( Sum f_i^2 / 3N )
----------------------------------------
   Max  569.801680    constrained

Stress-tensor-Voigt (kbar):     -759.20    -2682.03       -0.62       -0.66        0.00        0.00
(Free)E + p*V (eV/cell)    -7899.4904
Target enthalpy (eV/cell)    -9255.1745

siesta: Stress tensor (static) (eV/Ang**3):
        -0.473852   -0.000414    0.000000
        -0.000414   -1.673973    0.000000
         0.000000    0.000000   -0.000387

siesta: Pressure (static):       1147.28396724  kBar

siesta: Stress tensor (total) (eV/Ang**3):
        -0.473852   -0.000414    0.000000
        -0.000414   -1.673973    0.000000
         0.000000    0.000000   -0.000387

siesta: Pressure (total):       1147.28396724  kBar

siesta: Temp_ion =       0.000 K

* Maximum dynamic memory allocated =   245 MB
Computing bands...

siesta: Program's energy decomposition (eV):
siesta: Ebs     =     -4139.528042
siesta: Eions   =     15841.876847
siesta: Ena     =      4253.813653
siesta: Ekin    =      8202.214828
siesta: Enl     =      -820.069863
siesta: DEna    =      -784.757028
siesta: DUscf   =       106.127800
siesta: DUext   =         0.000000
siesta: Exc     =     -4370.531223
siesta: eta*DQ  =         0.000000
siesta: Emadel  =         0.000000
siesta: Emeta   =         0.000000
siesta: Emolmec =         0.000000
siesta: Ekinion =         0.000000
siesta: Eharris =     -9255.086222
siesta: Etot    =     -9255.078679
siesta: FreeEng =     -9255.174478

siesta: Final energy (eV):
siesta:  Band Struct. =   -4139.528042
siesta:       Kinetic =    8202.214828
siesta:       Hartree =   26790.512390
siesta:    Ext. field =       0.000000
siesta:   Exch.-corr. =   -4370.531223
siesta:  Ion-electron =  -61472.117148
siesta:       Ion-ion =   21594.842472
siesta:       Ekinion =       0.000000
siesta:         Total =   -9255.078679

siesta: Atomic forces (eV/Ang):
siesta:      1   -0.380644 -105.769012    0.000000
siesta:      2   -3.597853  396.433133    0.000000
siesta:      3   -2.191463 -105.567232    0.000000
siesta:      4    3.426381  396.332929    0.000000
siesta:      5    2.636433 -105.553679    0.000000
siesta:      6   -0.243141  388.782290    0.000000
siesta:      7    0.285234   -4.188022    0.000000
siesta:      8    3.439362   -2.928534    0.000000
siesta:      9    3.308544    3.070238    0.000000
siesta:     10   -3.819375   -3.469702    0.000000
siesta:     11   -3.730418    3.603589    0.000000
siesta:     12    0.183766   -4.397571    0.000000
siesta:     13   -5.417014   -1.020877    0.000000
siesta:     14    3.577575   -3.800503    0.000000
siesta:     15    3.950712    3.738957    0.000000
siesta:     16   -5.772058   -3.036767    0.000000
siesta:     17   -5.716350    2.899977    0.000000
siesta:     18   -5.407253    1.263661    0.000000
siesta:     19    0.246604    4.300382    0.000000
siesta:     20    0.391359    3.835796    0.000000
siesta:     21    0.765566  553.926206    0.000000
siesta:     22   -1.115836  127.107585    0.000000
siesta:     23  -18.754395 -551.661015    0.000000
siesta:     24    0.506441  127.070143    0.000000
siesta:     25   18.625033 -551.142296    0.000000
siesta:     26   24.649131    1.261377    0.000000
siesta:     27   35.194945 -550.655238    0.000000
siesta:     28    2.511125    0.063217    0.000000
siesta:     29   -1.967358    2.891866    0.000000
siesta:     30    2.134352    1.577328    0.000000
siesta:     31   -0.847608    0.802040    0.000000
siesta:     32  -23.936992    2.079471    0.000000
siesta:     33  -35.097485 -550.440555    0.000000
siesta:     34   27.962013  543.844680    0.000000
siesta:     35   26.949458   -6.335689    0.000000
siesta:     36   -2.546585   -2.299485    0.000000
siesta:     37    2.204673   -0.129939    0.000000
siesta:     38   -0.850705   -0.718866    0.000000
siesta:     39    2.048674   -1.640720    0.000000
siesta:     40   -0.136832    6.439623    0.000000
siesta:     41   -0.306262   -6.472868    0.000000
siesta:     42   -0.017910 -130.518101    0.000000
siesta:     43   20.370866  556.093148    0.000000
siesta:     44   22.406973   -6.123212    0.000000
siesta:     45   -1.036741    1.893882    0.000000
siesta:     46    2.848417   -1.564944    0.000000
siesta:     47   -0.000353    0.003531    0.000000
siesta:     48   -0.083785   -0.058306    0.000000
siesta:     49  -28.138686  543.905045    0.000000
siesta:     50  -26.327187   -6.751783    0.000000
siesta:     51  -20.383965  556.393667    0.000000
siesta:     52  -22.489062   -6.205134    0.000000
siesta:     53   -0.499316  559.849636    0.000000
siesta:     54    2.272145   -1.743540    0.000000
siesta:     55    0.245032   -3.484253    0.000000
siesta:     56    1.004895    2.108158    0.000000
siesta:     57    1.034556   -2.946720    0.000000
siesta:     58    2.794535    1.373676    0.000000
siesta:     59   -1.152498   -1.362217    0.000000
siesta:     60   -0.707196 -569.801680    0.000000
siesta:     61    0.780457    2.857808    0.000000
siesta:     62    1.620990   -1.614967    0.000000
siesta:     63   18.941558    3.515983    0.000000
siesta:     64   31.376154 -410.147612    0.000000
siesta:     65  -19.429286    3.633295    0.000000
siesta:     66  -31.361933 -411.006034    0.000000
siesta:     67   -0.188610    3.777598    0.000000
siesta:     68    1.712417    1.884134    0.000000
siesta:     69    0.454500  123.426913    0.000000
siesta:     70    0.184985 -397.498160    0.000000
siesta:     71    0.045034  131.213714    0.000000
siesta:     72    0.379013 -551.127184    0.000000
siesta: ----------------------------------------
siesta:    Tot   -0.182248    0.072261    0.000000

siesta: Stress tensor (static) (eV/Ang**3):
siesta:    -0.473852   -0.000414    0.000000
siesta:    -0.000414   -1.673973    0.000000
siesta:     0.000000    0.000000   -0.000387

siesta: Cell volume =       1893.226884 Ang**3

siesta: Pressure (static):
siesta:                Solid            Molecule  Units
siesta:           0.00779892          0.11413631  Ry/Bohr**3
siesta:           0.71607059         10.47960786  eV/Ang**3
siesta:        1147.28396724      16790.36432909  kBar
(Free)E+ p_basis*V_orbitals  =       -9218.117793
(Free)Eharris+ p_basis*V_orbitals  =       -9218.128741

siesta: Electric dipole (a.u.)  =    0.000000    0.000000    0.000000
siesta: Electric dipole (Debye) =    0.000000    0.000000    0.000000

* Maximum dynamic memory allocated : Node    0 =   245 MB
* Maximum dynamic memory allocated : Node    1 =    86 MB
* Maximum dynamic memory allocated : Node    2 =    90 MB
* Maximum dynamic memory allocated : Node    3 =   233 MB
* Maximum dynamic memory allocated : Node    4 =   224 MB
* Maximum dynamic memory allocated : Node    5 =    82 MB
* Maximum dynamic memory allocated : Node    6 =    85 MB
* Maximum dynamic memory allocated : Node    7 =   206 MB

* Maximum memory occured during matrixMtoO                    

timer: CPU execution times:
timer:  Routine       Calls   Time/call    Tot.time        %
timer:  siesta            1  229669.235  229669.235   100.00
timer:  Setup             1       3.017       3.017     0.00
timer:  bands             3     269.438     808.313     0.35
timer:  writewave         1       0.019       0.019     0.00
timer:  KSV_init          1       0.000       0.000     0.00
timer:  IterMD            1  228852.070  228852.070    99.64
timer:  hsparse           1       0.390       0.390     0.00
timer:  overlap           1       7.789       7.789     0.00
timer:  IterSCF          52    4396.518  228618.920    99.54
timer:  kinefsm           2       4.039       8.077     0.00
timer:  nlefsm            2      21.479      42.958     0.02
timer:  DHSCF            53     124.279    6586.794     2.87
timer:  DHSCF1            1       1.002       1.002     0.00
timer:  DHSCF2            1      45.523      45.523     0.02
timer:  REORD           426       0.010       4.232     0.00
timer:  POISON           54       2.251     121.561     0.05
timer:  DHSCF3           53     122.536    6494.394     2.83
timer:  rhoofd           53      25.668    1360.389     0.59
timer:  cellXC           53       3.516     186.340     0.08
timer:  vmat             53      59.903    3174.841     1.38
timer:  MolMec            2       0.000       0.000     0.00
timer:  diagon           52    4270.984  222091.157    96.70
timer:  c-eigval      12133       6.678   81022.588    35.28
timer:  c-buildHS     12133       0.124    1499.688     0.65
timer:  cdiag         24145       6.898  166548.386    72.52
timer:  cdiag1        24145       0.428   10337.398     4.50
timer:  cdiag2        24145       1.907   46034.061    20.04
timer:  cdiag3        24145       3.941   95163.079    41.43
timer:  cdiag4        24145       0.224    5404.752     2.35
timer:  c-eigvec      12012       7.308   87782.174    38.22
timer:  c-buildD      12012       4.498   54026.358    23.52
timer:  DHSCF4            1      43.133      43.133     0.02
timer:  dfscf             1      40.469      40.469     0.02
timer:  overfsm           1       0.482       0.482     0.00
timer:  optical           1       5.088       5.088     0.00
  

elaps: ELAPSED times:
elaps:  Routine       Calls   Time/call    Tot.time        %
elaps:  siesta            1   28742.175   28742.175   100.00
elaps:  Setup             1       0.376       0.376     0.00
elaps:  bands             3      33.731     101.193     0.35
elaps:  writewave         1       0.002       0.002     0.00
elaps:  KSV_init          1       0.000       0.000     0.00
elaps:  IterMD            1   28639.933   28639.933    99.64
elaps:  hsparse           1       0.050       0.050     0.00
elaps:  overlap           1       0.975       0.975     0.00
elaps:  IterSCF          52     550.207   28610.767    99.54
elaps:  kinefsm           2       0.505       1.011     0.00
elaps:  nlefsm            2       2.809       5.617     0.02
elaps:  DHSCF            53      15.653     829.604     2.89
elaps:  DHSCF1            1       0.129       0.129     0.00
elaps:  DHSCF2            1       5.693       5.693     0.02
elaps:  REORD           426       0.001       0.577     0.00
elaps:  POISON           54       0.281      15.201     0.05
elaps:  DHSCF3           53      15.329     812.458     2.83
elaps:  rhoofd           53       7.060     374.191     1.30
elaps:  cellXC           53       0.439      23.270     0.08
elaps:  vmat             53       7.493     397.143     1.38
elaps:  MolMec            2       0.000       0.000     0.00
elaps:  diagon           52     534.524   27795.243    96.71
elaps:  c-eigval      12133       0.836   10137.446    35.27
elaps:  c-buildHS     12133       0.017     205.930     0.72
elaps:  cdiag         24145       0.850   20529.549    71.43
elaps:  cdiag1        24145       0.053    1279.186     4.45
elaps:  cdiag2        24145       0.239    5759.844    20.04
elaps:  cdiag3        24145       0.494   11923.019    41.48
elaps:  cdiag4        24145       0.029     688.673     2.40
elaps:  c-eigvec      12012       0.895   10747.667    37.39
elaps:  c-buildD      12012       0.583    7001.815    24.36
elaps:  DHSCF4            1      10.945      10.945     0.04
elaps:  dfscf             1      10.408      10.408     0.04
elaps:  overfsm           1       0.059       0.059     0.00
elaps:  optical           1       0.000       0.000     0.00
  
>> End of run:  27-APR-2016  11:30:13
