Siesta Version:                                        siesta-3.2-pl-3
Architecture  : x86_64-unknown-linux-gnu--unknown
Compiler flags: mpiifort -g -O2 -fPIC -xSSE4.1 -fp-model source -shared-intel 
PARALLEL version

* Running on    8 nodes in parallel
>> Start of run:  24-APR-2016  16:31:25

                           ***********************       
                           *  WELCOME TO SIESTA  *       
                           ***********************       

reinit: Reading from standard input
************************** Dump of input data file ****************************
#(1) General system descriptors
SystemName            GRP_doping    # Descriptive name of the system
SystemLabel           GRP_doping    # Short name for naming files
%include STRUCT.fdf
%include KPT.fdf
%include BASIS.fdf
#%include TS.fdf # for transiesta calculation
#(4) DFT, Grid, SCF
XC.functional         GGA           # LDA or GGA (default = LDA)
XC.authors            PBE           # CA (Ceperley-Aldr) = PZ
                                    #    (Perdew-Zunger) - LDA - Default
                                    # PW92 (Perdew-Wang-92) - LDA
                                    # PBE (Perdew-Burke-Ernzerhof) - GGA
MeshCutoff            200.000000    Ry      # Default: 50.0 Ry ~ 0.444 Bohr
                                    #         100.0 Ry ~ 0.314 Bohr
MaxSCFIterations      500           # Default: 50
DM.MixingWeight       0.05          # Default: 0.25
DM.NumberPulay        10            # Default: 0
DM.PulayOnFile        F             # SystemLabel.P1, SystemLabel.P2
DM.Tolerance          1.d-4         # Default: 1.d-4
DM.UseSaveDM          .true.        # because of the bug
SCFMustConverge       .true.
NeglNonOverlapInt     F             # Default: F
#(5) Eigenvalue problem: order-N or diagonalization
SolutionMethod        Diagon        # or Transiesta
ElectronicTemperature 300.0 K       # Default: 300.0 K
#(6) Molecular dynamics and relaxations
#MD.TypeOfRun          CG            # Type of dynamics:
#MD.VariableCell       F
#MD.NumCGsteps         0           # 0 for single-point / 100 for gopt
#MD.MaxCGDispl         0.2 Bohr      # Default: 0.2 Bohr
#MD.MaxForceTol        0.02 eV/Ang   # Default: 0.04 eV/Ang
#MD.MaxStressTol       1.0 GPa       # Default: 1.0 GPa
# Geometry Constraints
#%block GeometryConstraints
#	position from 1 to 44
#%endblock GeometryConstraints
BandLinesScale   pi/a
%block BandLines
 1   0.00000000  0.00000000  0.00000000
50   0.00000000  0.07809418  0.00000000
50   0.04509075  0.07809242  0.00000000
20   0.00000000  0.00000000  0.00000000
%endblock BandLines
************************** End of input data file *****************************

reinit: -----------------------------------------------------------------------
reinit: System Name: GRP_doping
reinit: -----------------------------------------------------------------------
reinit: System Label: GRP_doping                                                  
reinit: -----------------------------------------------------------------------

initatom: Reading input for the pseudopotentials and atomic orbitals ----------
 Species number:            1  Label: B Atomic number:           5
 Species number:            2  Label: C Atomic number:           6
Ground state valence configuration:   2s02  2p01
Reading pseudopotential information in formatted form from B.psf

Valence configuration for pseudopotential generation:
2s( 2.00) rc: 1.74
2p( 1.00) rc: 1.74
3d( 0.00) rc: 1.74
4f( 0.00) rc: 1.74
Ground state valence configuration:   2s02  2p02
Reading pseudopotential information in formatted form from C.psf

Valence configuration for pseudopotential generation:
2s( 2.00) rc: 1.54
2p( 2.00) rc: 1.54
3d( 0.00) rc: 1.54
4f( 0.00) rc: 1.54
For B, standard SIESTA heuristics set lmxkb to 3
 (one more than the basis l, including polarization orbitals).
Use PS.lmax or PS.KBprojectors blocks to override.
For C, standard SIESTA heuristics set lmxkb to 3
 (one more than the basis l, including polarization orbitals).
Use PS.lmax or PS.KBprojectors blocks to override.

<basis_specs>
===============================================================================
B                    Z=   5    Mass=  10.810        Charge= 0.17977+309
Lmxo=1 Lmxkb= 3    BasisType=split      Semic=F
L=0  Nsemic=0  Cnfigmx=2
          n=1  nzeta=2  polorb=0
            splnorm:   0.15000    
               vcte:    0.0000    
               rinn:    0.0000    
                rcs:    0.0000      0.0000    
            lambdas:    1.0000      1.0000    
L=1  Nsemic=0  Cnfigmx=2
          n=1  nzeta=2  polorb=1
            splnorm:   0.15000    
               vcte:    0.0000    
               rinn:    0.0000    
                rcs:    0.0000      0.0000    
            lambdas:    1.0000      1.0000    
-------------------------------------------------------------------------------
L=0  Nkbl=1  erefs: 0.17977+309
L=1  Nkbl=1  erefs: 0.17977+309
L=2  Nkbl=1  erefs: 0.17977+309
L=3  Nkbl=1  erefs: 0.17977+309
===============================================================================
</basis_specs>

atom: Called for B                     (Z =   5)

read_vps: Pseudopotential generation method:
read_vps: ATM3      Troullier-Martins                       
Total valence charge:    3.00000

read_vps: Pseudopotential includes a core correction:
read_vps: Pseudo-core for xc-correction

xc_check: Exchange-correlation functional:
xc_check: GGA Perdew, Burke & Ernzerhof 1996
V l=0 = -2*Zval/r beyond r=  1.7165
V l=1 = -2*Zval/r beyond r=  1.7165
V l=2 = -2*Zval/r beyond r=  1.7165
V l=3 = -2*Zval/r beyond r=  1.6951
All V_l potentials equal beyond r=  1.7165
This should be close to max(r_c) in ps generation
All pots = -2*Zval/r beyond r=  1.7165

VLOCAL1: 99.0% of the norm of Vloc inside     14.733 Ry
VLOCAL1: 99.9% of the norm of Vloc inside     33.577 Ry
atom: Maximum radius for 4*pi*r*r*local-pseudopot. charge    2.04484
atom: Maximum radius for r*vlocal+2*Zval:    1.75994
GHOST: No ghost state for L =  0
GHOST: No ghost state for L =  1
GHOST: No ghost state for L =  2
GHOST: No ghost state for L =  3

KBgen: Kleinman-Bylander projectors: 
   l= 0   rc=  1.897051   el= -0.693730   Ekb=  4.595746   kbcos=  0.286105
   l= 1   rc=  1.920920   el= -0.265236   Ekb= -2.350715   kbcos= -0.315747
   l= 2   rc=  2.044840   el=  0.002055   Ekb= -0.690767   kbcos= -0.013822
   l= 3   rc=  2.149707   el=  0.003188   Ekb= -0.315358   kbcos= -0.002055

KBgen: Total number of  Kleinman-Bylander projectors:   16
atom: -------------------------------------------------------------------------

atom: SANKEY-TYPE ORBITALS:
atom: Selected multiple-zeta basis: split     

SPLIT: Orbitals with angular momentum L= 0

SPLIT: Basis orbitals for state 2s

SPLIT: PAO cut-off radius determined from an
SPLIT: energy shift=  0.007350 Ry

   izeta = 1
                 lambda =    1.000000
                     rc =    5.422032
                 energy =   -0.686029
                kinetic =    0.576707
    potential(screened) =   -1.262736
       potential(ionic) =   -3.271094

   izeta = 2
                 rmatch =    4.222573
              splitnorm =    0.150000
                 energy =   -0.602132
                kinetic =    0.858975
    potential(screened) =   -1.461107
       potential(ionic) =   -3.582536

SPLIT: Orbitals with angular momentum L= 1

SPLIT: Basis orbitals for state 2p

SPLIT: PAO cut-off radius determined from an
SPLIT: energy shift=  0.007350 Ry

   izeta = 1
                 lambda =    1.000000
                     rc =    6.790259
                 energy =   -0.258578
                kinetic =    1.481412
    potential(screened) =   -1.739989
       potential(ionic) =   -3.657461

   izeta = 2
                 rmatch =    4.608740
              splitnorm =    0.150000
                 energy =   -0.173757
                kinetic =    2.186690
    potential(screened) =   -2.360447
       potential(ionic) =   -4.464260

POLgen: Perturbative polarization orbital with L=  2

POLgen: Polarization orbital for state 2p

   izeta = 1
                     rc =    6.790259
                 energy =    0.684082
                kinetic =    1.471481
    potential(screened) =   -0.787399
       potential(ionic) =   -2.406985
atom: Total number of Sankey-type orbitals: 13

atm_pop: Valence configuration (for local Pseudopot. screening):
 2s( 2.00)                                                            
 2p( 1.00)                                                            
Vna: chval, zval:    3.00000   3.00000

Vna:  Cut-off radius for the neutral-atom potential:   6.790259
comcore: Pseudo-core radius Rcore=  2.122997

atom: _________________________________________________________________________

<basis_specs>
===============================================================================
C                    Z=   6    Mass=  12.010        Charge= 0.17977+309
Lmxo=1 Lmxkb= 3    BasisType=split      Semic=F
L=0  Nsemic=0  Cnfigmx=2
          n=1  nzeta=2  polorb=0
            splnorm:   0.15000    
               vcte:    0.0000    
               rinn:    0.0000    
                rcs:    0.0000      0.0000    
            lambdas:    1.0000      1.0000    
L=1  Nsemic=0  Cnfigmx=2
          n=1  nzeta=2  polorb=1
            splnorm:   0.15000    
               vcte:    0.0000    
               rinn:    0.0000    
                rcs:    0.0000      0.0000    
            lambdas:    1.0000      1.0000    
-------------------------------------------------------------------------------
L=0  Nkbl=1  erefs: 0.17977+309
L=1  Nkbl=1  erefs: 0.17977+309
L=2  Nkbl=1  erefs: 0.17977+309
L=3  Nkbl=1  erefs: 0.17977+309
===============================================================================
</basis_specs>

atom: Called for C                     (Z =   6)

read_vps: Pseudopotential generation method:
read_vps: ATM3      Troullier-Martins                       
Total valence charge:    4.00000

read_vps: Pseudopotential includes a core correction:
read_vps: Pseudo-core for xc-correction

xc_check: Exchange-correlation functional:
xc_check: GGA Perdew, Burke & Ernzerhof 1996
V l=0 = -2*Zval/r beyond r=  1.5227
V l=1 = -2*Zval/r beyond r=  1.5227
V l=2 = -2*Zval/r beyond r=  1.5227
V l=3 = -2*Zval/r beyond r=  1.5038
All V_l potentials equal beyond r=  1.5227
This should be close to max(r_c) in ps generation
All pots = -2*Zval/r beyond r=  1.5227

VLOCAL1: 99.0% of the norm of Vloc inside     18.722 Ry
VLOCAL1: 99.9% of the norm of Vloc inside     42.668 Ry
atom: Maximum radius for 4*pi*r*r*local-pseudopot. charge    1.83678
atom: Maximum radius for r*vlocal+2*Zval:    1.58088
GHOST: No ghost state for L =  0
GHOST: No ghost state for L =  1
GHOST: No ghost state for L =  2
GHOST: No ghost state for L =  3

KBgen: Kleinman-Bylander projectors: 
   l= 0   rc=  1.704034   el= -1.009801   Ekb=  5.335044   kbcos=  0.316824
   l= 1   rc=  1.704034   el= -0.388707   Ekb= -3.785862   kbcos= -0.366464
   l= 2   rc=  1.791422   el=  0.001971   Ekb= -0.970471   kbcos= -0.009212
   l= 3   rc=  1.859892   el=  0.003065   Ekb= -0.399525   kbcos= -0.001223

KBgen: Total number of  Kleinman-Bylander projectors:   16
atom: -------------------------------------------------------------------------

atom: SANKEY-TYPE ORBITALS:
atom: Selected multiple-zeta basis: split     

SPLIT: Orbitals with angular momentum L= 0

SPLIT: Basis orbitals for state 2s

SPLIT: PAO cut-off radius determined from an
SPLIT: energy shift=  0.007350 Ry

   izeta = 1
                 lambda =    1.000000
                     rc =    4.632753
                 energy =   -1.002270
                kinetic =    0.855760
    potential(screened) =   -1.858031
       potential(ionic) =   -5.417575

   izeta = 2
                 rmatch =    3.431921
              splitnorm =    0.150000
                 energy =   -0.867111
                kinetic =    1.300804
    potential(screened) =   -2.167915
       potential(ionic) =   -5.962684

SPLIT: Orbitals with angular momentum L= 1

SPLIT: Basis orbitals for state 2p

SPLIT: PAO cut-off radius determined from an
SPLIT: energy shift=  0.007350 Ry

   izeta = 1
                 lambda =    1.000000
                     rc =    5.658549
                 energy =   -0.381140
                kinetic =    2.399701
    potential(screened) =   -2.780841
       potential(ionic) =   -6.206085

   izeta = 2
                 rmatch =    3.653288
              splitnorm =    0.150000
                 energy =   -0.249149
                kinetic =    3.542762
    potential(screened) =   -3.791911
       potential(ionic) =   -7.581078

POLgen: Perturbative polarization orbital with L=  2

POLgen: Polarization orbital for state 2p

   izeta = 1
                     rc =    5.658549
                 energy =    1.109913
                kinetic =    2.304789
    potential(screened) =   -1.194876
       potential(ionic) =   -4.013592
atom: Total number of Sankey-type orbitals: 13

atm_pop: Valence configuration (for local Pseudopot. screening):
 2s( 2.00)                                                            
 2p( 2.00)                                                            
Vna: chval, zval:    4.00000   4.00000

Vna:  Cut-off radius for the neutral-atom potential:   5.658549
comcore: Pseudo-core radius Rcore=  1.791422

atom: _________________________________________________________________________

prinput: Basis input ----------------------------------------------------------

PAO.BasisType split     

%block ChemicalSpeciesLabel
    1    5 B                       # Species index, atomic number, species label
    2    6 C                       # Species index, atomic number, species label
%endblock ChemicalSpeciesLabel

%block PAO.Basis                 # Define Basis set
B                     2                    # Species label, number of l-shells
 n=2   0   2                         # n, l, Nzeta 
   5.422      4.223   
   1.000      1.000   
 n=2   1   2 P   1                   # n, l, Nzeta, Polarization, NzetaPol
   6.790      4.609   
   1.000      1.000   
C                     2                    # Species label, number of l-shells
 n=2   0   2                         # n, l, Nzeta 
   4.633      3.432   
   1.000      1.000   
 n=2   1   2 P   1                   # n, l, Nzeta, Polarization, NzetaPol
   5.659      3.653   
   1.000      1.000   
%endblock PAO.Basis

prinput: ----------------------------------------------------------------------

coor:   Atomic-coordinates input format  =     Fractional

siesta: Atomic coordinates (Bohr) and species
siesta:     -2.35420  38.89134   0.00000  1        1
siesta:     -2.35420  41.57980   0.00000  1        2
siesta:      2.30256  38.89134   0.00000  1        3
siesta:      2.30256  41.57980   0.00000  1        4
siesta:     -4.68258  34.85847   0.00000  1        5
siesta:     -4.68258  37.54693   0.00000  1        6
siesta:      2.30256  22.75985   0.00000  1        7
siesta:     -9.33934  21.41544   0.00000  1        8
siesta:     -7.01096  22.75985   0.00000  1        9
siesta:     -7.01096  25.44831   0.00000  1       10
siesta:    -11.66772  22.75985   0.00000  1       11
siesta:    -11.66772  25.44831   0.00000  1       12
siesta:     -9.33934  26.79272   0.00000  1       13
siesta:     -9.33934  29.48119   0.00000  1       14
siesta:     -4.68258  26.79272   0.00000  1       15
siesta:     -4.68258  29.48119   0.00000  1       16
siesta:     -2.35420  30.82560   0.00000  1       17
siesta:     -2.35420  33.51406   0.00000  1       18
siesta:     -7.01096  30.82560   0.00000  1       19
siesta:     -7.01096  33.51406   0.00000  1       20
siesta:     -0.02582  34.85847   0.00000  1       21
siesta:     -0.02582  37.54693   0.00000  1       22
siesta:     -0.02582  42.92421   0.00000  1       23
siesta:     -0.02582   2.59549   0.00000  2       24
siesta:     -0.02582   5.28395   0.00000  2       25
siesta:      4.63094  34.85847   0.00000  2       26
siesta:      4.63094  37.54693   0.00000  2       27
siesta:      6.95932  30.82560   0.00000  2       28
siesta:      6.95932  33.51406   0.00000  2       29
siesta:      9.28770  26.79272   0.00000  2       30
siesta:      9.28770  29.48119   0.00000  2       31
siesta:      2.30256   6.62836   0.00000  2       32
siesta:      2.30256   9.31683   0.00000  2       33
siesta:      4.63094  10.66124   0.00000  2       34
siesta:      4.63094  13.34970   0.00000  2       35
siesta:      6.95932  14.69411   0.00000  2       36
siesta:      6.95932  17.38257   0.00000  2       37
siesta:      9.28770  18.72698   0.00000  2       38
siesta:      9.28770  21.41544   0.00000  2       39
siesta:     11.61608  22.75985   0.00000  2       40
siesta:     11.61608  25.44831   0.00000  2       41
siesta:     -2.35420   6.62836   0.00000  2       42
siesta:     -2.35420   9.31683   0.00000  2       43
siesta:     -0.02582  10.66124   0.00000  2       44
siesta:     -0.02582  13.34970   0.00000  2       45
siesta:      2.30256  14.69411   0.00000  2       46
siesta:      2.30256  17.38257   0.00000  2       47
siesta:      4.63094  18.72698   0.00000  2       48
siesta:      4.63094  21.41544   0.00000  2       49
siesta:      6.95932  22.75985   0.00000  2       50
siesta:      6.95932  25.44831   0.00000  2       51
siesta:     -4.68258  10.66124   0.00000  2       52
siesta:     -4.68258  13.34970   0.00000  2       53
siesta:     -2.35420  14.69411   0.00000  2       54
siesta:     -2.35420  17.38257   0.00000  2       55
siesta:     -0.02582  18.72698   0.00000  2       56
siesta:     -0.02582  21.41544   0.00000  2       57
siesta:      2.30256  25.44831   0.00000  2       58
siesta:     -7.01096  14.69411   0.00000  2       59
siesta:     -7.01096  17.38257   0.00000  2       60
siesta:     -4.68258  18.72698   0.00000  2       61
siesta:     -4.68258  21.41544   0.00000  2       62
siesta:     -2.35420  22.75985   0.00000  2       63
siesta:     -2.35420  25.44831   0.00000  2       64
siesta:     -9.33934  18.72698   0.00000  2       65
siesta:      4.63094  26.79272   0.00000  2       66
siesta:      4.63094  29.48119   0.00000  2       67
siesta:     -0.02582  26.79272   0.00000  2       68
siesta:     -0.02582  29.48119   0.00000  2       69
siesta:      2.30256  30.82560   0.00000  2       70
siesta:      2.30256  33.51406   0.00000  2       71
siesta:     -0.02582  45.61267   0.00000  2       72

siesta: System type = slab      

initatomlists: Number of atoms, orbitals, and projectors:     72   936  1152

siesta: ******************** Simulation parameters ****************************
siesta:
siesta: The following are some of the parameters of the simulation.
siesta: A complete list of the parameters used, including default values,
siesta: can be found in file out.fdf
siesta:
redata: Non-Collinear-spin run           =     F
redata: SpinPolarized (Up/Down) run      =     F
redata: Number of spin components        =     1
redata: Long output                      =     F
redata: Number of Atomic Species         =        2
redata: Charge density info will appear in .RHO file
redata: Write Mulliken Pop.              =     NO
redata: Mesh Cutoff                      =   200.0000  Ry
redata: Net charge of the system         =     0.0000 |e|
redata: Max. number of SCF Iter          =      500
redata: SCF convergence failure will abort job
redata: Performing Pulay mixing using    =    10 iterations
redata: Mix DM in first SCF step ?       =     F
redata: Write Pulay info on disk?        =     F
redata: Discard 1st Pulay DM after  kick =     F
redata: New DM Mixing Weight             =     0.0500
redata: New DM Occupancy tolerance       = 0.000000000001
redata: No kicks to SCF
redata: DM Mixing Weight for Kicks       =     0.5000
redata: DM Tolerance for SCF             =     0.000100
redata: Require Energy convergence for SCF =     F
redata: DM Energy tolerance for SCF      =     0.000100 eV
redata: Require Harris convergence for SCF =     F
redata: DM Harris energy tolerance for SCF =     0.000100 eV
redata: Using Saved Data (generic)   =     F
redata: Use continuation files for DM    =     T
redata: Neglect nonoverlap interactions  =     F
redata: Method of Calculation            =     Diagonalization
redata: Divide and Conquer               =     T
redata: Electronic Temperature           =     0.0019  Ry
redata: Fix the spin of the system       =     F
redata: Dynamics option                  =     Verlet MD run
redata: Initial MD time step             =        1
redata:   Final MD time step             =        1
redata: Length of MD time step           =     1.0000  fs
redata: Initial Temperature of MD run    =     0.0000  K
redata: Perform a MD quench              =     F
redata: ***********************************************************************
Total number of electrons:   265.000000
Total ionic charge:   265.000000

* ProcessorY, Blocksize:    2  24

k-point displ. along   1 input, could be:     0.50    0.00
k-point displ. along   2 input, could be:     0.50    0.00
 Kpoints in:          231 . Kpoints trimmed:          231

siesta: k-grid: Number of k-points =   231
siesta: k-grid: Cutoff (effective) =     5.000 Ang
siesta: k-grid: Supercell and displacements
siesta: k-grid:   21   0   0      0.500
siesta: k-grid:    0  21   0      0.500
siesta: k-grid:    0   0   1      0.000
Naive supercell factors:     2    2    2

superc: Internal auxiliary supercell:     2 x     2 x     2  =       8
superc: Number of atoms, orbitals, and projectors:    576   7488   9216

* Maximum dynamic memory allocated =     4 MB

siesta:                 ==============================
                            Begin MD step =      1
                        ==============================

superc: Internal auxiliary supercell:     2 x     2 x     2  =       8
superc: Number of atoms, orbitals, and projectors:    576   7488   9216

outcell: Unit cell vectors (Ang):
       12.804619    7.392750    0.000000
        0.000000   14.785500    0.000000
        0.000000    0.000000   10.000000

outcell: Cell vector modules (Ang)   :   14.785500   14.785500   10.000000
outcell: Cell angles (23,13,12) (deg):     90.0000     90.0000     60.0000
outcell: Cell volume (Ang**3)        :   1893.2269
New_DM. Step:     1
Initializing Density Matrix...

InitMesh: MESH =   120 x   120 x    90 =     1296000
InitMesh: Mesh cutoff (required, used) =   200.000   223.865 Ry

* Maximum dynamic memory allocated =   238 MB

stepf: Fermi-Dirac step function

siesta: Program's energy decomposition (eV):
siesta: Ebs     =     -5469.256674
siesta: Eions   =     15457.706713
siesta: Ena     =      4178.825992
siesta: Ekin    =      5165.204314
siesta: Enl     =       845.297579
siesta: DEna    =        -0.000007
siesta: DUscf   =         0.000000
siesta: DUext   =         0.000000
siesta: Exc     =     -4196.679715
siesta: eta*DQ  =         0.000000
siesta: Emadel  =         0.000000
siesta: Emeta   =         0.000000
siesta: Emolmec =         0.000000
siesta: Ekinion =         0.000000
siesta: Eharris =     -9291.472493
siesta: Etot    =     -9465.058549
siesta: FreeEng =     -9465.058549

siesta: iscf   Eharris(eV)      E_KS(eV)   FreeEng(eV)   dDmax  Ef(eV)
siesta:    1    -9291.4725    -9465.0585    -9465.0585  7.5697 -8.4348
timer: Routine,Calls,Time,% = IterSCF        1    3505.121  99.66
elaps: Routine,Calls,Wall,% = IterSCF        1     439.059  99.65
siesta:    2   -15580.5256    -8277.8834    -8277.9397 18.4796 -7.0622
siesta:    3    -9401.7625    -9269.0117    -9269.0398  1.8206 -5.2864
siesta:    4    -9294.7161    -9212.7685    -9212.8120  1.5371 -4.9743
siesta:    5    -9231.7046    -9158.2850    -9158.3436  1.5330 -4.5100
siesta:    6    -9141.0200    -9112.2393    -9112.2547  1.3153 -4.7299
siesta:    7    -9132.8469    -9096.1145    -9096.1497  1.1190 -4.8660
siesta:    8    -9130.2828    -9090.0927    -9090.1477  1.1208 -5.0024
siesta:    9    -9127.5059    -9088.8338    -9088.8714  0.9011 -4.9327
siesta:   10    -9125.5325    -9085.2912    -9085.3439  0.8665 -4.9994
siesta:   11    -9124.8324    -9085.2186    -9085.2598  0.6994 -5.0014
siesta:   12    -9125.5600    -9085.0709    -9085.1525  0.8205 -4.8321
siesta:   13    -9128.4131    -9084.4626    -9084.5272  0.8518 -4.9420
siesta:   14    -9124.7870    -9088.8683    -9088.9015  0.4913 -5.0344
siesta:   15    -9123.8148    -9093.8792    -9093.9246  0.4549 -5.0686
siesta:   16    -9123.5246    -9097.5863    -9097.6314  0.2992 -5.0826
siesta:   17    -9122.9763    -9101.2534    -9101.3050  0.4194 -5.0801
siesta:   18    -9122.4480    -9104.3033    -9104.3438  0.2648 -5.0872
siesta:   19    -9121.9910    -9106.3789    -9106.4242  0.3073 -5.0954
siesta:   20    -9122.0166    -9107.2373    -9107.2955  0.2308 -5.0950
siesta:   21    -9121.8445    -9112.2544    -9112.3081  0.2538 -5.0250
siesta:   22    -9121.7936    -9112.2014    -9112.2655  0.1454 -5.0319
siesta:   23    -9121.7460    -9114.5097    -9114.5749  0.2110 -5.0230
siesta:   24    -9121.6787    -9115.8159    -9115.8852  0.0850 -5.0833
siesta:   25    -9121.7244    -9116.3656    -9116.4246  0.1908 -5.0879
siesta:   26    -9121.7035    -9116.7871    -9116.8472  0.1064 -5.0830
siesta:   27    -9121.6728    -9117.9963    -9118.0545  0.1049 -5.0645
siesta:   28    -9121.6509    -9117.8797    -9117.9482  0.0578 -5.0543
siesta:   29    -9121.6408    -9118.6927    -9118.7596  0.0687 -5.0514
siesta:   30    -9121.6408    -9119.2720    -9119.3427  0.0924 -5.0524
siesta:   31    -9121.6305    -9119.3645    -9119.4257  0.0694 -5.0510
siesta:   32    -9121.6213    -9119.4996    -9119.5651  0.0205 -5.0603
siesta:   33    -9121.6183    -9119.6813    -9119.7495  0.0213 -5.0594
siesta:   34    -9121.6162    -9120.2910    -9120.3604  0.0215 -5.0623
siesta:   35    -9121.6153    -9120.4334    -9120.5020  0.0093 -5.0653
siesta:   36    -9121.6137    -9120.6890    -9120.7580  0.0132 -5.0659
siesta:   37    -9121.6154    -9120.9125    -9120.9822  0.0079 -5.0692
siesta:   38    -9121.6146    -9121.1099    -9121.1781  0.0042 -5.0691
siesta:   39    -9121.6142    -9121.2586    -9121.3277  0.0068 -5.0707
siesta:   40    -9121.6146    -9121.3442    -9121.4131  0.0042 -5.0695
siesta:   41    -9121.6143    -9121.3988    -9121.4673  0.0016 -5.0698
siesta:   42    -9121.6143    -9121.4971    -9121.5659  0.0015 -5.0694
siesta:   43    -9121.6142    -9121.5444    -9121.6132  0.0009 -5.0692
siesta:   44    -9121.6142    -9121.5641    -9121.6329  0.0007 -5.0688
siesta:   45    -9121.6142    -9121.5770    -9121.6458  0.0005 -5.0689
siesta:   46    -9121.6142    -9121.5797    -9121.6485  0.0005 -5.0688
siesta:   47    -9121.6142    -9121.5874    -9121.6563  0.0004 -5.0687
siesta:   48    -9121.6142    -9121.6086    -9121.6774  0.0003 -5.0686
siesta:   49    -9121.6142    -9121.6117    -9121.6805  0.0001 -5.0686
siesta:   50    -9121.6142    -9121.6125    -9121.6814  0.0001 -5.0686
siesta:   51    -9121.6142    -9121.6137    -9121.6825  0.0001 -5.0687

siesta: E_KS(eV) =            -9121.6123

siesta: E_KS - E_eggbox =     -9121.6123

siesta: Atomic forces (eV/Ang):
----------------------------------------
   Tot   -0.082634    0.028932    0.000000
----------------------------------------
   Max  571.392776
   Res  139.125313    sqrt( Sum f_i^2 / 3N )
----------------------------------------
   Max  571.392776    constrained

Stress-tensor-Voigt (kbar):     -703.83    -2543.33       -0.66       -9.16        0.00        0.00
(Free)E + p*V (eV/cell)    -7842.4215
Target enthalpy (eV/cell)    -9121.6811

siesta: Stress tensor (static) (eV/Ang**3):
        -0.439291   -0.005716    0.000000
        -0.005716   -1.587407    0.000000
         0.000000    0.000000   -0.000412

siesta: Pressure (static):       1082.60768326  kBar

siesta: Stress tensor (total) (eV/Ang**3):
        -0.439291   -0.005716    0.000000
        -0.005716   -1.587407    0.000000
         0.000000    0.000000   -0.000412

siesta: Pressure (total):       1082.60768326  kBar

siesta: Temp_ion =       0.000 K

* Maximum dynamic memory allocated =   255 MB
Computing bands...

siesta: Program's energy decomposition (eV):
siesta: Ebs     =     -4086.491090
siesta: Eions   =     15457.706713
siesta: Ena     =      4178.825992
siesta: Ekin    =      7963.069084
siesta: Enl     =      -790.891972
siesta: DEna    =      -754.485602
siesta: DUscf   =       101.334712
siesta: DUext   =         0.000000
siesta: Exc     =     -4361.757767
siesta: eta*DQ  =         0.000000
siesta: Emadel  =         0.000000
siesta: Emeta   =         0.000000
siesta: Emolmec =         0.000000
siesta: Ekinion =         0.000000
siesta: Eharris =     -9121.614211
siesta: Etot    =     -9121.612266
siesta: FreeEng =     -9121.681100

siesta: Final energy (eV):
siesta:  Band Struct. =   -4086.491090
siesta:       Kinetic =    7963.069084
siesta:       Hartree =   25783.821047
siesta:    Ext. field =       0.000000
siesta:   Exch.-corr. =   -4361.757767
siesta:  Ion-electron =  -59254.366275
siesta:       Ion-ion =   20747.621645
siesta:       Ekinion =       0.000000
siesta:         Total =   -9121.612266

siesta: Atomic forces (eV/Ang):
siesta:      1    0.180936  107.022724    0.000000
siesta:      2    1.921796 -395.935376    0.000000
siesta:      3   -4.131527  105.987868    0.000000
siesta:      4   -3.379444 -398.053825    0.000000
siesta:      5  -15.542865    0.513664    0.000000
siesta:      6  -16.512637 -394.601640    0.000000
siesta:      7   -0.263222   -0.682302    0.000000
siesta:      8   -4.867341   -5.947275    0.000000
siesta:      9    6.315085   -4.118025    0.000000
siesta:     10   -3.438911    2.133593    0.000000
siesta:     11   -6.005433   -2.704388    0.000000
siesta:     12   -6.049560    4.032868    0.000000
siesta:     13   -3.360171    0.610050    0.000000
siesta:     14   -4.797481    1.675980    0.000000
siesta:     15    5.498022   -3.146669    0.000000
siesta:     16    0.757960    1.881457    0.000000
siesta:     17  -15.322842    1.725869    0.000000
siesta:     18  -17.191773 -398.908919    0.000000
siesta:     19   -2.834819    3.520215    0.000000
siesta:     20   -3.440415    2.677297    0.000000
siesta:     21   -2.105851  107.592474    0.000000
siesta:     22   -4.150190 -386.983349    0.000000
siesta:     23    0.172930  104.533219    0.000000
siesta:     24    7.399529  548.276675    0.000000
siesta:     25  -12.191535 -132.847299    0.000000
siesta:     26   25.861276    5.837052    0.000000
siesta:     27   28.055532 -543.441352    0.000000
siesta:     28    1.678232   -0.027061    0.000000
siesta:     29   -2.129141    2.194993    0.000000
siesta:     30    2.169432    2.003535    0.000000
siesta:     31   -0.848815    0.500283    0.000000
siesta:     32   29.112131  556.260866    0.000000
siesta:     33   -3.090406 -128.747340    0.000000
siesta:     34   35.247423  549.031381    0.000000
siesta:     35   24.259260   -1.587102    0.000000
siesta:     36   -1.766603   -2.844956    0.000000
siesta:     37    2.121039   -0.017498    0.000000
siesta:     38   -0.990059   -0.465664    0.000000
siesta:     39    1.823745   -2.000782    0.000000
siesta:     40    0.436028    6.445048    0.000000
siesta:     41   -0.513403   -6.512811    0.000000
siesta:     42  -17.023526  403.493684    0.000000
siesta:     43   -1.011430 -118.450396    0.000000
siesta:     44   -4.124451  404.977105    0.000000
siesta:     45   -0.204079 -125.663540    0.000000
siesta:     46   31.686489  412.915595    0.000000
siesta:     47   19.424507   -3.435350    0.000000
siesta:     48   -1.084294    1.937954    0.000000
siesta:     49    3.046953   -1.748420    0.000000
siesta:     50   -0.258352    0.220800    0.000000
siesta:     51   -0.154623   -0.605334    0.000000
siesta:     52  -31.651596  402.409165    0.000000
siesta:     53  -24.000829    2.923528    0.000000
siesta:     54  -31.988098  409.498055    0.000000
siesta:     55  -19.217892   -4.626463    0.000000
siesta:     56   -1.115683  571.392776    0.000000
siesta:     57   -3.500741   -0.330387    0.000000
siesta:     58   -0.979565    4.393769    0.000000
siesta:     59    2.467189   -2.597252    0.000000
siesta:     60   -2.502773   -1.571343    0.000000
siesta:     61    1.221756    2.657964    0.000000
siesta:     62    1.340091   -2.035148    0.000000
siesta:     63    2.402371   -1.570285    0.000000
siesta:     64    3.262236   -0.448864    0.000000
siesta:     65    2.996769   -1.321694    0.000000
siesta:     66    0.286897    0.794141    0.000000
siesta:     67   -0.609031   -2.377447    0.000000
siesta:     68    1.427233   -2.411712    0.000000
siesta:     69   -6.701774 -557.953457    0.000000
siesta:     70   21.917016    8.002087    0.000000
siesta:     71   15.310348 -551.853291    0.000000
siesta:     72    1.170337 -551.470780    0.000000
siesta: ----------------------------------------
siesta:    Tot   -0.082634    0.028932    0.000000

siesta: Stress tensor (static) (eV/Ang**3):
siesta:    -0.439291   -0.005716    0.000000
siesta:    -0.005716   -1.587407    0.000000
siesta:     0.000000    0.000000   -0.000412

siesta: Cell volume =       1893.226884 Ang**3

siesta: Pressure (static):
siesta:                Solid            Molecule  Units
siesta:           0.00735927          0.10614572  Ry/Bohr**3
siesta:           0.67570326          9.74593872  eV/Ang**3
siesta:        1082.60768326      15614.88406970  kBar
(Free)E+ p_basis*V_orbitals  =       -9083.676555
(Free)Eharris+ p_basis*V_orbitals  =       -9083.677072

siesta: Electric dipole (a.u.)  =    0.000000    0.000000    0.000000
siesta: Electric dipole (Debye) =    0.000000    0.000000    0.000000

* Maximum dynamic memory allocated : Node    0 =   255 MB
* Maximum dynamic memory allocated : Node    1 =    90 MB
* Maximum dynamic memory allocated : Node    2 =    93 MB
* Maximum dynamic memory allocated : Node    3 =   242 MB
* Maximum dynamic memory allocated : Node    4 =   222 MB
* Maximum dynamic memory allocated : Node    5 =    81 MB
* Maximum dynamic memory allocated : Node    6 =    84 MB
* Maximum dynamic memory allocated : Node    7 =   206 MB

* Maximum memory occured during matrixMtoO                    

timer: CPU execution times:
timer:  Routine       Calls   Time/call    Tot.time        %
timer:  siesta            1  174676.163  174676.163   100.00
timer:  Setup             1       3.936       3.936     0.00
timer:  bands             3     244.547     733.641     0.42
timer:  writewave         1       0.044       0.044     0.00
timer:  KSV_init          1       0.007       0.007     0.00
timer:  IterMD            1  173933.347  173933.347    99.57
timer:  hsparse           1       0.517       0.517     0.00
timer:  overlap           1       7.220       7.220     0.00
timer:  IterSCF          51    3405.907  173701.240    99.44
timer:  kinefsm           2       3.751       7.502     0.00
timer:  nlefsm            2      20.647      41.294     0.02
timer:  DHSCF            52     117.407    6105.179     3.50
timer:  DHSCF1            1       0.986       0.986     0.00
timer:  DHSCF2            1      44.337      44.337     0.03
timer:  REORD           418       0.005       2.163     0.00
timer:  POISON           53       0.870      46.130     0.03
timer:  DHSCF3           52     115.707    6016.779     3.44
timer:  rhoofd           52      24.761    1287.596     0.74
timer:  cellXC           52       3.278     170.438     0.10
timer:  vmat             52      54.614    2839.903     1.63
timer:  MolMec            2       0.000       0.000     0.00
timer:  diagon           51    3287.518  167663.426    95.99
timer:  c-eigval      11902       6.049   71997.718    41.22
timer:  c-buildHS     11902       0.054     643.222     0.37
timer:  cdiag         23683       6.173  146187.287    83.69
timer:  cdiag1        23683       0.386    9133.326     5.23
timer:  cdiag2        23683       1.770   41929.379    24.00
timer:  cdiag3        23683       3.748   88770.045    50.82
timer:  cdiag4        23683       0.155    3664.222     2.10
timer:  c-eigvec      11781       6.397   75362.319    43.14
timer:  c-buildD      11781       1.781   20978.277    12.01
timer:  DHSCF4            1      42.064      42.064     0.02
timer:  dfscf             1      39.250      39.250     0.02
timer:  overfsm           1       0.457       0.457     0.00
timer:  optical           1       4.613       4.613     0.00
  

elaps: ELAPSED times:
elaps:  Routine       Calls   Time/call    Tot.time        %
elaps:  siesta            1   21875.735   21875.735   100.00
elaps:  Setup             1       0.513       0.513     0.00
elaps:  bands             3      30.645      91.935     0.42
elaps:  writewave         1       0.006       0.006     0.00
elaps:  KSV_init          1       0.001       0.001     0.00
elaps:  IterMD            1   21782.682   21782.682    99.57
elaps:  hsparse           1       0.070       0.070     0.00
elaps:  overlap           1       0.904       0.904     0.00
elaps:  IterSCF          51     426.544   21753.751    99.44
elaps:  kinefsm           2       0.471       0.943     0.00
elaps:  nlefsm            2       2.575       5.150     0.02
elaps:  DHSCF            52      14.814     770.311     3.52
elaps:  DHSCF1            1       0.127       0.127     0.00
elaps:  DHSCF2            1       5.553       5.553     0.03
elaps:  REORD           418       0.001       0.279     0.00
elaps:  POISON           53       0.110       5.815     0.03
elaps:  DHSCF3           52      14.491     753.530     3.44
elaps:  rhoofd           52       7.097     369.025     1.69
elaps:  cellXC           52       0.410      21.329     0.10
elaps:  vmat             52       6.840     355.664     1.63
elaps:  MolMec            2       0.000       0.000     0.00
elaps:  diagon           51     411.707   20997.065    95.98
elaps:  c-eigval      11902       0.758    9016.410    41.22
elaps:  c-buildHS     11902       0.007      88.699     0.41
elaps:  cdiag         23683       0.772   18275.355    83.54
elaps:  cdiag1        23683       0.048    1148.116     5.25
elaps:  cdiag2        23683       0.222    5251.956    24.01
elaps:  cdiag3        23683       0.470   11131.090    50.88
elaps:  cdiag4        23683       0.019     457.964     2.09
elaps:  c-eigvec      11781       0.799    9418.085    43.05
elaps:  c-buildD      11781       0.225    2646.515    12.10
elaps:  DHSCF4            1      10.982      10.982     0.05
elaps:  dfscf             1      10.405      10.405     0.05
elaps:  overfsm           1       0.059       0.059     0.00
elaps:  optical           1       0.001       0.001     0.00
  
>> End of run:  24-APR-2016  22:36:01
