Siesta Version:                                        siesta-3.2-pl-3
Architecture  : x86_64-unknown-linux-gnu--unknown
Compiler flags: mpiifort -g -O2 -fPIC -xSSE4.1 -fp-model source -shared-intel 
PARALLEL version

* Running on    8 nodes in parallel
>> Start of run:  27-APR-2016   1:44:31

                           ***********************       
                           *  WELCOME TO SIESTA  *       
                           ***********************       

reinit: Reading from standard input
************************** Dump of input data file ****************************
#(1) General system descriptors
SystemName            GRP_doping    # Descriptive name of the system
SystemLabel           GRP_doping    # Short name for naming files
%include STRUCT.fdf
%include KPT.fdf
%include BASIS.fdf
#%include TS.fdf # for transiesta calculation
#(4) DFT, Grid, SCF
XC.functional         GGA           # LDA or GGA (default = LDA)
XC.authors            PBE           # CA (Ceperley-Aldr) = PZ
                                    #    (Perdew-Zunger) - LDA - Default
                                    # PW92 (Perdew-Wang-92) - LDA
                                    # PBE (Perdew-Burke-Ernzerhof) - GGA
MeshCutoff            200.000000    Ry      # Default: 50.0 Ry ~ 0.444 Bohr
                                    #         100.0 Ry ~ 0.314 Bohr
MaxSCFIterations      500           # Default: 50
DM.MixingWeight       0.05          # Default: 0.25
DM.NumberPulay        10            # Default: 0
DM.PulayOnFile        F             # SystemLabel.P1, SystemLabel.P2
DM.Tolerance          1.d-4         # Default: 1.d-4
DM.UseSaveDM          .true.        # because of the bug
SCFMustConverge       .true.
NeglNonOverlapInt     F             # Default: F
#(5) Eigenvalue problem: order-N or diagonalization
SolutionMethod        Diagon        # or Transiesta
ElectronicTemperature 300.0 K       # Default: 300.0 K
#(6) Molecular dynamics and relaxations
#MD.TypeOfRun          CG            # Type of dynamics:
#MD.VariableCell       F
#MD.NumCGsteps         0           # 0 for single-point / 100 for gopt
#MD.MaxCGDispl         0.2 Bohr      # Default: 0.2 Bohr
#MD.MaxForceTol        0.02 eV/Ang   # Default: 0.04 eV/Ang
#MD.MaxStressTol       1.0 GPa       # Default: 1.0 GPa
# Geometry Constraints
#%block GeometryConstraints
#	position from 1 to 44
#%endblock GeometryConstraints
BandLinesScale   pi/a
%block BandLines
 1   0.00000000  0.00000000  0.00000000
50   0.00000000  0.07809418  0.00000000
50   0.04509075  0.07809242  0.00000000
20   0.00000000  0.00000000  0.00000000
%endblock BandLines
************************** End of input data file *****************************

reinit: -----------------------------------------------------------------------
reinit: System Name: GRP_doping
reinit: -----------------------------------------------------------------------
reinit: System Label: GRP_doping                                                  
reinit: -----------------------------------------------------------------------

initatom: Reading input for the pseudopotentials and atomic orbitals ----------
 Species number:            1  Label: B Atomic number:           5
 Species number:            2  Label: C Atomic number:           6
Ground state valence configuration:   2s02  2p01
Reading pseudopotential information in formatted form from B.psf

Valence configuration for pseudopotential generation:
2s( 2.00) rc: 1.74
2p( 1.00) rc: 1.74
3d( 0.00) rc: 1.74
4f( 0.00) rc: 1.74
Ground state valence configuration:   2s02  2p02
Reading pseudopotential information in formatted form from C.psf

Valence configuration for pseudopotential generation:
2s( 2.00) rc: 1.54
2p( 2.00) rc: 1.54
3d( 0.00) rc: 1.54
4f( 0.00) rc: 1.54
For B, standard SIESTA heuristics set lmxkb to 3
 (one more than the basis l, including polarization orbitals).
Use PS.lmax or PS.KBprojectors blocks to override.
For C, standard SIESTA heuristics set lmxkb to 3
 (one more than the basis l, including polarization orbitals).
Use PS.lmax or PS.KBprojectors blocks to override.

<basis_specs>
===============================================================================
B                    Z=   5    Mass=  10.810        Charge= 0.17977+309
Lmxo=1 Lmxkb= 3    BasisType=split      Semic=F
L=0  Nsemic=0  Cnfigmx=2
          n=1  nzeta=2  polorb=0
            splnorm:   0.15000    
               vcte:    0.0000    
               rinn:    0.0000    
                rcs:    0.0000      0.0000    
            lambdas:    1.0000      1.0000    
L=1  Nsemic=0  Cnfigmx=2
          n=1  nzeta=2  polorb=1
            splnorm:   0.15000    
               vcte:    0.0000    
               rinn:    0.0000    
                rcs:    0.0000      0.0000    
            lambdas:    1.0000      1.0000    
-------------------------------------------------------------------------------
L=0  Nkbl=1  erefs: 0.17977+309
L=1  Nkbl=1  erefs: 0.17977+309
L=2  Nkbl=1  erefs: 0.17977+309
L=3  Nkbl=1  erefs: 0.17977+309
===============================================================================
</basis_specs>

atom: Called for B                     (Z =   5)

read_vps: Pseudopotential generation method:
read_vps: ATM3      Troullier-Martins                       
Total valence charge:    3.00000

read_vps: Pseudopotential includes a core correction:
read_vps: Pseudo-core for xc-correction

xc_check: Exchange-correlation functional:
xc_check: GGA Perdew, Burke & Ernzerhof 1996
V l=0 = -2*Zval/r beyond r=  1.7165
V l=1 = -2*Zval/r beyond r=  1.7165
V l=2 = -2*Zval/r beyond r=  1.7165
V l=3 = -2*Zval/r beyond r=  1.6951
All V_l potentials equal beyond r=  1.7165
This should be close to max(r_c) in ps generation
All pots = -2*Zval/r beyond r=  1.7165

VLOCAL1: 99.0% of the norm of Vloc inside     14.733 Ry
VLOCAL1: 99.9% of the norm of Vloc inside     33.577 Ry
atom: Maximum radius for 4*pi*r*r*local-pseudopot. charge    2.04484
atom: Maximum radius for r*vlocal+2*Zval:    1.75994
GHOST: No ghost state for L =  0
GHOST: No ghost state for L =  1
GHOST: No ghost state for L =  2
GHOST: No ghost state for L =  3

KBgen: Kleinman-Bylander projectors: 
   l= 0   rc=  1.897051   el= -0.693730   Ekb=  4.595746   kbcos=  0.286105
   l= 1   rc=  1.920920   el= -0.265236   Ekb= -2.350715   kbcos= -0.315747
   l= 2   rc=  2.044840   el=  0.002055   Ekb= -0.690767   kbcos= -0.013822
   l= 3   rc=  2.149707   el=  0.003188   Ekb= -0.315358   kbcos= -0.002055

KBgen: Total number of  Kleinman-Bylander projectors:   16
atom: -------------------------------------------------------------------------

atom: SANKEY-TYPE ORBITALS:
atom: Selected multiple-zeta basis: split     

SPLIT: Orbitals with angular momentum L= 0

SPLIT: Basis orbitals for state 2s

SPLIT: PAO cut-off radius determined from an
SPLIT: energy shift=  0.007350 Ry

   izeta = 1
                 lambda =    1.000000
                     rc =    5.422032
                 energy =   -0.686029
                kinetic =    0.576707
    potential(screened) =   -1.262736
       potential(ionic) =   -3.271094

   izeta = 2
                 rmatch =    4.222573
              splitnorm =    0.150000
                 energy =   -0.602132
                kinetic =    0.858975
    potential(screened) =   -1.461107
       potential(ionic) =   -3.582536

SPLIT: Orbitals with angular momentum L= 1

SPLIT: Basis orbitals for state 2p

SPLIT: PAO cut-off radius determined from an
SPLIT: energy shift=  0.007350 Ry

   izeta = 1
                 lambda =    1.000000
                     rc =    6.790259
                 energy =   -0.258578
                kinetic =    1.481412
    potential(screened) =   -1.739989
       potential(ionic) =   -3.657461

   izeta = 2
                 rmatch =    4.608740
              splitnorm =    0.150000
                 energy =   -0.173757
                kinetic =    2.186690
    potential(screened) =   -2.360447
       potential(ionic) =   -4.464260

POLgen: Perturbative polarization orbital with L=  2

POLgen: Polarization orbital for state 2p

   izeta = 1
                     rc =    6.790259
                 energy =    0.684082
                kinetic =    1.471481
    potential(screened) =   -0.787399
       potential(ionic) =   -2.406985
atom: Total number of Sankey-type orbitals: 13

atm_pop: Valence configuration (for local Pseudopot. screening):
 2s( 2.00)                                                            
 2p( 1.00)                                                            
Vna: chval, zval:    3.00000   3.00000

Vna:  Cut-off radius for the neutral-atom potential:   6.790259
comcore: Pseudo-core radius Rcore=  2.122997

atom: _________________________________________________________________________

<basis_specs>
===============================================================================
C                    Z=   6    Mass=  12.010        Charge= 0.17977+309
Lmxo=1 Lmxkb= 3    BasisType=split      Semic=F
L=0  Nsemic=0  Cnfigmx=2
          n=1  nzeta=2  polorb=0
            splnorm:   0.15000    
               vcte:    0.0000    
               rinn:    0.0000    
                rcs:    0.0000      0.0000    
            lambdas:    1.0000      1.0000    
L=1  Nsemic=0  Cnfigmx=2
          n=1  nzeta=2  polorb=1
            splnorm:   0.15000    
               vcte:    0.0000    
               rinn:    0.0000    
                rcs:    0.0000      0.0000    
            lambdas:    1.0000      1.0000    
-------------------------------------------------------------------------------
L=0  Nkbl=1  erefs: 0.17977+309
L=1  Nkbl=1  erefs: 0.17977+309
L=2  Nkbl=1  erefs: 0.17977+309
L=3  Nkbl=1  erefs: 0.17977+309
===============================================================================
</basis_specs>

atom: Called for C                     (Z =   6)

read_vps: Pseudopotential generation method:
read_vps: ATM3      Troullier-Martins                       
Total valence charge:    4.00000

read_vps: Pseudopotential includes a core correction:
read_vps: Pseudo-core for xc-correction

xc_check: Exchange-correlation functional:
xc_check: GGA Perdew, Burke & Ernzerhof 1996
V l=0 = -2*Zval/r beyond r=  1.5227
V l=1 = -2*Zval/r beyond r=  1.5227
V l=2 = -2*Zval/r beyond r=  1.5227
V l=3 = -2*Zval/r beyond r=  1.5038
All V_l potentials equal beyond r=  1.5227
This should be close to max(r_c) in ps generation
All pots = -2*Zval/r beyond r=  1.5227

VLOCAL1: 99.0% of the norm of Vloc inside     18.722 Ry
VLOCAL1: 99.9% of the norm of Vloc inside     42.668 Ry
atom: Maximum radius for 4*pi*r*r*local-pseudopot. charge    1.83678
atom: Maximum radius for r*vlocal+2*Zval:    1.58088
GHOST: No ghost state for L =  0
GHOST: No ghost state for L =  1
GHOST: No ghost state for L =  2
GHOST: No ghost state for L =  3

KBgen: Kleinman-Bylander projectors: 
   l= 0   rc=  1.704034   el= -1.009801   Ekb=  5.335044   kbcos=  0.316824
   l= 1   rc=  1.704034   el= -0.388707   Ekb= -3.785862   kbcos= -0.366464
   l= 2   rc=  1.791422   el=  0.001971   Ekb= -0.970471   kbcos= -0.009212
   l= 3   rc=  1.859892   el=  0.003065   Ekb= -0.399525   kbcos= -0.001223

KBgen: Total number of  Kleinman-Bylander projectors:   16
atom: -------------------------------------------------------------------------

atom: SANKEY-TYPE ORBITALS:
atom: Selected multiple-zeta basis: split     

SPLIT: Orbitals with angular momentum L= 0

SPLIT: Basis orbitals for state 2s

SPLIT: PAO cut-off radius determined from an
SPLIT: energy shift=  0.007350 Ry

   izeta = 1
                 lambda =    1.000000
                     rc =    4.632753
                 energy =   -1.002270
                kinetic =    0.855760
    potential(screened) =   -1.858031
       potential(ionic) =   -5.417575

   izeta = 2
                 rmatch =    3.431921
              splitnorm =    0.150000
                 energy =   -0.867111
                kinetic =    1.300804
    potential(screened) =   -2.167915
       potential(ionic) =   -5.962684

SPLIT: Orbitals with angular momentum L= 1

SPLIT: Basis orbitals for state 2p

SPLIT: PAO cut-off radius determined from an
SPLIT: energy shift=  0.007350 Ry

   izeta = 1
                 lambda =    1.000000
                     rc =    5.658549
                 energy =   -0.381140
                kinetic =    2.399701
    potential(screened) =   -2.780841
       potential(ionic) =   -6.206085

   izeta = 2
                 rmatch =    3.653288
              splitnorm =    0.150000
                 energy =   -0.249149
                kinetic =    3.542762
    potential(screened) =   -3.791911
       potential(ionic) =   -7.581078

POLgen: Perturbative polarization orbital with L=  2

POLgen: Polarization orbital for state 2p

   izeta = 1
                     rc =    5.658549
                 energy =    1.109913
                kinetic =    2.304789
    potential(screened) =   -1.194876
       potential(ionic) =   -4.013592
atom: Total number of Sankey-type orbitals: 13

atm_pop: Valence configuration (for local Pseudopot. screening):
 2s( 2.00)                                                            
 2p( 2.00)                                                            
Vna: chval, zval:    4.00000   4.00000

Vna:  Cut-off radius for the neutral-atom potential:   5.658549
comcore: Pseudo-core radius Rcore=  1.791422

atom: _________________________________________________________________________

prinput: Basis input ----------------------------------------------------------

PAO.BasisType split     

%block ChemicalSpeciesLabel
    1    5 B                       # Species index, atomic number, species label
    2    6 C                       # Species index, atomic number, species label
%endblock ChemicalSpeciesLabel

%block PAO.Basis                 # Define Basis set
B                     2                    # Species label, number of l-shells
 n=2   0   2                         # n, l, Nzeta 
   5.422      4.223   
   1.000      1.000   
 n=2   1   2 P   1                   # n, l, Nzeta, Polarization, NzetaPol
   6.790      4.609   
   1.000      1.000   
C                     2                    # Species label, number of l-shells
 n=2   0   2                         # n, l, Nzeta 
   4.633      3.432   
   1.000      1.000   
 n=2   1   2 P   1                   # n, l, Nzeta, Polarization, NzetaPol
   5.659      3.653   
   1.000      1.000   
%endblock PAO.Basis

prinput: ----------------------------------------------------------------------

coor:   Atomic-coordinates input format  =     Fractional

siesta: Atomic coordinates (Bohr) and species
siesta:     -2.35420  38.89134   0.00000  1        1
siesta:     -4.68258  34.85847   0.00000  1        2
siesta:     -4.68258  37.54693   0.00000  1        3
siesta:     -0.02582  13.34970   0.00000  1        4
siesta:     -4.68258  10.66124   0.00000  1        5
siesta:     -4.68258  13.34970   0.00000  1        6
siesta:     -2.35420  14.69411   0.00000  1        7
siesta:     -2.35420  17.38257   0.00000  1        8
siesta:     -0.02582  18.72698   0.00000  1        9
siesta:     -0.02582  21.41544   0.00000  1       10
siesta:     -4.68258  18.72698   0.00000  1       11
siesta:     -4.68258  21.41544   0.00000  1       12
siesta:     -7.01096  25.44831   0.00000  1       13
siesta:    -11.66772  22.75985   0.00000  1       14
siesta:    -11.66772  25.44831   0.00000  1       15
siesta:     -9.33934  26.79272   0.00000  1       16
siesta:     -9.33934  29.48119   0.00000  1       17
siesta:     -4.68258  26.79272   0.00000  1       18
siesta:     -7.01096  30.82560   0.00000  1       19
siesta:     -7.01096  33.51406   0.00000  1       20
siesta:     -0.02582   2.59549   0.00000  2       21
siesta:     -0.02582   5.28395   0.00000  2       22
siesta:     -2.35420  41.57980   0.00000  2       23
siesta:      2.30256  38.89134   0.00000  2       24
siesta:      2.30256  41.57980   0.00000  2       25
siesta:      4.63094  34.85847   0.00000  2       26
siesta:      4.63094  37.54693   0.00000  2       27
siesta:      6.95932  30.82560   0.00000  2       28
siesta:      6.95932  33.51406   0.00000  2       29
siesta:      9.28770  26.79272   0.00000  2       30
siesta:      9.28770  29.48119   0.00000  2       31
siesta:      2.30256   6.62836   0.00000  2       32
siesta:      2.30256   9.31683   0.00000  2       33
siesta:      4.63094  10.66124   0.00000  2       34
siesta:      4.63094  13.34970   0.00000  2       35
siesta:      6.95932  14.69411   0.00000  2       36
siesta:      6.95932  17.38257   0.00000  2       37
siesta:      9.28770  18.72698   0.00000  2       38
siesta:      9.28770  21.41544   0.00000  2       39
siesta:     11.61608  22.75985   0.00000  2       40
siesta:     11.61608  25.44831   0.00000  2       41
siesta:     -2.35420   6.62836   0.00000  2       42
siesta:     -2.35420   9.31683   0.00000  2       43
siesta:     -0.02582  10.66124   0.00000  2       44
siesta:      2.30256  14.69411   0.00000  2       45
siesta:      2.30256  17.38257   0.00000  2       46
siesta:      4.63094  18.72698   0.00000  2       47
siesta:      4.63094  21.41544   0.00000  2       48
siesta:      6.95932  22.75985   0.00000  2       49
siesta:      6.95932  25.44831   0.00000  2       50
siesta:      2.30256  22.75985   0.00000  2       51
siesta:      2.30256  25.44831   0.00000  2       52
siesta:     -7.01096  14.69411   0.00000  2       53
siesta:     -7.01096  17.38257   0.00000  2       54
siesta:     -2.35420  22.75985   0.00000  2       55
siesta:     -2.35420  25.44831   0.00000  2       56
siesta:     -9.33934  18.72698   0.00000  2       57
siesta:     -9.33934  21.41544   0.00000  2       58
siesta:     -7.01096  22.75985   0.00000  2       59
siesta:      4.63094  26.79272   0.00000  2       60
siesta:      4.63094  29.48119   0.00000  2       61
siesta:     -0.02582  26.79272   0.00000  2       62
siesta:     -0.02582  29.48119   0.00000  2       63
siesta:     -4.68258  29.48119   0.00000  2       64
siesta:      2.30256  30.82560   0.00000  2       65
siesta:      2.30256  33.51406   0.00000  2       66
siesta:     -2.35420  30.82560   0.00000  2       67
siesta:     -2.35420  33.51406   0.00000  2       68
siesta:     -0.02582  34.85847   0.00000  2       69
siesta:     -0.02582  37.54693   0.00000  2       70
siesta:     -0.02582  42.92421   0.00000  2       71
siesta:     -0.02582  45.61267   0.00000  2       72

siesta: System type = slab      

initatomlists: Number of atoms, orbitals, and projectors:     72   936  1152

siesta: ******************** Simulation parameters ****************************
siesta:
siesta: The following are some of the parameters of the simulation.
siesta: A complete list of the parameters used, including default values,
siesta: can be found in file out.fdf
siesta:
redata: Non-Collinear-spin run           =     F
redata: SpinPolarized (Up/Down) run      =     F
redata: Number of spin components        =     1
redata: Long output                      =     F
redata: Number of Atomic Species         =        2
redata: Charge density info will appear in .RHO file
redata: Write Mulliken Pop.              =     NO
redata: Mesh Cutoff                      =   200.0000  Ry
redata: Net charge of the system         =     0.0000 |e|
redata: Max. number of SCF Iter          =      500
redata: SCF convergence failure will abort job
redata: Performing Pulay mixing using    =    10 iterations
redata: Mix DM in first SCF step ?       =     F
redata: Write Pulay info on disk?        =     F
redata: Discard 1st Pulay DM after  kick =     F
redata: New DM Mixing Weight             =     0.0500
redata: New DM Occupancy tolerance       = 0.000000000001
redata: No kicks to SCF
redata: DM Mixing Weight for Kicks       =     0.5000
redata: DM Tolerance for SCF             =     0.000100
redata: Require Energy convergence for SCF =     F
redata: DM Energy tolerance for SCF      =     0.000100 eV
redata: Require Harris convergence for SCF =     F
redata: DM Harris energy tolerance for SCF =     0.000100 eV
redata: Using Saved Data (generic)   =     F
redata: Use continuation files for DM    =     T
redata: Neglect nonoverlap interactions  =     F
redata: Method of Calculation            =     Diagonalization
redata: Divide and Conquer               =     T
redata: Electronic Temperature           =     0.0019  Ry
redata: Fix the spin of the system       =     F
redata: Dynamics option                  =     Verlet MD run
redata: Initial MD time step             =        1
redata:   Final MD time step             =        1
redata: Length of MD time step           =     1.0000  fs
redata: Initial Temperature of MD run    =     0.0000  K
redata: Perform a MD quench              =     F
redata: ***********************************************************************
Total number of electrons:   268.000000
Total ionic charge:   268.000000

* ProcessorY, Blocksize:    2  24

k-point displ. along   1 input, could be:     0.50    0.00
k-point displ. along   2 input, could be:     0.50    0.00
 Kpoints in:          231 . Kpoints trimmed:          231

siesta: k-grid: Number of k-points =   231
siesta: k-grid: Cutoff (effective) =     5.000 Ang
siesta: k-grid: Supercell and displacements
siesta: k-grid:   21   0   0      0.500
siesta: k-grid:    0  21   0      0.500
siesta: k-grid:    0   0   1      0.000
Naive supercell factors:     2    2    2

superc: Internal auxiliary supercell:     2 x     2 x     2  =       8
superc: Number of atoms, orbitals, and projectors:    576   7488   9216

* Maximum dynamic memory allocated =     4 MB

siesta:                 ==============================
                            Begin MD step =      1
                        ==============================

superc: Internal auxiliary supercell:     2 x     2 x     2  =       8
superc: Number of atoms, orbitals, and projectors:    576   7488   9216

outcell: Unit cell vectors (Ang):
       12.804619    7.392750    0.000000
        0.000000   14.785500    0.000000
        0.000000    0.000000   10.000000

outcell: Cell vector modules (Ang)   :   14.785500   14.785500   10.000000
outcell: Cell angles (23,13,12) (deg):     90.0000     90.0000     60.0000
outcell: Cell volume (Ang**3)        :   1893.2269
New_DM. Step:     1
Initializing Density Matrix...

InitMesh: MESH =   120 x   120 x    90 =     1296000
InitMesh: Mesh cutoff (required, used) =   200.000   223.865 Ry

* Maximum dynamic memory allocated =   226 MB

stepf: Fermi-Dirac step function

siesta: Program's energy decomposition (eV):
siesta: Ebs     =     -5528.764518
siesta: Eions   =     15841.876847
siesta: Ena     =      4239.251320
siesta: Ekin    =      5323.417823
siesta: Enl     =       803.861190
siesta: DEna    =        -0.000008
siesta: DUscf   =         0.000000
siesta: DUext   =         0.000000
siesta: Exc     =     -4197.581789
siesta: eta*DQ  =         0.000000
siesta: Emadel  =         0.000000
siesta: Emeta   =         0.000000
siesta: Emolmec =         0.000000
siesta: Ekinion =         0.000000
siesta: Eharris =     -9437.908646
siesta: Etot    =     -9672.928311
siesta: FreeEng =     -9672.928311

siesta: iscf   Eharris(eV)      E_KS(eV)   FreeEng(eV)   dDmax  Ef(eV)
siesta:    1    -9437.9086    -9672.9283    -9672.9283  8.5547 -8.2778
timer: Routine,Calls,Time,% = IterSCF        1    4517.741  99.74
elaps: Routine,Calls,Wall,% = IterSCF        1     565.428  99.74
siesta:    2   -14067.9748    -8684.8293    -8684.8999 17.0525 -4.4547
siesta:    3    -9429.3615    -9478.2718    -9478.3170  2.3320 -5.8054
siesta:    4    -9383.7926    -9408.8177    -9408.8709  1.4162 -5.6186
siesta:    5    -9309.5163    -9332.2057    -9332.2084  1.2210 -5.1323
siesta:    6    -9290.5723    -9306.1999    -9306.2565  1.1949 -5.1354
siesta:    7    -9286.7959    -9297.0435    -9297.0976  1.1250 -5.1208
siesta:    8    -9280.7635    -9283.8104    -9283.8690  0.9351 -5.1171
siesta:    9    -9279.0007    -9274.6998    -9274.7553  0.7003 -5.1140
siesta:   10    -9278.7150    -9266.3814    -9266.4316  0.4572 -5.0111
siesta:   11    -9279.1707    -9259.7324    -9259.7900  0.2445 -4.9557
siesta:   12    -9278.9073    -9258.0542    -9258.1235  0.2789 -4.9320
siesta:   13    -9278.1290    -9259.1750    -9259.2304  0.2481 -4.9823
siesta:   14    -9277.6988    -9261.3982    -9261.4836  0.1483 -4.9795
siesta:   15    -9277.6464    -9263.9769    -9264.0449  0.1935 -4.9885
siesta:   16    -9277.6157    -9264.9332    -9265.0192  0.1306 -4.9992
siesta:   17    -9277.4649    -9266.3181    -9266.3962  0.1488 -5.0282
siesta:   18    -9277.2971    -9267.2069    -9267.2914  0.1201 -5.0438
siesta:   19    -9277.2696    -9268.2049    -9268.2888  0.0953 -5.0449
siesta:   20    -9277.2556    -9269.3683    -9269.4495  0.0652 -5.0402
siesta:   21    -9277.2468    -9271.2049    -9271.2759  0.0529 -5.0452
siesta:   22    -9277.2378    -9273.2772    -9273.3483  0.0346 -5.0502
siesta:   23    -9277.2250    -9274.9491    -9275.0230  0.0224 -5.0619
siesta:   24    -9277.2199    -9275.3811    -9275.4599  0.0229 -5.0648
siesta:   25    -9277.2194    -9275.6257    -9275.7040  0.0146 -5.0632
siesta:   26    -9277.2198    -9276.1114    -9276.1885  0.0096 -5.0640
siesta:   27    -9277.2195    -9276.3970    -9276.4732  0.0067 -5.0639
siesta:   28    -9277.2194    -9276.6206    -9276.6966  0.0043 -5.0640
siesta:   29    -9277.2193    -9276.8609    -9276.9367  0.0029 -5.0630
siesta:   30    -9277.2197    -9277.0650    -9277.1408  0.0020 -5.0620
siesta:   31    -9277.2194    -9277.0825    -9277.1580  0.0016 -5.0623
siesta:   32    -9277.2195    -9277.1576    -9277.2333  0.0012 -5.0619
siesta:   33    -9277.2195    -9277.1821    -9277.2577  0.0007 -5.0618
siesta:   34    -9277.2194    -9277.2126    -9277.2882  0.0007 -5.0619
siesta:   35    -9277.2194    -9277.2355    -9277.3112  0.0003 -5.0618
siesta:   36    -9277.2195    -9277.2340    -9277.3096  0.0002 -5.0618
siesta:   37    -9277.2194    -9277.2266    -9277.3022  0.0001 -5.0618
siesta:   38    -9277.2194    -9277.2293    -9277.3050  0.0001 -5.0618

siesta: E_KS(eV) =            -9277.2269

siesta: E_KS - E_eggbox =     -9277.2269

siesta: Atomic forces (eV/Ang):
----------------------------------------
   Tot   -0.091943   -0.277400    0.000000
----------------------------------------
   Max  564.009033
   Res  145.813916    sqrt( Sum f_i^2 / 3N )
----------------------------------------
   Max  564.009033    constrained

Stress-tensor-Voigt (kbar):     -727.87    -2647.50       -0.65       -8.21        0.00        0.00
(Free)E + p*V (eV/cell)    -7947.5477
Target enthalpy (eV/cell)    -9277.3026

siesta: Stress tensor (static) (eV/Ang**3):
        -0.454296   -0.005123    0.000000
        -0.005123   -1.652420    0.000000
         0.000000    0.000000   -0.000409

siesta: Pressure (static):       1125.34065326  kBar

siesta: Stress tensor (total) (eV/Ang**3):
        -0.454296   -0.005123    0.000000
        -0.005123   -1.652420    0.000000
         0.000000    0.000000   -0.000409

siesta: Pressure (total):       1125.34065326  kBar

siesta: Temp_ion =       0.000 K

* Maximum dynamic memory allocated =   243 MB
Computing bands...

siesta: Program's energy decomposition (eV):
siesta: Ebs     =     -4180.519919
siesta: Eions   =     15841.876847
siesta: Ena     =      4239.251320
siesta: Ekin    =      8174.845877
siesta: Enl     =      -820.406406
siesta: DEna    =      -767.107879
siesta: DUscf   =       102.859425
siesta: DUext   =         0.000000
siesta: Exc     =     -4364.792428
siesta: eta*DQ  =         0.000000
siesta: Emadel  =         0.000000
siesta: Emeta   =         0.000000
siesta: Emolmec =         0.000000
siesta: Ekinion =         0.000000
siesta: Eharris =     -9277.219433
siesta: Etot    =     -9277.226938
siesta: FreeEng =     -9277.302580

siesta: Final energy (eV):
siesta:  Band Struct. =   -4180.519919
siesta:       Kinetic =    8174.845877
siesta:       Hartree =   26831.354841
siesta:    Ext. field =       0.000000
siesta:   Exch.-corr. =   -4364.792428
siesta:  Ion-electron =  -61574.168678
siesta:       Ion-ion =   21655.533450
siesta:       Ekinion =       0.000000
siesta:         Total =   -9277.226938

siesta: Atomic forces (eV/Ang):
siesta:      1    0.842471  111.328970    0.000000
siesta:      2  -17.672367    0.096768    0.000000
siesta:      3  -23.181603 -281.929996    0.000000
siesta:      4   -3.032695 -111.132966    0.000000
siesta:      5  -23.185556  283.209597    0.000000
siesta:      6  -18.563061    1.805100    0.000000
siesta:      7  -16.756817  397.810911    0.000000
siesta:      8  -14.686705   -0.426686    0.000000
siesta:      9   -0.671862  410.457418    0.000000
siesta:     10    0.259208    3.790014    0.000000
siesta:     11   -2.290318   -3.523544    0.000000
siesta:     12    0.176967    4.976064    0.000000
siesta:     13   -0.154568   -5.275414    0.000000
siesta:     14   -2.603905   -3.532111    0.000000
siesta:     15   -5.899955    3.623932    0.000000
siesta:     16   -4.792272    1.228270    0.000000
siesta:     17   -5.592993    1.436306    0.000000
siesta:     18    3.429320    2.740950    0.000000
siesta:     19    1.709213    0.966994    0.000000
siesta:     20   -3.195317    4.101481    0.000000
siesta:     21    1.609178  549.004175    0.000000
siesta:     22   -1.656067 -128.649305    0.000000
siesta:     23  -13.777892 -397.282916    0.000000
siesta:     24   -2.033051  132.778963    0.000000
siesta:     25   24.823083 -555.119876    0.000000
siesta:     26   27.006402    3.793970    0.000000
siesta:     27   32.479418 -550.595636    0.000000
siesta:     28    1.660789    0.015692    0.000000
siesta:     29   -2.486696    2.337031    0.000000
siesta:     30    2.132132    1.777577    0.000000
siesta:     31   -0.450219    0.621632    0.000000
siesta:     32   12.600123  546.360901    0.000000
siesta:     33    0.534450 -125.800947    0.000000
siesta:     34   33.015271  549.101225    0.000000
siesta:     35   25.711069   -5.293568    0.000000
siesta:     36   -2.561755   -2.372588    0.000000
siesta:     37    2.130152    0.262225    0.000000
siesta:     38   -0.933934   -0.602801    0.000000
siesta:     39    1.919425   -1.871940    0.000000
siesta:     40    0.559302    5.897970    0.000000
siesta:     41   -0.363327   -5.744227    0.000000
siesta:     42   -6.712204  545.761575    0.000000
siesta:     43   -6.369350 -122.215704    0.000000
siesta:     44   -1.495641  545.441746    0.000000
siesta:     45   12.691005  556.637719    0.000000
siesta:     46   22.160800   -2.853681    0.000000
siesta:     47   -1.155314    1.653261    0.000000
siesta:     48    0.508459    0.475476    0.000000
siesta:     49   -0.331525    0.569176    0.000000
siesta:     50   -0.413828   -0.602708    0.000000
siesta:     51    2.175402    1.816998    0.000000
siesta:     52    0.342514    0.069238    0.000000
siesta:     53   -0.291083    0.517270    0.000000
siesta:     54   -6.982374   -3.661765    0.000000
siesta:     55    1.608763    2.983217    0.000000
siesta:     56    4.118886   -1.463337    0.000000
siesta:     57    1.380087    1.678917    0.000000
siesta:     58   -0.172260   -4.286214    0.000000
siesta:     59   -1.882663   -0.925124    0.000000
siesta:     60    0.412787    0.372594    0.000000
siesta:     61   -1.004968   -2.018429    0.000000
siesta:     62   -0.312462   -1.604438    0.000000
siesta:     63   -0.781865 -564.009033    0.000000
siesta:     64    3.377644    0.493285    0.000000
siesta:     65   21.957630    5.820538    0.000000
siesta:     66   25.989666 -554.893263    0.000000
siesta:     67  -22.246377    5.514704    0.000000
siesta:     68  -30.021935 -552.954408    0.000000
siesta:     69   -2.095417  129.673117    0.000000
siesta:     70  -13.751885 -546.175356    0.000000
siesta:     71   -9.586799  126.036103    0.000000
siesta:     72    2.737325 -408.498490    0.000000
siesta: ----------------------------------------
siesta:    Tot   -0.091943   -0.277400    0.000000

siesta: Stress tensor (static) (eV/Ang**3):
siesta:    -0.454296   -0.005123    0.000000
siesta:    -0.005123   -1.652420    0.000000
siesta:     0.000000    0.000000   -0.000409

siesta: Cell volume =       1893.226884 Ang**3

siesta: Pressure (static):
siesta:                Solid            Molecule  Units
siesta:           0.00764976          0.11052966  Ry/Bohr**3
siesta:           0.70237480         10.14845737  eV/Ang**3
siesta:        1125.34065326      16259.79701701  kBar
(Free)E+ p_basis*V_orbitals  =       -9240.245895
(Free)Eharris+ p_basis*V_orbitals  =       -9240.235980

siesta: Electric dipole (a.u.)  =    0.000000    0.000000    0.000000
siesta: Electric dipole (Debye) =    0.000000    0.000000    0.000000

* Maximum dynamic memory allocated : Node    0 =   243 MB
* Maximum dynamic memory allocated : Node    1 =    86 MB
* Maximum dynamic memory allocated : Node    2 =    88 MB
* Maximum dynamic memory allocated : Node    3 =   231 MB
* Maximum dynamic memory allocated : Node    4 =   225 MB
* Maximum dynamic memory allocated : Node    5 =    82 MB
* Maximum dynamic memory allocated : Node    6 =    84 MB
* Maximum dynamic memory allocated : Node    7 =   207 MB

* Maximum memory occured during matrixMtoO                    

timer: CPU execution times:
timer:  Routine       Calls   Time/call    Tot.time        %
timer:  siesta            1  169375.179  169375.179   100.00
timer:  Setup             1       3.042       3.042     0.00
timer:  bands             3     268.877     806.631     0.48
timer:  writewave         1       0.019       0.019     0.00
timer:  KSV_init          1       0.000       0.000     0.00
timer:  IterMD            1  168559.629  168559.629    99.52
timer:  hsparse           1       0.399       0.399     0.00
timer:  overlap           1       7.783       7.783     0.00
timer:  IterSCF          38    4429.644  168326.473    99.38
timer:  kinefsm           2       4.033       8.065     0.00
timer:  nlefsm            2      21.531      43.062     0.03
timer:  DHSCF            39     124.670    4862.147     2.87
timer:  DHSCF1            1       0.989       0.989     0.00
timer:  DHSCF2            1      45.749      45.749     0.03
timer:  REORD           314       0.010       3.161     0.00
timer:  POISON           40       2.244      89.744     0.05
timer:  DHSCF3           39     122.318    4770.383     2.82
timer:  rhoofd           39      25.504     994.669     0.59
timer:  cellXC           39       3.491     136.134     0.08
timer:  vmat             39      60.389    2355.157     1.39
timer:  MolMec            2       0.000       0.000     0.00
timer:  diagon           38    4303.724  163541.525    96.56
timer:  c-eigval       8899       6.666   59319.684    35.02
timer:  c-buildHS      8899       0.122    1086.002     0.64
timer:  cdiag         17677       6.907  122091.194    72.08
timer:  cdiag1        17677       0.427    7541.056     4.45
timer:  cdiag2        17677       1.906   33688.248    19.89
timer:  cdiag3        17677       3.933   69525.225    41.05
timer:  cdiag4        17677       0.225    3971.791     2.34
timer:  c-eigvec       8778       7.344   64465.648    38.06
timer:  c-buildD       8778       4.615   40514.045    23.92
timer:  DHSCF4            1      43.016      43.016     0.03
timer:  dfscf             1      40.352      40.352     0.02
timer:  overfsm           1       0.484       0.484     0.00
timer:  optical           1       5.123       5.123     0.00
  

elaps: ELAPSED times:
elaps:  Routine       Calls   Time/call    Tot.time        %
elaps:  siesta            1   21197.053   21197.053   100.00
elaps:  Setup             1       0.379       0.379     0.00
elaps:  bands             3      33.661     100.983     0.48
elaps:  writewave         1       0.002       0.002     0.00
elaps:  KSV_init          1       0.000       0.000     0.00
elaps:  IterMD            1   21095.014   21095.014    99.52
elaps:  hsparse           1       0.051       0.051     0.00
elaps:  overlap           1       0.974       0.974     0.00
elaps:  IterSCF          38     554.364   21065.845    99.38
elaps:  kinefsm           2       0.504       1.008     0.00
elaps:  nlefsm            2       2.814       5.628     0.03
elaps:  DHSCF            39      15.737     613.726     2.90
elaps:  DHSCF1            1       0.127       0.127     0.00
elaps:  DHSCF2            1       5.723       5.723     0.03
elaps:  REORD           314       0.001       0.426     0.00
elaps:  POISON           40       0.281      11.239     0.05
elaps:  DHSCF3           39      15.302     596.794     2.82
elaps:  rhoofd           39       6.804     265.365     1.25
elaps:  cellXC           39       0.436      16.998     0.08
elaps:  vmat             39       7.554     294.621     1.39
elaps:  MolMec            2       0.000       0.000     0.00
elaps:  diagon           38     538.644   20468.455    96.56
elaps:  c-eigval       8899       0.834    7422.006    35.01
elaps:  c-buildHS      8899       0.017     149.462     0.71
elaps:  cdiag         17677       0.846   14962.073    70.59
elaps:  cdiag1        17677       0.053     938.147     4.43
elaps:  cdiag2        17677       0.238    4215.439    19.89
elaps:  cdiag3        17677       0.493    8710.964    41.10
elaps:  cdiag4        17677       0.029     508.447     2.40
elaps:  c-eigvec       8778       0.887    7790.182    36.75
elaps:  c-buildD       8778       0.609    5350.023    25.24
elaps:  DHSCF4            1      10.801      10.801     0.05
elaps:  dfscf             1      10.271      10.271     0.05
elaps:  overfsm           1       0.059       0.059     0.00
elaps:  optical           1       0.000       0.000     0.00
  
>> End of run:  27-APR-2016   7:37:48
