Siesta Version:                                        siesta-3.2-pl-3
Architecture  : x86_64-unknown-linux-gnu--unknown
Compiler flags: mpiifort -g -O2 -fPIC -xSSE4.1 -fp-model source -shared-intel 
PARALLEL version

* Running on    8 nodes in parallel
>> Start of run:  25-APR-2016  14:46:09

                           ***********************       
                           *  WELCOME TO SIESTA  *       
                           ***********************       

reinit: Reading from standard input
************************** Dump of input data file ****************************
#(1) General system descriptors
SystemName            GRP_doping    # Descriptive name of the system
SystemLabel           GRP_doping    # Short name for naming files
%include STRUCT.fdf
%include KPT.fdf
%include BASIS.fdf
#%include TS.fdf # for transiesta calculation
#(4) DFT, Grid, SCF
XC.functional         GGA           # LDA or GGA (default = LDA)
XC.authors            PBE           # CA (Ceperley-Aldr) = PZ
                                    #    (Perdew-Zunger) - LDA - Default
                                    # PW92 (Perdew-Wang-92) - LDA
                                    # PBE (Perdew-Burke-Ernzerhof) - GGA
MeshCutoff            200.000000    Ry      # Default: 50.0 Ry ~ 0.444 Bohr
                                    #         100.0 Ry ~ 0.314 Bohr
MaxSCFIterations      500           # Default: 50
DM.MixingWeight       0.05          # Default: 0.25
DM.NumberPulay        10            # Default: 0
DM.PulayOnFile        F             # SystemLabel.P1, SystemLabel.P2
DM.Tolerance          1.d-4         # Default: 1.d-4
DM.UseSaveDM          .true.        # because of the bug
SCFMustConverge       .true.
NeglNonOverlapInt     F             # Default: F
#(5) Eigenvalue problem: order-N or diagonalization
SolutionMethod        Diagon        # or Transiesta
ElectronicTemperature 300.0 K       # Default: 300.0 K
#(6) Molecular dynamics and relaxations
#MD.TypeOfRun          CG            # Type of dynamics:
#MD.VariableCell       F
#MD.NumCGsteps         0           # 0 for single-point / 100 for gopt
#MD.MaxCGDispl         0.2 Bohr      # Default: 0.2 Bohr
#MD.MaxForceTol        0.02 eV/Ang   # Default: 0.04 eV/Ang
#MD.MaxStressTol       1.0 GPa       # Default: 1.0 GPa
# Geometry Constraints
#%block GeometryConstraints
#	position from 1 to 44
#%endblock GeometryConstraints
BandLinesScale   pi/a
%block BandLines
 1   0.00000000  0.00000000  0.00000000
50   0.00000000  0.07809418  0.00000000
50   0.04509075  0.07809242  0.00000000
20   0.00000000  0.00000000  0.00000000
%endblock BandLines
************************** End of input data file *****************************

reinit: -----------------------------------------------------------------------
reinit: System Name: GRP_doping
reinit: -----------------------------------------------------------------------
reinit: System Label: GRP_doping                                                  
reinit: -----------------------------------------------------------------------

initatom: Reading input for the pseudopotentials and atomic orbitals ----------
 Species number:            1  Label: B Atomic number:           5
 Species number:            2  Label: C Atomic number:           6
Ground state valence configuration:   2s02  2p01
Reading pseudopotential information in formatted form from B.psf

Valence configuration for pseudopotential generation:
2s( 2.00) rc: 1.74
2p( 1.00) rc: 1.74
3d( 0.00) rc: 1.74
4f( 0.00) rc: 1.74
Ground state valence configuration:   2s02  2p02
Reading pseudopotential information in formatted form from C.psf

Valence configuration for pseudopotential generation:
2s( 2.00) rc: 1.54
2p( 2.00) rc: 1.54
3d( 0.00) rc: 1.54
4f( 0.00) rc: 1.54
For B, standard SIESTA heuristics set lmxkb to 3
 (one more than the basis l, including polarization orbitals).
Use PS.lmax or PS.KBprojectors blocks to override.
For C, standard SIESTA heuristics set lmxkb to 3
 (one more than the basis l, including polarization orbitals).
Use PS.lmax or PS.KBprojectors blocks to override.

<basis_specs>
===============================================================================
B                    Z=   5    Mass=  10.810        Charge= 0.17977+309
Lmxo=1 Lmxkb= 3    BasisType=split      Semic=F
L=0  Nsemic=0  Cnfigmx=2
          n=1  nzeta=2  polorb=0
            splnorm:   0.15000    
               vcte:    0.0000    
               rinn:    0.0000    
                rcs:    0.0000      0.0000    
            lambdas:    1.0000      1.0000    
L=1  Nsemic=0  Cnfigmx=2
          n=1  nzeta=2  polorb=1
            splnorm:   0.15000    
               vcte:    0.0000    
               rinn:    0.0000    
                rcs:    0.0000      0.0000    
            lambdas:    1.0000      1.0000    
-------------------------------------------------------------------------------
L=0  Nkbl=1  erefs: 0.17977+309
L=1  Nkbl=1  erefs: 0.17977+309
L=2  Nkbl=1  erefs: 0.17977+309
L=3  Nkbl=1  erefs: 0.17977+309
===============================================================================
</basis_specs>

atom: Called for B                     (Z =   5)

read_vps: Pseudopotential generation method:
read_vps: ATM3      Troullier-Martins                       
Total valence charge:    3.00000

read_vps: Pseudopotential includes a core correction:
read_vps: Pseudo-core for xc-correction

xc_check: Exchange-correlation functional:
xc_check: GGA Perdew, Burke & Ernzerhof 1996
V l=0 = -2*Zval/r beyond r=  1.7165
V l=1 = -2*Zval/r beyond r=  1.7165
V l=2 = -2*Zval/r beyond r=  1.7165
V l=3 = -2*Zval/r beyond r=  1.6951
All V_l potentials equal beyond r=  1.7165
This should be close to max(r_c) in ps generation
All pots = -2*Zval/r beyond r=  1.7165

VLOCAL1: 99.0% of the norm of Vloc inside     14.733 Ry
VLOCAL1: 99.9% of the norm of Vloc inside     33.577 Ry
atom: Maximum radius for 4*pi*r*r*local-pseudopot. charge    2.04484
atom: Maximum radius for r*vlocal+2*Zval:    1.75994
GHOST: No ghost state for L =  0
GHOST: No ghost state for L =  1
GHOST: No ghost state for L =  2
GHOST: No ghost state for L =  3

KBgen: Kleinman-Bylander projectors: 
   l= 0   rc=  1.897051   el= -0.693730   Ekb=  4.595746   kbcos=  0.286105
   l= 1   rc=  1.920920   el= -0.265236   Ekb= -2.350715   kbcos= -0.315747
   l= 2   rc=  2.044840   el=  0.002055   Ekb= -0.690767   kbcos= -0.013822
   l= 3   rc=  2.149707   el=  0.003188   Ekb= -0.315358   kbcos= -0.002055

KBgen: Total number of  Kleinman-Bylander projectors:   16
atom: -------------------------------------------------------------------------

atom: SANKEY-TYPE ORBITALS:
atom: Selected multiple-zeta basis: split     

SPLIT: Orbitals with angular momentum L= 0

SPLIT: Basis orbitals for state 2s

SPLIT: PAO cut-off radius determined from an
SPLIT: energy shift=  0.007350 Ry

   izeta = 1
                 lambda =    1.000000
                     rc =    5.422032
                 energy =   -0.686029
                kinetic =    0.576707
    potential(screened) =   -1.262736
       potential(ionic) =   -3.271094

   izeta = 2
                 rmatch =    4.222573
              splitnorm =    0.150000
                 energy =   -0.602132
                kinetic =    0.858975
    potential(screened) =   -1.461107
       potential(ionic) =   -3.582536

SPLIT: Orbitals with angular momentum L= 1

SPLIT: Basis orbitals for state 2p

SPLIT: PAO cut-off radius determined from an
SPLIT: energy shift=  0.007350 Ry

   izeta = 1
                 lambda =    1.000000
                     rc =    6.790259
                 energy =   -0.258578
                kinetic =    1.481412
    potential(screened) =   -1.739989
       potential(ionic) =   -3.657461

   izeta = 2
                 rmatch =    4.608740
              splitnorm =    0.150000
                 energy =   -0.173757
                kinetic =    2.186690
    potential(screened) =   -2.360447
       potential(ionic) =   -4.464260

POLgen: Perturbative polarization orbital with L=  2

POLgen: Polarization orbital for state 2p

   izeta = 1
                     rc =    6.790259
                 energy =    0.684082
                kinetic =    1.471481
    potential(screened) =   -0.787399
       potential(ionic) =   -2.406985
atom: Total number of Sankey-type orbitals: 13

atm_pop: Valence configuration (for local Pseudopot. screening):
 2s( 2.00)                                                            
 2p( 1.00)                                                            
Vna: chval, zval:    3.00000   3.00000

Vna:  Cut-off radius for the neutral-atom potential:   6.790259
comcore: Pseudo-core radius Rcore=  2.122997

atom: _________________________________________________________________________

<basis_specs>
===============================================================================
C                    Z=   6    Mass=  12.010        Charge= 0.17977+309
Lmxo=1 Lmxkb= 3    BasisType=split      Semic=F
L=0  Nsemic=0  Cnfigmx=2
          n=1  nzeta=2  polorb=0
            splnorm:   0.15000    
               vcte:    0.0000    
               rinn:    0.0000    
                rcs:    0.0000      0.0000    
            lambdas:    1.0000      1.0000    
L=1  Nsemic=0  Cnfigmx=2
          n=1  nzeta=2  polorb=1
            splnorm:   0.15000    
               vcte:    0.0000    
               rinn:    0.0000    
                rcs:    0.0000      0.0000    
            lambdas:    1.0000      1.0000    
-------------------------------------------------------------------------------
L=0  Nkbl=1  erefs: 0.17977+309
L=1  Nkbl=1  erefs: 0.17977+309
L=2  Nkbl=1  erefs: 0.17977+309
L=3  Nkbl=1  erefs: 0.17977+309
===============================================================================
</basis_specs>

atom: Called for C                     (Z =   6)

read_vps: Pseudopotential generation method:
read_vps: ATM3      Troullier-Martins                       
Total valence charge:    4.00000

read_vps: Pseudopotential includes a core correction:
read_vps: Pseudo-core for xc-correction

xc_check: Exchange-correlation functional:
xc_check: GGA Perdew, Burke & Ernzerhof 1996
V l=0 = -2*Zval/r beyond r=  1.5227
V l=1 = -2*Zval/r beyond r=  1.5227
V l=2 = -2*Zval/r beyond r=  1.5227
V l=3 = -2*Zval/r beyond r=  1.5038
All V_l potentials equal beyond r=  1.5227
This should be close to max(r_c) in ps generation
All pots = -2*Zval/r beyond r=  1.5227

VLOCAL1: 99.0% of the norm of Vloc inside     18.722 Ry
VLOCAL1: 99.9% of the norm of Vloc inside     42.668 Ry
atom: Maximum radius for 4*pi*r*r*local-pseudopot. charge    1.83678
atom: Maximum radius for r*vlocal+2*Zval:    1.58088
GHOST: No ghost state for L =  0
GHOST: No ghost state for L =  1
GHOST: No ghost state for L =  2
GHOST: No ghost state for L =  3

KBgen: Kleinman-Bylander projectors: 
   l= 0   rc=  1.704034   el= -1.009801   Ekb=  5.335044   kbcos=  0.316824
   l= 1   rc=  1.704034   el= -0.388707   Ekb= -3.785862   kbcos= -0.366464
   l= 2   rc=  1.791422   el=  0.001971   Ekb= -0.970471   kbcos= -0.009212
   l= 3   rc=  1.859892   el=  0.003065   Ekb= -0.399525   kbcos= -0.001223

KBgen: Total number of  Kleinman-Bylander projectors:   16
atom: -------------------------------------------------------------------------

atom: SANKEY-TYPE ORBITALS:
atom: Selected multiple-zeta basis: split     

SPLIT: Orbitals with angular momentum L= 0

SPLIT: Basis orbitals for state 2s

SPLIT: PAO cut-off radius determined from an
SPLIT: energy shift=  0.007350 Ry

   izeta = 1
                 lambda =    1.000000
                     rc =    4.632753
                 energy =   -1.002270
                kinetic =    0.855760
    potential(screened) =   -1.858031
       potential(ionic) =   -5.417575

   izeta = 2
                 rmatch =    3.431921
              splitnorm =    0.150000
                 energy =   -0.867111
                kinetic =    1.300804
    potential(screened) =   -2.167915
       potential(ionic) =   -5.962684

SPLIT: Orbitals with angular momentum L= 1

SPLIT: Basis orbitals for state 2p

SPLIT: PAO cut-off radius determined from an
SPLIT: energy shift=  0.007350 Ry

   izeta = 1
                 lambda =    1.000000
                     rc =    5.658549
                 energy =   -0.381140
                kinetic =    2.399701
    potential(screened) =   -2.780841
       potential(ionic) =   -6.206085

   izeta = 2
                 rmatch =    3.653288
              splitnorm =    0.150000
                 energy =   -0.249149
                kinetic =    3.542762
    potential(screened) =   -3.791911
       potential(ionic) =   -7.581078

POLgen: Perturbative polarization orbital with L=  2

POLgen: Polarization orbital for state 2p

   izeta = 1
                     rc =    5.658549
                 energy =    1.109913
                kinetic =    2.304789
    potential(screened) =   -1.194876
       potential(ionic) =   -4.013592
atom: Total number of Sankey-type orbitals: 13

atm_pop: Valence configuration (for local Pseudopot. screening):
 2s( 2.00)                                                            
 2p( 2.00)                                                            
Vna: chval, zval:    4.00000   4.00000

Vna:  Cut-off radius for the neutral-atom potential:   5.658549
comcore: Pseudo-core radius Rcore=  1.791422

atom: _________________________________________________________________________

prinput: Basis input ----------------------------------------------------------

PAO.BasisType split     

%block ChemicalSpeciesLabel
    1    5 B                       # Species index, atomic number, species label
    2    6 C                       # Species index, atomic number, species label
%endblock ChemicalSpeciesLabel

%block PAO.Basis                 # Define Basis set
B                     2                    # Species label, number of l-shells
 n=2   0   2                         # n, l, Nzeta 
   5.422      4.223   
   1.000      1.000   
 n=2   1   2 P   1                   # n, l, Nzeta, Polarization, NzetaPol
   6.790      4.609   
   1.000      1.000   
C                     2                    # Species label, number of l-shells
 n=2   0   2                         # n, l, Nzeta 
   4.633      3.432   
   1.000      1.000   
 n=2   1   2 P   1                   # n, l, Nzeta, Polarization, NzetaPol
   5.659      3.653   
   1.000      1.000   
%endblock PAO.Basis

prinput: ----------------------------------------------------------------------

coor:   Atomic-coordinates input format  =     Fractional

siesta: Atomic coordinates (Bohr) and species
siesta:      2.30256  38.89134   0.00000  1        1
siesta:      4.63094  34.85847   0.00000  1        2
siesta:      4.63094  37.54693   0.00000  1        3
siesta:      6.95932  33.51406   0.00000  1        4
siesta:      4.63094  21.41544   0.00000  1        5
siesta:     -0.02582  21.41544   0.00000  1        6
siesta:      2.30256  22.75985   0.00000  1        7
siesta:      2.30256  25.44831   0.00000  1        8
siesta:     -4.68258  18.72698   0.00000  1        9
siesta:     -4.68258  21.41544   0.00000  1       10
siesta:     -2.35420  22.75985   0.00000  1       11
siesta:     -2.35420  25.44831   0.00000  1       12
siesta:     -7.01096  22.75985   0.00000  1       13
siesta:     -7.01096  25.44831   0.00000  1       14
siesta:     -0.02582  26.79272   0.00000  1       15
siesta:     -0.02582  29.48119   0.00000  1       16
siesta:     -4.68258  26.79272   0.00000  1       17
siesta:     -4.68258  29.48119   0.00000  1       18
siesta:     -2.35420  30.82560   0.00000  1       19
siesta:     -2.35420  33.51406   0.00000  1       20
siesta:     -0.02582  34.85847   0.00000  1       21
siesta:     -0.02582  37.54693   0.00000  1       22
siesta:     -0.02582   2.59549   0.00000  2       23
siesta:     -0.02582   5.28395   0.00000  2       24
siesta:     -2.35420  38.89134   0.00000  2       25
siesta:     -2.35420  41.57980   0.00000  2       26
siesta:      2.30256  41.57980   0.00000  2       27
siesta:      6.95932  30.82560   0.00000  2       28
siesta:      9.28770  26.79272   0.00000  2       29
siesta:      9.28770  29.48119   0.00000  2       30
siesta:     -4.68258  34.85847   0.00000  2       31
siesta:     -4.68258  37.54693   0.00000  2       32
siesta:      2.30256   6.62836   0.00000  2       33
siesta:      2.30256   9.31683   0.00000  2       34
siesta:      4.63094  10.66124   0.00000  2       35
siesta:      4.63094  13.34970   0.00000  2       36
siesta:      6.95932  14.69411   0.00000  2       37
siesta:      6.95932  17.38257   0.00000  2       38
siesta:      9.28770  18.72698   0.00000  2       39
siesta:      9.28770  21.41544   0.00000  2       40
siesta:     11.61608  22.75985   0.00000  2       41
siesta:     11.61608  25.44831   0.00000  2       42
siesta:     -2.35420   6.62836   0.00000  2       43
siesta:     -2.35420   9.31683   0.00000  2       44
siesta:     -0.02582  10.66124   0.00000  2       45
siesta:     -0.02582  13.34970   0.00000  2       46
siesta:      2.30256  14.69411   0.00000  2       47
siesta:      2.30256  17.38257   0.00000  2       48
siesta:      4.63094  18.72698   0.00000  2       49
siesta:      6.95932  22.75985   0.00000  2       50
siesta:      6.95932  25.44831   0.00000  2       51
siesta:     -4.68258  10.66124   0.00000  2       52
siesta:     -4.68258  13.34970   0.00000  2       53
siesta:     -2.35420  14.69411   0.00000  2       54
siesta:     -2.35420  17.38257   0.00000  2       55
siesta:     -0.02582  18.72698   0.00000  2       56
siesta:     -7.01096  14.69411   0.00000  2       57
siesta:     -7.01096  17.38257   0.00000  2       58
siesta:     -9.33934  18.72698   0.00000  2       59
siesta:     -9.33934  21.41544   0.00000  2       60
siesta:    -11.66772  22.75985   0.00000  2       61
siesta:    -11.66772  25.44831   0.00000  2       62
siesta:     -9.33934  26.79272   0.00000  2       63
siesta:     -9.33934  29.48119   0.00000  2       64
siesta:      4.63094  26.79272   0.00000  2       65
siesta:      4.63094  29.48119   0.00000  2       66
siesta:      2.30256  30.82560   0.00000  2       67
siesta:      2.30256  33.51406   0.00000  2       68
siesta:     -7.01096  30.82560   0.00000  2       69
siesta:     -7.01096  33.51406   0.00000  2       70
siesta:     -0.02582  42.92421   0.00000  2       71
siesta:     -0.02582  45.61267   0.00000  2       72

siesta: System type = slab      

initatomlists: Number of atoms, orbitals, and projectors:     72   936  1152

siesta: ******************** Simulation parameters ****************************
siesta:
siesta: The following are some of the parameters of the simulation.
siesta: A complete list of the parameters used, including default values,
siesta: can be found in file out.fdf
siesta:
redata: Non-Collinear-spin run           =     F
redata: SpinPolarized (Up/Down) run      =     F
redata: Number of spin components        =     1
redata: Long output                      =     F
redata: Number of Atomic Species         =        2
redata: Charge density info will appear in .RHO file
redata: Write Mulliken Pop.              =     NO
redata: Mesh Cutoff                      =   200.0000  Ry
redata: Net charge of the system         =     0.0000 |e|
redata: Max. number of SCF Iter          =      500
redata: SCF convergence failure will abort job
redata: Performing Pulay mixing using    =    10 iterations
redata: Mix DM in first SCF step ?       =     F
redata: Write Pulay info on disk?        =     F
redata: Discard 1st Pulay DM after  kick =     F
redata: New DM Mixing Weight             =     0.0500
redata: New DM Occupancy tolerance       = 0.000000000001
redata: No kicks to SCF
redata: DM Mixing Weight for Kicks       =     0.5000
redata: DM Tolerance for SCF             =     0.000100
redata: Require Energy convergence for SCF =     F
redata: DM Energy tolerance for SCF      =     0.000100 eV
redata: Require Harris convergence for SCF =     F
redata: DM Harris energy tolerance for SCF =     0.000100 eV
redata: Using Saved Data (generic)   =     F
redata: Use continuation files for DM    =     T
redata: Neglect nonoverlap interactions  =     F
redata: Method of Calculation            =     Diagonalization
redata: Divide and Conquer               =     T
redata: Electronic Temperature           =     0.0019  Ry
redata: Fix the spin of the system       =     F
redata: Dynamics option                  =     Verlet MD run
redata: Initial MD time step             =        1
redata:   Final MD time step             =        1
redata: Length of MD time step           =     1.0000  fs
redata: Initial Temperature of MD run    =     0.0000  K
redata: Perform a MD quench              =     F
redata: ***********************************************************************
Total number of electrons:   266.000000
Total ionic charge:   266.000000

* ProcessorY, Blocksize:    2  24

k-point displ. along   1 input, could be:     0.50    0.00
k-point displ. along   2 input, could be:     0.50    0.00
 Kpoints in:          231 . Kpoints trimmed:          231

siesta: k-grid: Number of k-points =   231
siesta: k-grid: Cutoff (effective) =     5.000 Ang
siesta: k-grid: Supercell and displacements
siesta: k-grid:   21   0   0      0.500
siesta: k-grid:    0  21   0      0.500
siesta: k-grid:    0   0   1      0.000
Naive supercell factors:     2    2    2

superc: Internal auxiliary supercell:     2 x     2 x     2  =       8
superc: Number of atoms, orbitals, and projectors:    576   7488   9216

* Maximum dynamic memory allocated =     4 MB

siesta:                 ==============================
                            Begin MD step =      1
                        ==============================

superc: Internal auxiliary supercell:     2 x     2 x     2  =       8
superc: Number of atoms, orbitals, and projectors:    576   7488   9216

outcell: Unit cell vectors (Ang):
       12.804619    7.392750    0.000000
        0.000000   14.785500    0.000000
        0.000000    0.000000   10.000000

outcell: Cell vector modules (Ang)   :   14.785500   14.785500   10.000000
outcell: Cell angles (23,13,12) (deg):     90.0000     90.0000     60.0000
outcell: Cell volume (Ang**3)        :   1893.2269
New_DM. Step:     1
Initializing Density Matrix...

InitMesh: MESH =   120 x   120 x    90 =     1296000
InitMesh: Mesh cutoff (required, used) =   200.000   223.865 Ry

* Maximum dynamic memory allocated =   229 MB

stepf: Fermi-Dirac step function

siesta: Program's energy decomposition (eV):
siesta: Ebs     =     -5496.279451
siesta: Eions   =     15585.763425
siesta: Ena     =      4194.212727
siesta: Ekin    =      5217.942150
siesta: Enl     =       828.541762
siesta: DEna    =        -0.000007
siesta: DUscf   =         0.000000
siesta: DUext   =         0.000000
siesta: Exc     =     -4203.056143
siesta: eta*DQ  =         0.000000
siesta: Emadel  =         0.000000
siesta: Emeta   =         0.000000
siesta: Emolmec =         0.000000
siesta: Ekinion =         0.000000
siesta: Eharris =     -9313.034695
siesta: Etot    =     -9548.122935
siesta: FreeEng =     -9548.122935

siesta: iscf   Eharris(eV)      E_KS(eV)   FreeEng(eV)   dDmax  Ef(eV)
siesta:    1    -9313.0347    -9548.1229    -9548.1229  6.8668 -8.4125
timer: Routine,Calls,Time,% = IterSCF        1    4440.265  99.72
elaps: Routine,Calls,Wall,% = IterSCF        1     555.797  99.72
siesta:    2   -14946.6306    -8446.9630    -8447.0180 20.8332 -4.6503
siesta:    3    -9255.8118    -9419.6506    -9419.6913  3.5435 -6.8224
siesta:    4    -9238.2435    -9306.7123    -9306.7662  1.8884 -5.7840
siesta:    5    -9179.5181    -9206.1065    -9206.1360  1.2602 -5.6159
siesta:    6    -9161.8243    -9153.7064    -9153.7749  1.1632 -5.3691
siesta:    7    -9158.2487    -9147.2562    -9147.2629  1.1022 -5.3756
siesta:    8    -9151.1454    -9135.0289    -9135.0404  0.6929 -5.4400
siesta:    9    -9150.3054    -9132.3337    -9132.3947  0.6621 -5.4150
siesta:   10    -9149.8224    -9126.6505    -9126.7379  0.5152 -5.3715
siesta:   11    -9149.7307    -9120.0132    -9120.0737  0.2732 -5.3203
siesta:   12    -9149.8715    -9116.6003    -9116.6696  0.4836 -5.2604
siesta:   13    -9149.4509    -9116.3843    -9116.4636  0.1813 -5.2560
siesta:   14    -9148.7839    -9121.2407    -9121.3087  0.1545 -5.2956
siesta:   15    -9148.4572    -9124.9677    -9125.0382  0.1448 -5.3068
siesta:   16    -9148.1382    -9132.4961    -9132.5815  0.0776 -5.3491
siesta:   17    -9148.0489    -9139.1784    -9139.2604  0.0765 -5.3761
siesta:   18    -9148.0177    -9142.2595    -9142.3378  0.0634 -5.3742
siesta:   19    -9147.9962    -9144.0907    -9144.1716  0.0351 -5.3693
siesta:   20    -9147.9941    -9145.1500    -9145.2332  0.0665 -5.3613
siesta:   21    -9147.9858    -9146.5769    -9146.6557  0.0226 -5.3530
siesta:   22    -9147.9796    -9147.0150    -9147.0961  0.0123 -5.3515
siesta:   23    -9147.9757    -9147.5941    -9147.6767  0.0086 -5.3496
siesta:   24    -9147.9753    -9147.9811    -9148.0645  0.0072 -5.3477
siesta:   25    -9147.9742    -9148.2863    -9148.3693  0.0128 -5.3453
siesta:   26    -9147.9749    -9148.2375    -9148.3213  0.0033 -5.3460
siesta:   27    -9147.9742    -9148.3457    -9148.4283  0.0045 -5.3458
siesta:   28    -9147.9743    -9148.3242    -9148.4074  0.0022 -5.3464
siesta:   29    -9147.9741    -9148.2695    -9148.3526  0.0031 -5.3469
siesta:   30    -9147.9743    -9148.1471    -9148.2303  0.0012 -5.3473
siesta:   31    -9147.9743    -9148.0569    -9148.1399  0.0009 -5.3474
siesta:   32    -9147.9743    -9148.0260    -9148.1089  0.0006 -5.3473
siesta:   33    -9147.9743    -9148.0331    -9148.1161  0.0003 -5.3473
siesta:   34    -9147.9743    -9148.0312    -9148.1142  0.0003 -5.3473
siesta:   35    -9147.9743    -9148.0255    -9148.1085  0.0002 -5.3472
siesta:   36    -9147.9743    -9148.0099    -9148.0928  0.0002 -5.3472
siesta:   37    -9147.9743    -9147.9972    -9148.0801  0.0001 -5.3472

siesta: E_KS(eV) =            -9147.9862

siesta: E_KS - E_eggbox =     -9147.9862

siesta: Atomic forces (eV/Ang):
----------------------------------------
   Tot    0.005150   -0.045526    0.000000
----------------------------------------
   Max  562.611381
   Res  143.773915    sqrt( Sum f_i^2 / 3N )
----------------------------------------
   Max  562.611381    constrained

Stress-tensor-Voigt (kbar):     -766.00    -2649.97       -0.66        2.80        0.00        0.00
(Free)E + p*V (eV/cell)    -7802.3175
Target enthalpy (eV/cell)    -9148.0692

siesta: Stress tensor (static) (eV/Ang**3):
        -0.478095    0.001744    0.000000
         0.001745   -1.653965    0.000000
         0.000000    0.000000   -0.000414

siesta: Pressure (static):       1138.87837338  kBar

siesta: Stress tensor (total) (eV/Ang**3):
        -0.478095    0.001744    0.000000
         0.001745   -1.653965    0.000000
         0.000000    0.000000   -0.000414

siesta: Pressure (total):       1138.87837338  kBar

siesta: Temp_ion =       0.000 K

* Maximum dynamic memory allocated =   245 MB
Computing bands...

siesta: Program's energy decomposition (eV):
siesta: Ebs     =     -4113.476665
siesta: Eions   =     15585.763425
siesta: Ena     =      4194.212727
siesta: Ekin    =      8065.520181
siesta: Enl     =      -784.328122
siesta: DEna    =      -772.263973
siesta: DUscf   =       103.794247
siesta: DUext   =         0.000000
siesta: Exc     =     -4369.157869
siesta: eta*DQ  =         0.000000
siesta: Emadel  =         0.000000
siesta: Emeta   =         0.000000
siesta: Emolmec =         0.000000
siesta: Ekinion =         0.000000
siesta: Eharris =     -9147.974298
siesta: Etot    =     -9147.986232
siesta: FreeEng =     -9148.069196

siesta: Final energy (eV):
siesta:  Band Struct. =   -4113.476665
siesta:       Kinetic =    8065.520181
siesta:       Hartree =   26010.424278
siesta:    Ext. field =       0.000000
siesta:   Exch.-corr. =   -4369.157869
siesta:  Ion-electron =  -59801.928655
siesta:       Ion-ion =   20947.155833
siesta:       Ekinion =       0.000000
siesta:         Total =   -9147.986232

siesta: Atomic forces (eV/Ang):
siesta:      1   -5.102317  104.416473    0.000000
siesta:      2   17.198898    2.394794    0.000000
siesta:      3   18.007697 -391.027805    0.000000
siesta:      4    2.826847    0.118542    0.000000
siesta:      5    3.730299   -2.007712    0.000000
siesta:      6    0.680508   -4.813488    0.000000
siesta:      7   -2.475029    0.330894    0.000000
siesta:      8    4.924911    1.985344    0.000000
siesta:      9    1.804224   -4.176320    0.000000
siesta:     10    0.459867    0.669493    0.000000
siesta:     11    0.440945    0.071120    0.000000
siesta:     12   -1.211008    0.912428    0.000000
siesta:     13   -2.360118   -2.845458    0.000000
siesta:     14   -2.878220    2.650276    0.000000
siesta:     15   -0.434586    0.184046    0.000000
siesta:     16    0.019159 -411.513459    0.000000
siesta:     17    1.571119   -0.730577    0.000000
siesta:     18   -2.428344    2.566652    0.000000
siesta:     19  -15.295420    0.523469    0.000000
siesta:     20  -16.821454 -396.557538    0.000000
siesta:     21   -3.808479  107.770416    0.000000
siesta:     22    6.859513 -383.929952    0.000000
siesta:     23    2.537876  410.057005    0.000000
siesta:     24   -5.058284 -124.851776    0.000000
siesta:     25    7.827989  116.025962    0.000000
siesta:     26  -12.125731 -548.070648    0.000000
siesta:     27   15.637702 -545.127474    0.000000
siesta:     28    4.129350   -2.431874    0.000000
siesta:     29    3.146538    1.753841    0.000000
siesta:     30   -1.503256    0.843871    0.000000
siesta:     31  -24.598163    0.819060    0.000000
siesta:     32  -30.662142 -549.620277    0.000000
siesta:     33   16.961113  550.735017    0.000000
siesta:     34    7.441155 -130.585927    0.000000
siesta:     35   34.000733  397.976956    0.000000
siesta:     36   22.525441    0.483569    0.000000
siesta:     37   -2.896084   -2.773663    0.000000
siesta:     38    1.874651   -0.296654    0.000000
siesta:     39   -0.775834   -0.848268    0.000000
siesta:     40    2.272950   -1.549250    0.000000
siesta:     41   -0.269412    6.808172    0.000000
siesta:     42   -0.361148   -6.686720    0.000000
siesta:     43  -19.742669  403.034472    0.000000
siesta:     44    2.119855 -123.652783    0.000000
siesta:     45   -1.531563  404.168465    0.000000
siesta:     46    2.116673 -127.081099    0.000000
siesta:     47   27.182835  562.611381    0.000000
siesta:     48   21.885544   -6.237443    0.000000
siesta:     49   -1.333180   -2.276446    0.000000
siesta:     50    2.518611    2.169226    0.000000
siesta:     51   -0.067906   -0.430070    0.000000
siesta:     52  -36.801845  550.783619    0.000000
siesta:     53  -26.899527   -5.361286    0.000000
siesta:     54  -25.068268  558.122690    0.000000
siesta:     55  -19.949776   -6.157999    0.000000
siesta:     56   -1.079842  561.827712    0.000000
siesta:     57    2.907513   -1.233418    0.000000
siesta:     58   -6.291646   -2.741147    0.000000
siesta:     59    1.778407    0.033197    0.000000
siesta:     60   -6.334417   -3.424522    0.000000
siesta:     61   -0.751866    4.766812    0.000000
siesta:     62    0.950683   -5.180796    0.000000
siesta:     63   -7.117274    3.995478    0.000000
siesta:     64    2.103250    0.092250    0.000000
siesta:     65    2.842650    2.034094    0.000000
siesta:     66   -1.137179   -1.542313    0.000000
siesta:     67   21.674930    2.823084    0.000000
siesta:     68   23.623185 -549.805141    0.000000
siesta:     69   -7.114494    2.491682    0.000000
siesta:     70    2.449134    1.481689    0.000000
siesta:     71   -0.166060  127.547032    0.000000
siesta:     72    1.424939 -552.556505    0.000000
siesta: ----------------------------------------
siesta:    Tot    0.005150   -0.045526    0.000000

siesta: Stress tensor (static) (eV/Ang**3):
siesta:    -0.478095    0.001744    0.000000
siesta:     0.001745   -1.653965    0.000000
siesta:     0.000000    0.000000   -0.000414

siesta: Cell volume =       1893.226884 Ang**3

siesta: Pressure (static):
siesta:                Solid            Molecule  Units
siesta:           0.00774178          0.10995257  Ry/Bohr**3
siesta:           0.71082429         10.09547102  eV/Ang**3
siesta:        1138.87837338      16174.90260579  kBar
(Free)E+ p_basis*V_orbitals  =       -9110.380604
(Free)Eharris+ p_basis*V_orbitals  =       -9110.357752

siesta: Electric dipole (a.u.)  =    0.000000    0.000000    0.000000
siesta: Electric dipole (Debye) =    0.000000    0.000000    0.000000

* Maximum dynamic memory allocated : Node    0 =   245 MB
* Maximum dynamic memory allocated : Node    1 =    85 MB
* Maximum dynamic memory allocated : Node    2 =    88 MB
* Maximum dynamic memory allocated : Node    3 =   233 MB
* Maximum dynamic memory allocated : Node    4 =   227 MB
* Maximum dynamic memory allocated : Node    5 =    82 MB
* Maximum dynamic memory allocated : Node    6 =    85 MB
* Maximum dynamic memory allocated : Node    7 =   209 MB

* Maximum memory occured during matrixMtoO                    

timer: CPU execution times:
timer:  Routine       Calls   Time/call    Tot.time        %
timer:  siesta            1  161625.468  161625.468   100.00
timer:  Setup             1       3.776       3.776     0.00
timer:  bands             3     269.201     807.604     0.50
timer:  writewave         1       0.043       0.043     0.00
timer:  KSV_init          1       0.007       0.007     0.00
timer:  IterMD            1  160808.395  160808.395    99.49
timer:  hsparse           1       0.398       0.398     0.00
timer:  overlap           1       7.782       7.782     0.00
timer:  IterSCF          37    4339.502  160561.568    99.34
timer:  kinefsm           2       4.043       8.085     0.01
timer:  nlefsm            2      21.379      42.758     0.03
timer:  DHSCF            38     128.290    4875.034     3.02
timer:  DHSCF1            1       1.005       1.005     0.00
timer:  DHSCF2            1      45.467      45.467     0.03
timer:  REORD           306       0.010       3.080     0.00
timer:  POISON           39       2.238      87.272     0.05
timer:  DHSCF3           38     125.847    4782.169     2.96
timer:  rhoofd           38      26.689    1014.186     0.63
timer:  cellXC           38       3.528     134.050     0.08
timer:  vmat             38      61.540    2338.505     1.45
timer:  MolMec            2       0.000       0.000     0.00
timer:  diagon           37    4209.805  155762.782    96.37
timer:  c-eigval       8668       6.667   57793.566    35.76
timer:  c-buildHS      8668       0.122    1057.426     0.65
timer:  cdiag         17215       6.873  118326.401    73.21
timer:  cdiag1        17215       0.427    7358.765     4.55
timer:  cdiag2        17215       1.906   32816.056    20.30
timer:  cdiag3        17215       3.936   67750.748    41.92
timer:  cdiag4        17215       0.224    3858.095     2.39
timer:  c-eigvec       8547       7.273   62164.588    38.46
timer:  c-buildD       8547       4.278   36563.468    22.62
timer:  DHSCF4            1      44.350      44.350     0.03
timer:  dfscf             1      41.668      41.668     0.03
timer:  overfsm           1       0.490       0.490     0.00
timer:  optical           1       4.994       4.994     0.00
  

elaps: ELAPSED times:
elaps:  Routine       Calls   Time/call    Tot.time        %
elaps:  siesta            1   20227.132   20227.132   100.00
elaps:  Setup             1       0.488       0.488     0.00
elaps:  bands             3      33.703     101.108     0.50
elaps:  writewave         1       0.006       0.006     0.00
elaps:  KSV_init          1       0.001       0.001     0.00
elaps:  IterMD            1   20124.876   20124.876    99.49
elaps:  hsparse           1       0.050       0.050     0.00
elaps:  overlap           1       0.975       0.975     0.00
elaps:  IterSCF          37     543.085   20094.132    99.34
elaps:  kinefsm           2       0.509       1.017     0.01
elaps:  nlefsm            2       2.778       5.555     0.03
elaps:  DHSCF            38      16.200     615.589     3.04
elaps:  DHSCF1            1       0.129       0.129     0.00
elaps:  DHSCF2            1       5.683       5.683     0.03
elaps:  REORD           306       0.001       0.411     0.00
elaps:  POISON           39       0.279      10.897     0.05
elaps:  DHSCF3           38      15.743     598.251     2.96
elaps:  rhoofd           38       7.269     276.238     1.37
elaps:  cellXC           38       0.441      16.744     0.08
elaps:  vmat             38       7.698     292.534     1.45
elaps:  MolMec            2       0.000       0.000     0.00
elaps:  diagon           37     526.865   19494.015    96.38
elaps:  c-eigval       8668       0.834    7231.181    35.75
elaps:  c-buildHS      8668       0.017     144.503     0.71
elaps:  cdiag         17215       0.849   14607.471    72.22
elaps:  cdiag1        17215       0.053     912.137     4.51
elaps:  cdiag2        17215       0.239    4106.173    20.30
elaps:  cdiag3        17215       0.493    8488.787    41.97
elaps:  cdiag4        17215       0.028     484.788     2.40
elaps:  c-eigvec       8547       0.892    7626.162    37.70
elaps:  c-buildD       8547       0.553    4728.473    23.38
elaps:  DHSCF4            1      11.249      11.249     0.06
elaps:  dfscf             1      10.720      10.720     0.05
elaps:  overfsm           1       0.063       0.063     0.00
elaps:  optical           1       0.001       0.001     0.00
  
>> End of run:  25-APR-2016  20:23:16
