Siesta Version:                                        siesta-3.2-pl-3
Architecture  : x86_64-unknown-linux-gnu--unknown
Compiler flags: mpiifort -g -O2 -fPIC -xSSE4.1 -fp-model source -shared-intel 
PARALLEL version

* Running on   12 nodes in parallel
>> Start of run:   6-MAY-2016   2:29:49

                           ***********************       
                           *  WELCOME TO SIESTA  *       
                           ***********************       

reinit: Reading from standard input
************************** Dump of input data file ****************************
#(1) General system descriptors
SystemName            GRP_doping    # Descriptive name of the system
SystemLabel           GRP_doping    # Short name for naming files
%include STRUCT.fdf
%include KPT.fdf
%include BASIS.fdf
#%include TS.fdf # for transiesta calculation
#(4) DFT, Grid, SCF
XC.functional         GGA           # LDA or GGA (default = LDA)
XC.authors            PBE           # CA (Ceperley-Aldr) = PZ
                                    #    (Perdew-Zunger) - LDA - Default
                                    # PW92 (Perdew-Wang-92) - LDA
                                    # PBE (Perdew-Burke-Ernzerhof) - GGA
MeshCutoff            200.000000    Ry      # Default: 50.0 Ry ~ 0.444 Bohr
                                    #         100.0 Ry ~ 0.314 Bohr
MaxSCFIterations      500           # Default: 50
DM.MixingWeight       0.05          # Default: 0.25
DM.NumberPulay        10            # Default: 0
DM.PulayOnFile        F             # SystemLabel.P1, SystemLabel.P2
DM.Tolerance          1.d-4         # Default: 1.d-4
DM.UseSaveDM          .true.        # because of the bug
SCFMustConverge       .true.
NeglNonOverlapInt     F             # Default: F
#(5) Eigenvalue problem: order-N or diagonalization
SolutionMethod        Diagon        # or Transiesta
ElectronicTemperature 300.0 K       # Default: 300.0 K
#(6) Molecular dynamics and relaxations
#MD.TypeOfRun          CG            # Type of dynamics:
#MD.VariableCell       F
#MD.NumCGsteps         0           # 0 for single-point / 100 for gopt
#MD.MaxCGDispl         0.2 Bohr      # Default: 0.2 Bohr
#MD.MaxForceTol        0.02 eV/Ang   # Default: 0.04 eV/Ang
#MD.MaxStressTol       1.0 GPa       # Default: 1.0 GPa
# Geometry Constraints
#%block GeometryConstraints
#	position from 1 to 44
#%endblock GeometryConstraints
BandLinesScale   pi/a
%block BandLines
 1   0.00000000  0.00000000  0.00000000
50   0.00000000  0.07809418  0.00000000
50   0.04509075  0.07809242  0.00000000
20   0.00000000  0.00000000  0.00000000
%endblock BandLines
************************** End of input data file *****************************

reinit: -----------------------------------------------------------------------
reinit: System Name: GRP_doping
reinit: -----------------------------------------------------------------------
reinit: System Label: GRP_doping                                                  
reinit: -----------------------------------------------------------------------

initatom: Reading input for the pseudopotentials and atomic orbitals ----------
 Species number:            1  Label: B Atomic number:           5
 Species number:            2  Label: C Atomic number:           6
Ground state valence configuration:   2s02  2p01
Reading pseudopotential information in formatted form from B.psf

Valence configuration for pseudopotential generation:
2s( 2.00) rc: 1.74
2p( 1.00) rc: 1.74
3d( 0.00) rc: 1.74
4f( 0.00) rc: 1.74
Ground state valence configuration:   2s02  2p02
Reading pseudopotential information in formatted form from C.psf

Valence configuration for pseudopotential generation:
2s( 2.00) rc: 1.54
2p( 2.00) rc: 1.54
3d( 0.00) rc: 1.54
4f( 0.00) rc: 1.54
For B, standard SIESTA heuristics set lmxkb to 3
 (one more than the basis l, including polarization orbitals).
Use PS.lmax or PS.KBprojectors blocks to override.
For C, standard SIESTA heuristics set lmxkb to 3
 (one more than the basis l, including polarization orbitals).
Use PS.lmax or PS.KBprojectors blocks to override.

<basis_specs>
===============================================================================
B                    Z=   5    Mass=  10.810        Charge= 0.17977+309
Lmxo=1 Lmxkb= 3    BasisType=split      Semic=F
L=0  Nsemic=0  Cnfigmx=2
          n=1  nzeta=2  polorb=0
            splnorm:   0.15000    
               vcte:    0.0000    
               rinn:    0.0000    
                rcs:    0.0000      0.0000    
            lambdas:    1.0000      1.0000    
L=1  Nsemic=0  Cnfigmx=2
          n=1  nzeta=2  polorb=1
            splnorm:   0.15000    
               vcte:    0.0000    
               rinn:    0.0000    
                rcs:    0.0000      0.0000    
            lambdas:    1.0000      1.0000    
-------------------------------------------------------------------------------
L=0  Nkbl=1  erefs: 0.17977+309
L=1  Nkbl=1  erefs: 0.17977+309
L=2  Nkbl=1  erefs: 0.17977+309
L=3  Nkbl=1  erefs: 0.17977+309
===============================================================================
</basis_specs>

atom: Called for B                     (Z =   5)

read_vps: Pseudopotential generation method:
read_vps: ATM3      Troullier-Martins                       
Total valence charge:    3.00000

read_vps: Pseudopotential includes a core correction:
read_vps: Pseudo-core for xc-correction

xc_check: Exchange-correlation functional:
xc_check: GGA Perdew, Burke & Ernzerhof 1996
V l=0 = -2*Zval/r beyond r=  1.7165
V l=1 = -2*Zval/r beyond r=  1.7165
V l=2 = -2*Zval/r beyond r=  1.7165
V l=3 = -2*Zval/r beyond r=  1.6951
All V_l potentials equal beyond r=  1.7165
This should be close to max(r_c) in ps generation
All pots = -2*Zval/r beyond r=  1.7165

VLOCAL1: 99.0% of the norm of Vloc inside     14.733 Ry
VLOCAL1: 99.9% of the norm of Vloc inside     33.577 Ry
atom: Maximum radius for 4*pi*r*r*local-pseudopot. charge    2.04484
atom: Maximum radius for r*vlocal+2*Zval:    1.75994
GHOST: No ghost state for L =  0
GHOST: No ghost state for L =  1
GHOST: No ghost state for L =  2
GHOST: No ghost state for L =  3

KBgen: Kleinman-Bylander projectors: 
   l= 0   rc=  1.897051   el= -0.693730   Ekb=  4.595746   kbcos=  0.286105
   l= 1   rc=  1.920920   el= -0.265236   Ekb= -2.350715   kbcos= -0.315747
   l= 2   rc=  2.044840   el=  0.002055   Ekb= -0.690767   kbcos= -0.013822
   l= 3   rc=  2.149707   el=  0.003188   Ekb= -0.315358   kbcos= -0.002055

KBgen: Total number of  Kleinman-Bylander projectors:   16
atom: -------------------------------------------------------------------------

atom: SANKEY-TYPE ORBITALS:
atom: Selected multiple-zeta basis: split     

SPLIT: Orbitals with angular momentum L= 0

SPLIT: Basis orbitals for state 2s

SPLIT: PAO cut-off radius determined from an
SPLIT: energy shift=  0.007350 Ry

   izeta = 1
                 lambda =    1.000000
                     rc =    5.422032
                 energy =   -0.686029
                kinetic =    0.576707
    potential(screened) =   -1.262736
       potential(ionic) =   -3.271094

   izeta = 2
                 rmatch =    4.222573
              splitnorm =    0.150000
                 energy =   -0.602132
                kinetic =    0.858975
    potential(screened) =   -1.461107
       potential(ionic) =   -3.582536

SPLIT: Orbitals with angular momentum L= 1

SPLIT: Basis orbitals for state 2p

SPLIT: PAO cut-off radius determined from an
SPLIT: energy shift=  0.007350 Ry

   izeta = 1
                 lambda =    1.000000
                     rc =    6.790259
                 energy =   -0.258578
                kinetic =    1.481412
    potential(screened) =   -1.739989
       potential(ionic) =   -3.657461

   izeta = 2
                 rmatch =    4.608740
              splitnorm =    0.150000
                 energy =   -0.173757
                kinetic =    2.186690
    potential(screened) =   -2.360447
       potential(ionic) =   -4.464260

POLgen: Perturbative polarization orbital with L=  2

POLgen: Polarization orbital for state 2p

   izeta = 1
                     rc =    6.790259
                 energy =    0.684082
                kinetic =    1.471481
    potential(screened) =   -0.787399
       potential(ionic) =   -2.406985
atom: Total number of Sankey-type orbitals: 13

atm_pop: Valence configuration (for local Pseudopot. screening):
 2s( 2.00)                                                            
 2p( 1.00)                                                            
Vna: chval, zval:    3.00000   3.00000

Vna:  Cut-off radius for the neutral-atom potential:   6.790259
comcore: Pseudo-core radius Rcore=  2.122997

atom: _________________________________________________________________________

<basis_specs>
===============================================================================
C                    Z=   6    Mass=  12.010        Charge= 0.17977+309
Lmxo=1 Lmxkb= 3    BasisType=split      Semic=F
L=0  Nsemic=0  Cnfigmx=2
          n=1  nzeta=2  polorb=0
            splnorm:   0.15000    
               vcte:    0.0000    
               rinn:    0.0000    
                rcs:    0.0000      0.0000    
            lambdas:    1.0000      1.0000    
L=1  Nsemic=0  Cnfigmx=2
          n=1  nzeta=2  polorb=1
            splnorm:   0.15000    
               vcte:    0.0000    
               rinn:    0.0000    
                rcs:    0.0000      0.0000    
            lambdas:    1.0000      1.0000    
-------------------------------------------------------------------------------
L=0  Nkbl=1  erefs: 0.17977+309
L=1  Nkbl=1  erefs: 0.17977+309
L=2  Nkbl=1  erefs: 0.17977+309
L=3  Nkbl=1  erefs: 0.17977+309
===============================================================================
</basis_specs>

atom: Called for C                     (Z =   6)

read_vps: Pseudopotential generation method:
read_vps: ATM3      Troullier-Martins                       
Total valence charge:    4.00000

read_vps: Pseudopotential includes a core correction:
read_vps: Pseudo-core for xc-correction

xc_check: Exchange-correlation functional:
xc_check: GGA Perdew, Burke & Ernzerhof 1996
V l=0 = -2*Zval/r beyond r=  1.5227
V l=1 = -2*Zval/r beyond r=  1.5227
V l=2 = -2*Zval/r beyond r=  1.5227
V l=3 = -2*Zval/r beyond r=  1.5038
All V_l potentials equal beyond r=  1.5227
This should be close to max(r_c) in ps generation
All pots = -2*Zval/r beyond r=  1.5227

VLOCAL1: 99.0% of the norm of Vloc inside     18.722 Ry
VLOCAL1: 99.9% of the norm of Vloc inside     42.668 Ry
atom: Maximum radius for 4*pi*r*r*local-pseudopot. charge    1.83678
atom: Maximum radius for r*vlocal+2*Zval:    1.58088
GHOST: No ghost state for L =  0
GHOST: No ghost state for L =  1
GHOST: No ghost state for L =  2
GHOST: No ghost state for L =  3

KBgen: Kleinman-Bylander projectors: 
   l= 0   rc=  1.704034   el= -1.009801   Ekb=  5.335044   kbcos=  0.316824
   l= 1   rc=  1.704034   el= -0.388707   Ekb= -3.785862   kbcos= -0.366464
   l= 2   rc=  1.791422   el=  0.001971   Ekb= -0.970471   kbcos= -0.009212
   l= 3   rc=  1.859892   el=  0.003065   Ekb= -0.399525   kbcos= -0.001223

KBgen: Total number of  Kleinman-Bylander projectors:   16
atom: -------------------------------------------------------------------------

atom: SANKEY-TYPE ORBITALS:
atom: Selected multiple-zeta basis: split     

SPLIT: Orbitals with angular momentum L= 0

SPLIT: Basis orbitals for state 2s

SPLIT: PAO cut-off radius determined from an
SPLIT: energy shift=  0.007350 Ry

   izeta = 1
                 lambda =    1.000000
                     rc =    4.632753
                 energy =   -1.002270
                kinetic =    0.855760
    potential(screened) =   -1.858031
       potential(ionic) =   -5.417575

   izeta = 2
                 rmatch =    3.431921
              splitnorm =    0.150000
                 energy =   -0.867111
                kinetic =    1.300804
    potential(screened) =   -2.167915
       potential(ionic) =   -5.962684

SPLIT: Orbitals with angular momentum L= 1

SPLIT: Basis orbitals for state 2p

SPLIT: PAO cut-off radius determined from an
SPLIT: energy shift=  0.007350 Ry

   izeta = 1
                 lambda =    1.000000
                     rc =    5.658549
                 energy =   -0.381140
                kinetic =    2.399701
    potential(screened) =   -2.780841
       potential(ionic) =   -6.206085

   izeta = 2
                 rmatch =    3.653288
              splitnorm =    0.150000
                 energy =   -0.249149
                kinetic =    3.542762
    potential(screened) =   -3.791911
       potential(ionic) =   -7.581078

POLgen: Perturbative polarization orbital with L=  2

POLgen: Polarization orbital for state 2p

   izeta = 1
                     rc =    5.658549
                 energy =    1.109913
                kinetic =    2.304789
    potential(screened) =   -1.194876
       potential(ionic) =   -4.013592
atom: Total number of Sankey-type orbitals: 13

atm_pop: Valence configuration (for local Pseudopot. screening):
 2s( 2.00)                                                            
 2p( 2.00)                                                            
Vna: chval, zval:    4.00000   4.00000

Vna:  Cut-off radius for the neutral-atom potential:   5.658549
comcore: Pseudo-core radius Rcore=  1.791422

atom: _________________________________________________________________________

prinput: Basis input ----------------------------------------------------------

PAO.BasisType split     

%block ChemicalSpeciesLabel
    1    5 B                       # Species index, atomic number, species label
    2    6 C                       # Species index, atomic number, species label
%endblock ChemicalSpeciesLabel

%block PAO.Basis                 # Define Basis set
B                     2                    # Species label, number of l-shells
 n=2   0   2                         # n, l, Nzeta 
   5.422      4.223   
   1.000      1.000   
 n=2   1   2 P   1                   # n, l, Nzeta, Polarization, NzetaPol
   6.790      4.609   
   1.000      1.000   
C                     2                    # Species label, number of l-shells
 n=2   0   2                         # n, l, Nzeta 
   4.633      3.432   
   1.000      1.000   
 n=2   1   2 P   1                   # n, l, Nzeta, Polarization, NzetaPol
   5.659      3.653   
   1.000      1.000   
%endblock PAO.Basis

prinput: ----------------------------------------------------------------------

coor:   Atomic-coordinates input format  =     Fractional

siesta: Atomic coordinates (Bohr) and species
siesta:      9.28770  21.41544   0.00000  1        1
siesta:     -0.02582  10.66124   0.00000  1        2
siesta:      2.30256  17.38257   0.00000  1        3
siesta:     -4.68258  21.41544   0.00000  1        4
siesta:     -2.35420  22.75985   0.00000  1        5
siesta:     -9.33934  21.41544   0.00000  1        6
siesta:     -7.01096  25.44831   0.00000  1        7
siesta:    -11.66772  22.75985   0.00000  1        8
siesta:      4.63094  26.79272   0.00000  1        9
siesta:     -0.02582  26.79272   0.00000  1       10
siesta:     -0.02582  29.48119   0.00000  1       11
siesta:     -4.68258  26.79272   0.00000  1       12
siesta:     -4.68258  29.48119   0.00000  1       13
siesta:      2.30256  33.51406   0.00000  1       14
siesta:     -0.02582  34.85847   0.00000  1       15
siesta:     -0.02582   2.59549   0.00000  2       16
siesta:     -0.02582   5.28395   0.00000  2       17
siesta:     -2.35420  38.89134   0.00000  2       18
siesta:     -2.35420  41.57980   0.00000  2       19
siesta:      2.30256  38.89134   0.00000  2       20
siesta:      2.30256  41.57980   0.00000  2       21
siesta:      4.63094  34.85847   0.00000  2       22
siesta:      4.63094  37.54693   0.00000  2       23
siesta:      6.95932  30.82560   0.00000  2       24
siesta:      6.95932  33.51406   0.00000  2       25
siesta:      9.28770  26.79272   0.00000  2       26
siesta:      9.28770  29.48119   0.00000  2       27
siesta:     -4.68258  34.85847   0.00000  2       28
siesta:     -4.68258  37.54693   0.00000  2       29
siesta:      2.30256   6.62836   0.00000  2       30
siesta:      2.30256   9.31683   0.00000  2       31
siesta:      4.63094  10.66124   0.00000  2       32
siesta:      4.63094  13.34970   0.00000  2       33
siesta:      6.95932  14.69411   0.00000  2       34
siesta:      6.95932  17.38257   0.00000  2       35
siesta:      9.28770  18.72698   0.00000  2       36
siesta:     11.61608  22.75985   0.00000  2       37
siesta:     11.61608  25.44831   0.00000  2       38
siesta:     -2.35420   6.62836   0.00000  2       39
siesta:     -2.35420   9.31683   0.00000  2       40
siesta:     -0.02582  13.34970   0.00000  2       41
siesta:      2.30256  14.69411   0.00000  2       42
siesta:      4.63094  18.72698   0.00000  2       43
siesta:      4.63094  21.41544   0.00000  2       44
siesta:      6.95932  22.75985   0.00000  2       45
siesta:      6.95932  25.44831   0.00000  2       46
siesta:     -4.68258  10.66124   0.00000  2       47
siesta:     -4.68258  13.34970   0.00000  2       48
siesta:     -2.35420  14.69411   0.00000  2       49
siesta:     -2.35420  17.38257   0.00000  2       50
siesta:     -0.02582  18.72698   0.00000  2       51
siesta:     -0.02582  21.41544   0.00000  2       52
siesta:      2.30256  22.75985   0.00000  2       53
siesta:      2.30256  25.44831   0.00000  2       54
siesta:     -7.01096  14.69411   0.00000  2       55
siesta:     -7.01096  17.38257   0.00000  2       56
siesta:     -4.68258  18.72698   0.00000  2       57
siesta:     -2.35420  25.44831   0.00000  2       58
siesta:     -9.33934  18.72698   0.00000  2       59
siesta:     -7.01096  22.75985   0.00000  2       60
siesta:    -11.66772  25.44831   0.00000  2       61
siesta:     -9.33934  26.79272   0.00000  2       62
siesta:     -9.33934  29.48119   0.00000  2       63
siesta:      4.63094  29.48119   0.00000  2       64
siesta:      2.30256  30.82560   0.00000  2       65
siesta:     -2.35420  30.82560   0.00000  2       66
siesta:     -2.35420  33.51406   0.00000  2       67
siesta:     -7.01096  30.82560   0.00000  2       68
siesta:     -7.01096  33.51406   0.00000  2       69
siesta:     -0.02582  37.54693   0.00000  2       70
siesta:     -0.02582  42.92421   0.00000  2       71
siesta:     -0.02582  45.61267   0.00000  2       72

siesta: System type = slab      

initatomlists: Number of atoms, orbitals, and projectors:     72   936  1152

siesta: ******************** Simulation parameters ****************************
siesta:
siesta: The following are some of the parameters of the simulation.
siesta: A complete list of the parameters used, including default values,
siesta: can be found in file out.fdf
siesta:
redata: Non-Collinear-spin run           =     F
redata: SpinPolarized (Up/Down) run      =     F
redata: Number of spin components        =     1
redata: Long output                      =     F
redata: Number of Atomic Species         =        2
redata: Charge density info will appear in .RHO file
redata: Write Mulliken Pop.              =     NO
redata: Mesh Cutoff                      =   200.0000  Ry
redata: Net charge of the system         =     0.0000 |e|
redata: Max. number of SCF Iter          =      500
redata: SCF convergence failure will abort job
redata: Performing Pulay mixing using    =    10 iterations
redata: Mix DM in first SCF step ?       =     F
redata: Write Pulay info on disk?        =     F
redata: Discard 1st Pulay DM after  kick =     F
redata: New DM Mixing Weight             =     0.0500
redata: New DM Occupancy tolerance       = 0.000000000001
redata: No kicks to SCF
redata: DM Mixing Weight for Kicks       =     0.5000
redata: DM Tolerance for SCF             =     0.000100
redata: Require Energy convergence for SCF =     F
redata: DM Energy tolerance for SCF      =     0.000100 eV
redata: Require Harris convergence for SCF =     F
redata: DM Harris energy tolerance for SCF =     0.000100 eV
redata: Using Saved Data (generic)   =     F
redata: Use continuation files for DM    =     T
redata: Neglect nonoverlap interactions  =     F
redata: Method of Calculation            =     Diagonalization
redata: Divide and Conquer               =     T
redata: Electronic Temperature           =     0.0019  Ry
redata: Fix the spin of the system       =     F
redata: Dynamics option                  =     Verlet MD run
redata: Initial MD time step             =        1
redata:   Final MD time step             =        1
redata: Length of MD time step           =     1.0000  fs
redata: Initial Temperature of MD run    =     0.0000  K
redata: Perform a MD quench              =     F
redata: ***********************************************************************
Total number of electrons:   273.000000
Total ionic charge:   273.000000

* ProcessorY, Blocksize:    3  24

k-point displ. along   1 input, could be:     0.50    0.00
k-point displ. along   2 input, could be:     0.50    0.00
 Kpoints in:          231 . Kpoints trimmed:          231

siesta: k-grid: Number of k-points =   231
siesta: k-grid: Cutoff (effective) =     5.000 Ang
siesta: k-grid: Supercell and displacements
siesta: k-grid:   21   0   0      0.500
siesta: k-grid:    0  21   0      0.500
siesta: k-grid:    0   0   1      0.000
Naive supercell factors:     2    2    2

superc: Internal auxiliary supercell:     2 x     2 x     2  =       8
superc: Number of atoms, orbitals, and projectors:    576   7488   9216

* Maximum dynamic memory allocated =     4 MB

siesta:                 ==============================
                            Begin MD step =      1
                        ==============================

superc: Internal auxiliary supercell:     2 x     2 x     2  =       8
superc: Number of atoms, orbitals, and projectors:    576   7488   9216

outcell: Unit cell vectors (Ang):
       12.804619    7.392750    0.000000
        0.000000   14.785500    0.000000
        0.000000    0.000000   10.000000

outcell: Cell vector modules (Ang)   :   14.785500   14.785500   10.000000
outcell: Cell angles (23,13,12) (deg):     90.0000     90.0000     60.0000
outcell: Cell volume (Ang**3)        :   1893.2269
New_DM. Step:     1
Initializing Density Matrix...

InitMesh: MESH =   120 x   120 x    90 =     1296000
InitMesh: Mesh cutoff (required, used) =   200.000   223.865 Ry

* Maximum dynamic memory allocated =   158 MB

stepf: Fermi-Dirac step function

siesta: Program's energy decomposition (eV):
siesta: Ebs     =     -5624.153398
siesta: Eions   =     16482.160403
siesta: Ena     =      4354.766573
siesta: Ekin    =      5587.107004
siesta: Enl     =       759.189075
siesta: DEna    =        -0.000010
siesta: DUscf   =         0.000000
siesta: DUext   =         0.000000
siesta: Exc     =     -4190.892802
siesta: eta*DQ  =         0.000000
siesta: Emadel  =         0.000000
siesta: Emeta   =         0.000000
siesta: Emolmec =         0.000000
siesta: Ekinion =         0.000000
siesta: Eharris =     -9705.308950
siesta: Etot    =     -9971.990563
siesta: FreeEng =     -9971.990563

siesta: iscf   Eharris(eV)      E_KS(eV)   FreeEng(eV)   dDmax  Ef(eV)
siesta:    1    -9705.3089    -9971.9906    -9971.9906  6.6555 -8.1146
timer: Routine,Calls,Time,% = IterSCF        1    3059.212  99.60
elaps: Routine,Calls,Wall,% = IterSCF        1     255.543  99.59
siesta:    2   -12922.0680    -9110.5298    -9110.5741 23.1183 -1.9483
siesta:    3    -9638.0874    -9819.0869    -9819.1286  3.0024 -6.8075
siesta:    4    -9611.9977    -9715.5775    -9715.6333  1.6378 -5.7717
siesta:    5    -9583.0282    -9652.3596    -9652.3946  0.9480 -5.3842
siesta:    6    -9567.6633    -9606.7953    -9606.8078  0.8151 -5.2071
siesta:    7    -9560.9016    -9587.9342    -9587.9669  0.7145 -5.2812
siesta:    8    -9559.2243    -9582.3017    -9582.3475  0.7299 -5.2900
siesta:    9    -9557.7021    -9572.6398    -9572.6935  0.6404 -5.2620
siesta:   10    -9559.0092    -9554.0103    -9554.0706  0.3894 -5.0984
siesta:   11    -9557.0709    -9550.2277    -9550.2717  0.3346 -5.1394
siesta:   12    -9556.9598    -9541.4249    -9541.4842  0.1398 -5.1382
siesta:   13    -9556.4237    -9539.1421    -9539.2239  0.1473 -5.1379
siesta:   14    -9555.8534    -9541.5988    -9541.6661  0.1161 -5.1544
siesta:   15    -9555.5398    -9544.7769    -9544.8597  0.0869 -5.1783
siesta:   16    -9555.4527    -9547.4756    -9547.5639  0.0699 -5.2059
siesta:   17    -9555.4025    -9550.6604    -9550.7451  0.0673 -5.2307
siesta:   18    -9555.3634    -9551.8643    -9551.9463  0.0355 -5.2301
siesta:   19    -9555.3299    -9553.3582    -9553.4412  0.0263 -5.2312
siesta:   20    -9555.3191    -9554.4201    -9554.5020  0.0274 -5.2339
siesta:   21    -9555.3101    -9555.2037    -9555.2851  0.0319 -5.2346
siesta:   22    -9555.3057    -9555.7664    -9555.8489  0.0304 -5.2338
siesta:   23    -9555.3048    -9555.5946    -9555.6783  0.0165 -5.2255
siesta:   24    -9555.3048    -9555.4940    -9555.5777  0.0112 -5.2195
siesta:   25    -9555.3043    -9555.5058    -9555.5891  0.0058 -5.2159
siesta:   26    -9555.3039    -9555.6764    -9555.7590  0.0039 -5.2150
siesta:   27    -9555.3038    -9555.6616    -9555.7443  0.0028 -5.2152
siesta:   28    -9555.3036    -9555.6059    -9555.6886  0.0029 -5.2153
siesta:   29    -9555.3035    -9555.5449    -9555.6277  0.0023 -5.2158
siesta:   30    -9555.3036    -9555.4651    -9555.5480  0.0010 -5.2164
siesta:   31    -9555.3036    -9555.4163    -9555.4993  0.0005 -5.2168
siesta:   32    -9555.3036    -9555.3751    -9555.4579  0.0003 -5.2169
siesta:   33    -9555.3036    -9555.3613    -9555.4442  0.0003 -5.2169
siesta:   34    -9555.3036    -9555.3526    -9555.4354  0.0002 -5.2169
siesta:   35    -9555.3036    -9555.3351    -9555.4180  0.0001 -5.2169
siesta:   36    -9555.3036    -9555.3167    -9555.3996  0.0001 -5.2169
siesta:   37    -9555.3036    -9555.3099    -9555.3928  0.0001 -5.2169

siesta: E_KS(eV) =            -9555.3077

siesta: E_KS - E_eggbox =     -9555.3077

siesta: Atomic forces (eV/Ang):
----------------------------------------
   Tot   -0.071565    0.182045    0.000000
----------------------------------------
   Max  560.680124
   Res  148.438816    sqrt( Sum f_i^2 / 3N )
----------------------------------------
   Max  560.680124    constrained

Stress-tensor-Voigt (kbar):     -779.62    -2668.52       -0.55       10.22        0.00        0.00
(Free)E + p*V (eV/cell)    -8197.0133
Target enthalpy (eV/cell)    -9555.3906

siesta: Stress tensor (static) (eV/Ang**3):
        -0.486596    0.006380    0.000000
         0.006380   -1.665541    0.000000
         0.000000    0.000000   -0.000343

siesta: Pressure (static):       1149.56317923  kBar

siesta: Stress tensor (total) (eV/Ang**3):
        -0.486596    0.006380    0.000000
         0.006380   -1.665541    0.000000
         0.000000    0.000000   -0.000343

siesta: Pressure (total):       1149.56317923  kBar

siesta: Temp_ion =       0.000 K

* Maximum dynamic memory allocated =   170 MB
Computing bands...

siesta: Program's energy decomposition (eV):
siesta: Ebs     =     -4265.907215
siesta: Eions   =     16482.160403
siesta: Ena     =      4354.766573
siesta: Ekin    =      8479.288529
siesta: Enl     =      -867.008517
siesta: DEna    =      -783.108911
siesta: DUscf   =       104.937938
siesta: DUext   =         0.000000
siesta: Exc     =     -4362.022948
siesta: eta*DQ  =         0.000000
siesta: Emadel  =         0.000000
siesta: Emeta   =         0.000000
siesta: Emolmec =         0.000000
siesta: Ekinion =         0.000000
siesta: Eharris =     -9555.303597
siesta: Etot    =     -9555.307740
siesta: FreeEng =     -9555.390592

siesta: Final energy (eV):
siesta:  Band Struct. =   -4265.907215
siesta:       Kinetic =    8479.288529
siesta:       Hartree =   27664.075019
siesta:    Ext. field =       0.000000
siesta:   Exch.-corr. =   -4362.022948
siesta:  Ion-electron =  -63506.367667
siesta:       Ion-ion =   22169.719327
siesta:       Ekinion =       0.000000
siesta:         Total =   -9555.307740

siesta: Atomic forces (eV/Ang):
siesta:      1    3.675830   -1.721339    0.000000
siesta:      2   -0.609187  399.582096    0.000000
siesta:      3   20.027494   -2.982413    0.000000
siesta:      4   -4.997432   -1.649532    0.000000
siesta:      5    5.157709    1.369981    0.000000
siesta:      6    0.364536   -3.577249    0.000000
siesta:      7   -3.679075   -3.705865    0.000000
siesta:      8   -6.959893    3.367136    0.000000
siesta:      9   -0.369511   -0.993090    0.000000
siesta:     10    0.179968   -3.409051    0.000000
siesta:     11    0.745509 -410.371970    0.000000
siesta:     12    6.443834   -3.024530    0.000000
siesta:     13    1.215561    4.572055    0.000000
siesta:     14   19.715955 -401.293612    0.000000
siesta:     15    1.645338  105.003797    0.000000
siesta:     16    0.207785  409.939532    0.000000
siesta:     17    3.879413 -124.336488    0.000000
siesta:     18    2.340741  122.639948    0.000000
siesta:     19  -16.985666 -548.005797    0.000000
siesta:     20   -2.550132  120.095722    0.000000
siesta:     21   15.658862 -551.338037    0.000000
siesta:     22   25.331813   -0.184486    0.000000
siesta:     23   30.585618 -548.052578    0.000000
siesta:     24    2.371591    0.580823    0.000000
siesta:     25   -1.973442    2.355749    0.000000
siesta:     26    2.293945    1.613528    0.000000
siesta:     27   -1.252856    0.198806    0.000000
siesta:     28  -26.073042    4.702900    0.000000
siesta:     29  -34.428898 -547.848856    0.000000
siesta:     30   14.141298  402.065811    0.000000
siesta:     31   -6.937549 -118.731797    0.000000
siesta:     32   37.882825  549.687734    0.000000
siesta:     33   26.493025   -5.053812    0.000000
siesta:     34   -2.428239   -1.784391    0.000000
siesta:     35    3.383877   -0.429766    0.000000
siesta:     36   -2.649259   -4.489458    0.000000
siesta:     37    2.910482    9.441392    0.000000
siesta:     38   -0.035184   -7.308947    0.000000
siesta:     39  -23.126132  554.705116    0.000000
siesta:     40    5.508684 -122.182333    0.000000
siesta:     41    1.899640 -126.977596    0.000000
siesta:     42   24.869030  555.061686    0.000000
siesta:     43   -0.131283    2.051460    0.000000
siesta:     44    0.554736    0.340282    0.000000
siesta:     45   -3.000618    2.422755    0.000000
siesta:     46    2.537752   -2.417437    0.000000
siesta:     47  -35.513843  547.798809    0.000000
siesta:     48  -27.133763   -5.669452    0.000000
siesta:     49  -23.820086  555.723958    0.000000
siesta:     50  -22.329130   -5.841452    0.000000
siesta:     51    3.075211  560.680124    0.000000
siesta:     52    2.178750   -1.294016    0.000000
siesta:     53   -0.015146   -0.267365    0.000000
siesta:     54    0.105779   -3.279853    0.000000
siesta:     55    2.849992   -1.777168    0.000000
siesta:     56   -2.534551   -1.597641    0.000000
siesta:     57    1.521704   -1.777767    0.000000
siesta:     58   -2.150303    0.967911    0.000000
siesta:     59    1.991408   -2.768530    0.000000
siesta:     60    1.680886   -0.421421    0.000000
siesta:     61    1.031838    1.185767    0.000000
siesta:     62   -8.261064    3.599171    0.000000
siesta:     63    1.530572    0.223038    0.000000
siesta:     64   -1.761649    2.724191    0.000000
siesta:     65   22.137288    0.973002    0.000000
siesta:     66  -19.438998    3.209437    0.000000
siesta:     67  -14.204738 -554.452280    0.000000
siesta:     68   -6.633453    2.912759    0.000000
siesta:     69    2.842247    1.314004    0.000000
siesta:     70    1.575089 -393.519834    0.000000
siesta:     71    1.653735  130.094854    0.000000
siesta:     72   -4.284798 -548.486078    0.000000
siesta: ----------------------------------------
siesta:    Tot   -0.071565    0.182045    0.000000

siesta: Stress tensor (static) (eV/Ang**3):
siesta:    -0.486596    0.006380    0.000000
siesta:     0.006380   -1.665541    0.000000
siesta:     0.000000    0.000000   -0.000343

siesta: Cell volume =       1893.226884 Ang**3

siesta: Pressure (static):
siesta:                Solid            Molecule  Units
siesta:           0.00781442          0.11405725  Ry/Bohr**3
siesta:           0.71749315         10.47234924  eV/Ang**3
siesta:        1149.56317923      16778.73460970  kBar
(Free)E+ p_basis*V_orbitals  =       -9519.913673
(Free)Eharris+ p_basis*V_orbitals  =       -9519.907323

siesta: Electric dipole (a.u.)  =    0.000000    0.000000    0.000000
siesta: Electric dipole (Debye) =    0.000000    0.000000    0.000000

* Maximum dynamic memory allocated : Node    0 =   170 MB
* Maximum dynamic memory allocated : Node    1 =    68 MB
* Maximum dynamic memory allocated : Node    2 =    70 MB
* Maximum dynamic memory allocated : Node    3 =   157 MB
* Maximum dynamic memory allocated : Node    4 =   162 MB
* Maximum dynamic memory allocated : Node    5 =    61 MB
* Maximum dynamic memory allocated : Node    6 =    62 MB
* Maximum dynamic memory allocated : Node    7 =   152 MB
* Maximum dynamic memory allocated : Node    8 =   151 MB
* Maximum dynamic memory allocated : Node    9 =    60 MB
* Maximum dynamic memory allocated : Node   10 =    62 MB
* Maximum dynamic memory allocated : Node   11 =   144 MB

* Maximum memory occured during matrixMtoO                    

timer: CPU execution times:
timer:  Routine       Calls   Time/call    Tot.time        %
timer:  siesta            1  110116.826  110116.826   100.00
timer:  Setup             1       3.333       3.333     0.00
timer:  bands             3     226.399     679.196     0.62
timer:  writewave         1       0.024       0.024     0.00
timer:  KSV_init          1       0.003       0.003     0.00
timer:  IterMD            1  109427.365  109427.365    99.37
timer:  hsparse           1       0.279       0.279     0.00
timer:  overlap           1       7.210       7.210     0.01
timer:  IterSCF          37    2953.192  109268.108    99.23
timer:  kinefsm           2       3.669       7.338     0.01
timer:  nlefsm            2      20.511      41.023     0.04
timer:  DHSCF            38      82.615    3139.364     2.85
timer:  DHSCF1            1       1.196       1.196     0.00
timer:  DHSCF2            1      32.916      32.916     0.03
timer:  REORD           306       0.002       0.679     0.00
timer:  POISON           39       0.451      17.606     0.02
timer:  DHSCF3           38      80.974    3076.998     2.79
timer:  rhoofd           38      17.100     649.792     0.59
timer:  cellXC           38       2.431      92.366     0.08
timer:  vmat             38      40.570    1541.671     1.40
timer:  MolMec            2       0.000       0.000     0.00
timer:  diagon           37    2869.462  106170.086    96.42
timer:  c-eigval       8668       5.592   48473.502    44.02
timer:  c-buildHS      8668       0.036     310.705     0.28
timer:  cdiag         17215       5.689   97930.043    88.93
timer:  cdiag1        17215       0.261    4495.215     4.08
timer:  cdiag2        17215       1.840   31668.371    28.76
timer:  cdiag3        17215       3.379   58165.962    52.82
timer:  cdiag4        17215       0.087    1505.739     1.37
timer:  c-eigvec       8547       5.854   50030.376    45.43
timer:  c-buildD       8547       0.971    8297.797     7.54
timer:  DHSCF4            1      27.978      27.978     0.03
timer:  dfscf             1      25.870      25.870     0.02
timer:  overfsm           1       0.327       0.327     0.00
timer:  optical           1       6.326       6.326     0.01
  

elaps: ELAPSED times:
elaps:  Routine       Calls   Time/call    Tot.time        %
elaps:  siesta            1    9197.993    9197.993   100.00
elaps:  Setup             1       0.280       0.280     0.00
elaps:  bands             3      18.926      56.779     0.62
elaps:  writewave         1       0.002       0.002     0.00
elaps:  KSV_init          1       0.000       0.000     0.00
elaps:  IterMD            1    9140.402    9140.402    99.37
elaps:  hsparse           1       0.028       0.028     0.00
elaps:  overlap           1       0.713       0.713     0.01
elaps:  IterSCF          37     246.678    9127.099    99.23
elaps:  kinefsm           2       0.365       0.730     0.01
elaps:  nlefsm            2       1.788       3.576     0.04
elaps:  DHSCF            38       6.964     264.642     2.88
elaps:  DHSCF1            1       0.102       0.102     0.00
elaps:  DHSCF2            1       2.747       2.747     0.03
elaps:  REORD           306       0.000       0.092     0.00
elaps:  POISON           39       0.038       1.488     0.02
elaps:  DHSCF3           38       6.765     257.054     2.79
elaps:  rhoofd           38       3.124     118.729     1.29
elaps:  cellXC           38       0.203       7.698     0.08
elaps:  vmat             38       3.390     128.804     1.40
elaps:  MolMec            2       0.000       0.000     0.00
elaps:  diagon           37     239.688    8868.438    96.42
elaps:  c-eigval       8668       0.467    4048.887    44.02
elaps:  c-buildHS      8668       0.004      31.296     0.34
elaps:  cdiag         17215       0.472    8122.853    88.31
elaps:  cdiag1        17215       0.021     367.271     3.99
elaps:  cdiag2        17215       0.154    2647.539    28.78
elaps:  cdiag3        17215       0.283    4866.154    52.90
elaps:  cdiag4        17215       0.007     120.418     1.31
elaps:  c-eigvec       8547       0.483    4131.267    44.91
elaps:  c-buildD       8547       0.087     740.519     8.05
elaps:  DHSCF4            1       4.695       4.695     0.05
elaps:  dfscf             1       4.433       4.433     0.05
elaps:  overfsm           1       0.032       0.032     0.00
elaps:  optical           1       0.000       0.000     0.00
  
>> End of run:   6-MAY-2016   5:03:07
