Siesta Version:                                        siesta-3.2-pl-3
Architecture  : x86_64-unknown-linux-gnu--unknown
Compiler flags: mpiifort -g -O2 -fPIC -xSSE4.1 -fp-model source -shared-intel 
PARALLEL version

* Running on    8 nodes in parallel
>> Start of run:  20-APR-2016  12:40:06

                           ***********************       
                           *  WELCOME TO SIESTA  *       
                           ***********************       

reinit: Reading from standard input
************************** Dump of input data file ****************************
#(1) General system descriptors
SystemName            GRP_doping    # Descriptive name of the system
SystemLabel           GRP_doping    # Short name for naming files
%include STRUCT.fdf
%include KPT.fdf
%include BASIS.fdf
#%include TS.fdf # for transiesta calculation
#(4) DFT, Grid, SCF
XC.functional         GGA           # LDA or GGA (default = LDA)
XC.authors            PBE           # CA (Ceperley-Aldr) = PZ
                                    #    (Perdew-Zunger) - LDA - Default
                                    # PW92 (Perdew-Wang-92) - LDA
                                    # PBE (Perdew-Burke-Ernzerhof) - GGA
MeshCutoff            200.000000    Ry      # Default: 50.0 Ry ~ 0.444 Bohr
                                    #         100.0 Ry ~ 0.314 Bohr
MaxSCFIterations      500           # Default: 50
DM.MixingWeight       0.05          # Default: 0.25
DM.NumberPulay        10            # Default: 0
DM.PulayOnFile        F             # SystemLabel.P1, SystemLabel.P2
DM.Tolerance          1.d-4         # Default: 1.d-4
DM.UseSaveDM          .true.        # because of the bug
SCFMustConverge       .true.
NeglNonOverlapInt     F             # Default: F
#(5) Eigenvalue problem: order-N or diagonalization
SolutionMethod        Diagon        # or Transiesta
ElectronicTemperature 300.0 K       # Default: 300.0 K
#(6) Molecular dynamics and relaxations
#MD.TypeOfRun          CG            # Type of dynamics:
#MD.VariableCell       F
#MD.NumCGsteps         0           # 0 for single-point / 100 for gopt
#MD.MaxCGDispl         0.2 Bohr      # Default: 0.2 Bohr
#MD.MaxForceTol        0.02 eV/Ang   # Default: 0.04 eV/Ang
#MD.MaxStressTol       1.0 GPa       # Default: 1.0 GPa
# Geometry Constraints
#%block GeometryConstraints
#	position from 1 to 44
#%endblock GeometryConstraints
BandLinesScale   pi/a
%block BandLines
 1   0.00000000  0.00000000  0.00000000
50   0.00000000  0.07809418  0.00000000
50   0.04509075  0.07809242  0.00000000
20   0.00000000  0.00000000  0.00000000
%endblock BandLines
************************** End of input data file *****************************

reinit: -----------------------------------------------------------------------
reinit: System Name: GRP_doping
reinit: -----------------------------------------------------------------------
reinit: System Label: GRP_doping                                                  
reinit: -----------------------------------------------------------------------

initatom: Reading input for the pseudopotentials and atomic orbitals ----------
 Species number:            1  Label: N Atomic number:           7
 Species number:            2  Label: C Atomic number:           6
Ground state valence configuration:   2s02  2p03
Reading pseudopotential information in formatted form from N.psf

Valence configuration for pseudopotential generation:
2s( 2.00) rc: 1.48
2p( 3.00) rc: 1.48
3d( 0.00) rc: 1.48
4f( 0.00) rc: 1.48
Ground state valence configuration:   2s02  2p02
Reading pseudopotential information in formatted form from C.psf

Valence configuration for pseudopotential generation:
2s( 2.00) rc: 1.54
2p( 2.00) rc: 1.54
3d( 0.00) rc: 1.54
4f( 0.00) rc: 1.54
For N, standard SIESTA heuristics set lmxkb to 3
 (one more than the basis l, including polarization orbitals).
Use PS.lmax or PS.KBprojectors blocks to override.
For C, standard SIESTA heuristics set lmxkb to 3
 (one more than the basis l, including polarization orbitals).
Use PS.lmax or PS.KBprojectors blocks to override.

<basis_specs>
===============================================================================
N                    Z=   7    Mass=  14.010        Charge= 0.17977+309
Lmxo=1 Lmxkb= 3    BasisType=split      Semic=F
L=0  Nsemic=0  Cnfigmx=2
          n=1  nzeta=2  polorb=0
            splnorm:   0.15000    
               vcte:    0.0000    
               rinn:    0.0000    
                rcs:    0.0000      0.0000    
            lambdas:    1.0000      1.0000    
L=1  Nsemic=0  Cnfigmx=2
          n=1  nzeta=2  polorb=1
            splnorm:   0.15000    
               vcte:    0.0000    
               rinn:    0.0000    
                rcs:    0.0000      0.0000    
            lambdas:    1.0000      1.0000    
-------------------------------------------------------------------------------
L=0  Nkbl=1  erefs: 0.17977+309
L=1  Nkbl=1  erefs: 0.17977+309
L=2  Nkbl=1  erefs: 0.17977+309
L=3  Nkbl=1  erefs: 0.17977+309
===============================================================================
</basis_specs>

atom: Called for N                     (Z =   7)

read_vps: Pseudopotential generation method:
read_vps: ATM3      Troullier-Martins                       
Total valence charge:    5.00000

read_vps: Pseudopotential includes a core correction:
read_vps: Pseudo-core for xc-correction

xc_check: Exchange-correlation functional:
xc_check: GGA Perdew, Burke & Ernzerhof 1996
V l=0 = -2*Zval/r beyond r=  1.4606
V l=1 = -2*Zval/r beyond r=  1.4606
V l=2 = -2*Zval/r beyond r=  1.4606
V l=3 = -2*Zval/r beyond r=  1.4606
All V_l potentials equal beyond r=  1.4606
This should be close to max(r_c) in ps generation
All pots = -2*Zval/r beyond r=  1.4606

VLOCAL1: 99.0% of the norm of Vloc inside     20.347 Ry
VLOCAL1: 99.9% of the norm of Vloc inside     46.372 Ry
atom: Maximum radius for 4*pi*r*r*local-pseudopot. charge    1.76189
atom: Maximum radius for r*vlocal+2*Zval:    1.53550
GHOST: No ghost state for L =  0
GHOST: No ghost state for L =  1
GHOST: No ghost state for L =  2
GHOST: No ghost state for L =  3

KBgen: Kleinman-Bylander projectors: 
   l= 0   rc=  1.634559   el= -1.363963   Ekb=  5.296955   kbcos=  0.335621
   l= 1   rc=  1.614250   el= -0.521451   Ekb= -5.259161   kbcos= -0.433408
   l= 2   rc=  1.718383   el=  0.001991   Ekb= -1.271464   kbcos= -0.007566
   l= 3   rc=  1.761893   el=  0.003093   Ekb= -0.494769   kbcos= -0.001015

KBgen: Total number of  Kleinman-Bylander projectors:   16
atom: -------------------------------------------------------------------------

atom: SANKEY-TYPE ORBITALS:
atom: Selected multiple-zeta basis: split     

SPLIT: Orbitals with angular momentum L= 0

SPLIT: Basis orbitals for state 2s

SPLIT: PAO cut-off radius determined from an
SPLIT: energy shift=  0.007350 Ry

   izeta = 1
                 lambda =    1.000000
                     rc =    4.071465
                 energy =   -1.356470
                kinetic =    1.176977
    potential(screened) =   -2.533447
       potential(ionic) =   -8.057990

   izeta = 2
                 rmatch =    2.905100
              splitnorm =    0.150000
                 energy =   -1.158343
                kinetic =    1.813009
    potential(screened) =   -2.971352
       potential(ionic) =   -8.901931

SPLIT: Orbitals with angular momentum L= 1

SPLIT: Basis orbitals for state 2p

SPLIT: PAO cut-off radius determined from an
SPLIT: energy shift=  0.007350 Ry

   izeta = 1
                 lambda =    1.000000
                     rc =    4.972977
                 energy =   -0.513884
                kinetic =    3.441732
    potential(screened) =   -3.955616
       potential(ionic) =   -9.287901

   izeta = 2
                 rmatch =    3.054066
              splitnorm =    0.150000
                 energy =   -0.318226
                kinetic =    5.125348
    potential(screened) =   -5.443573
       potential(ionic) =  -11.380999

POLgen: Perturbative polarization orbital with L=  2

POLgen: Polarization orbital for state 2p

   izeta = 1
                     rc =    4.972977
                 energy =    1.607437
                kinetic =    3.268125
    potential(screened) =   -1.660688
       potential(ionic) =   -5.973652
atom: Total number of Sankey-type orbitals: 13

atm_pop: Valence configuration (for local Pseudopot. screening):
 2s( 2.00)                                                            
 2p( 3.00)                                                            
Vna: chval, zval:    5.00000   5.00000

Vna:  Cut-off radius for the neutral-atom potential:   4.972977
comcore: Pseudo-core radius Rcore=  1.554824

atom: _________________________________________________________________________

<basis_specs>
===============================================================================
C                    Z=   6    Mass=  12.010        Charge= 0.17977+309
Lmxo=1 Lmxkb= 3    BasisType=split      Semic=F
L=0  Nsemic=0  Cnfigmx=2
          n=1  nzeta=2  polorb=0
            splnorm:   0.15000    
               vcte:    0.0000    
               rinn:    0.0000    
                rcs:    0.0000      0.0000    
            lambdas:    1.0000      1.0000    
L=1  Nsemic=0  Cnfigmx=2
          n=1  nzeta=2  polorb=1
            splnorm:   0.15000    
               vcte:    0.0000    
               rinn:    0.0000    
                rcs:    0.0000      0.0000    
            lambdas:    1.0000      1.0000    
-------------------------------------------------------------------------------
L=0  Nkbl=1  erefs: 0.17977+309
L=1  Nkbl=1  erefs: 0.17977+309
L=2  Nkbl=1  erefs: 0.17977+309
L=3  Nkbl=1  erefs: 0.17977+309
===============================================================================
</basis_specs>

atom: Called for C                     (Z =   6)

read_vps: Pseudopotential generation method:
read_vps: ATM3      Troullier-Martins                       
Total valence charge:    4.00000

read_vps: Pseudopotential includes a core correction:
read_vps: Pseudo-core for xc-correction

xc_check: Exchange-correlation functional:
xc_check: GGA Perdew, Burke & Ernzerhof 1996
V l=0 = -2*Zval/r beyond r=  1.5227
V l=1 = -2*Zval/r beyond r=  1.5227
V l=2 = -2*Zval/r beyond r=  1.5227
V l=3 = -2*Zval/r beyond r=  1.5038
All V_l potentials equal beyond r=  1.5227
This should be close to max(r_c) in ps generation
All pots = -2*Zval/r beyond r=  1.5227

VLOCAL1: 99.0% of the norm of Vloc inside     18.722 Ry
VLOCAL1: 99.9% of the norm of Vloc inside     42.668 Ry
atom: Maximum radius for 4*pi*r*r*local-pseudopot. charge    1.83678
atom: Maximum radius for r*vlocal+2*Zval:    1.58088
GHOST: No ghost state for L =  0
GHOST: No ghost state for L =  1
GHOST: No ghost state for L =  2
GHOST: No ghost state for L =  3

KBgen: Kleinman-Bylander projectors: 
   l= 0   rc=  1.704034   el= -1.009801   Ekb=  5.335044   kbcos=  0.316824
   l= 1   rc=  1.704034   el= -0.388707   Ekb= -3.785862   kbcos= -0.366464
   l= 2   rc=  1.791422   el=  0.001971   Ekb= -0.970471   kbcos= -0.009212
   l= 3   rc=  1.859892   el=  0.003065   Ekb= -0.399525   kbcos= -0.001223

KBgen: Total number of  Kleinman-Bylander projectors:   16
atom: -------------------------------------------------------------------------

atom: SANKEY-TYPE ORBITALS:
atom: Selected multiple-zeta basis: split     

SPLIT: Orbitals with angular momentum L= 0

SPLIT: Basis orbitals for state 2s

SPLIT: PAO cut-off radius determined from an
SPLIT: energy shift=  0.007350 Ry

   izeta = 1
                 lambda =    1.000000
                     rc =    4.632753
                 energy =   -1.002270
                kinetic =    0.855760
    potential(screened) =   -1.858031
       potential(ionic) =   -5.417575

   izeta = 2
                 rmatch =    3.431921
              splitnorm =    0.150000
                 energy =   -0.867111
                kinetic =    1.300804
    potential(screened) =   -2.167915
       potential(ionic) =   -5.962684

SPLIT: Orbitals with angular momentum L= 1

SPLIT: Basis orbitals for state 2p

SPLIT: PAO cut-off radius determined from an
SPLIT: energy shift=  0.007350 Ry

   izeta = 1
                 lambda =    1.000000
                     rc =    5.658549
                 energy =   -0.381140
                kinetic =    2.399701
    potential(screened) =   -2.780841
       potential(ionic) =   -6.206085

   izeta = 2
                 rmatch =    3.653288
              splitnorm =    0.150000
                 energy =   -0.249149
                kinetic =    3.542762
    potential(screened) =   -3.791911
       potential(ionic) =   -7.581078

POLgen: Perturbative polarization orbital with L=  2

POLgen: Polarization orbital for state 2p

   izeta = 1
                     rc =    5.658549
                 energy =    1.109913
                kinetic =    2.304789
    potential(screened) =   -1.194876
       potential(ionic) =   -4.013592
atom: Total number of Sankey-type orbitals: 13

atm_pop: Valence configuration (for local Pseudopot. screening):
 2s( 2.00)                                                            
 2p( 2.00)                                                            
Vna: chval, zval:    4.00000   4.00000

Vna:  Cut-off radius for the neutral-atom potential:   5.658549
comcore: Pseudo-core radius Rcore=  1.791422

atom: _________________________________________________________________________

prinput: Basis input ----------------------------------------------------------

PAO.BasisType split     

%block ChemicalSpeciesLabel
    1    7 N                       # Species index, atomic number, species label
    2    6 C                       # Species index, atomic number, species label
%endblock ChemicalSpeciesLabel

%block PAO.Basis                 # Define Basis set
N                     2                    # Species label, number of l-shells
 n=2   0   2                         # n, l, Nzeta 
   4.071      2.905   
   1.000      1.000   
 n=2   1   2 P   1                   # n, l, Nzeta, Polarization, NzetaPol
   4.973      3.054   
   1.000      1.000   
C                     2                    # Species label, number of l-shells
 n=2   0   2                         # n, l, Nzeta 
   4.633      3.432   
   1.000      1.000   
 n=2   1   2 P   1                   # n, l, Nzeta, Polarization, NzetaPol
   5.659      3.653   
   1.000      1.000   
%endblock PAO.Basis

prinput: ----------------------------------------------------------------------

coor:   Atomic-coordinates input format  =     Fractional

siesta: Atomic coordinates (Bohr) and species
siesta:     -0.02582   2.59549   0.00000  1        1
siesta:     -0.02582   5.28395   0.00000  1        2
siesta:      2.30256   6.62836   0.00000  1        3
siesta:      2.30256   9.31683   0.00000  1        4
siesta:     -2.35420   6.62836   0.00000  1        5
siesta:     -2.35420   9.31683   0.00000  1        6
siesta:     -0.02582  10.66124   0.00000  1        7
siesta:     -0.02582  13.34970   0.00000  1        8
siesta:     -2.35420  14.69411   0.00000  1        9
siesta:     -2.35420  17.38257   0.00000  1       10
siesta:     -0.02582  18.72698   0.00000  1       11
siesta:     -0.02582  21.41544   0.00000  1       12
siesta:     -4.68258  18.72698   0.00000  1       13
siesta:     -4.68258  21.41544   0.00000  1       14
siesta:     -2.35420  22.75985   0.00000  1       15
siesta:     -2.35420  25.44831   0.00000  1       16
siesta:     -9.33934  21.41544   0.00000  1       17
siesta:     -7.01096  22.75985   0.00000  1       18
siesta:     -7.01096  25.44831   0.00000  1       19
siesta:    -11.66772  25.44831   0.00000  1       20
siesta:     -9.33934  26.79272   0.00000  1       21
siesta:     -9.33934  29.48119   0.00000  1       22
siesta:     -4.68258  26.79272   0.00000  1       23
siesta:     -4.68258  29.48119   0.00000  1       24
siesta:     -7.01096  30.82560   0.00000  1       25
siesta:     -7.01096  33.51406   0.00000  1       26
siesta:     -2.35420  38.89134   0.00000  2       27
siesta:     -2.35420  41.57980   0.00000  2       28
siesta:      2.30256  38.89134   0.00000  2       29
siesta:      2.30256  41.57980   0.00000  2       30
siesta:      4.63094  34.85847   0.00000  2       31
siesta:      4.63094  37.54693   0.00000  2       32
siesta:      6.95932  30.82560   0.00000  2       33
siesta:      6.95932  33.51406   0.00000  2       34
siesta:      9.28770  26.79272   0.00000  2       35
siesta:      9.28770  29.48119   0.00000  2       36
siesta:     -4.68258  34.85847   0.00000  2       37
siesta:     -4.68258  37.54693   0.00000  2       38
siesta:      4.63094  10.66124   0.00000  2       39
siesta:      4.63094  13.34970   0.00000  2       40
siesta:      6.95932  14.69411   0.00000  2       41
siesta:      6.95932  17.38257   0.00000  2       42
siesta:      9.28770  18.72698   0.00000  2       43
siesta:      9.28770  21.41544   0.00000  2       44
siesta:     11.61608  22.75985   0.00000  2       45
siesta:     11.61608  25.44831   0.00000  2       46
siesta:      2.30256  14.69411   0.00000  2       47
siesta:      2.30256  17.38257   0.00000  2       48
siesta:      4.63094  18.72698   0.00000  2       49
siesta:      4.63094  21.41544   0.00000  2       50
siesta:      6.95932  22.75985   0.00000  2       51
siesta:      6.95932  25.44831   0.00000  2       52
siesta:     -4.68258  10.66124   0.00000  2       53
siesta:     -4.68258  13.34970   0.00000  2       54
siesta:      2.30256  22.75985   0.00000  2       55
siesta:      2.30256  25.44831   0.00000  2       56
siesta:     -7.01096  14.69411   0.00000  2       57
siesta:     -7.01096  17.38257   0.00000  2       58
siesta:     -9.33934  18.72698   0.00000  2       59
siesta:    -11.66772  22.75985   0.00000  2       60
siesta:      4.63094  26.79272   0.00000  2       61
siesta:      4.63094  29.48119   0.00000  2       62
siesta:     -0.02582  26.79272   0.00000  2       63
siesta:     -0.02582  29.48119   0.00000  2       64
siesta:      2.30256  30.82560   0.00000  2       65
siesta:      2.30256  33.51406   0.00000  2       66
siesta:     -2.35420  30.82560   0.00000  2       67
siesta:     -2.35420  33.51406   0.00000  2       68
siesta:     -0.02582  34.85847   0.00000  2       69
siesta:     -0.02582  37.54693   0.00000  2       70
siesta:     -0.02582  42.92421   0.00000  2       71
siesta:     -0.02582  45.61267   0.00000  2       72

siesta: System type = slab      

initatomlists: Number of atoms, orbitals, and projectors:     72   936  1152

siesta: ******************** Simulation parameters ****************************
siesta:
siesta: The following are some of the parameters of the simulation.
siesta: A complete list of the parameters used, including default values,
siesta: can be found in file out.fdf
siesta:
redata: Non-Collinear-spin run           =     F
redata: SpinPolarized (Up/Down) run      =     F
redata: Number of spin components        =     1
redata: Long output                      =     F
redata: Number of Atomic Species         =        2
redata: Charge density info will appear in .RHO file
redata: Write Mulliken Pop.              =     NO
redata: Mesh Cutoff                      =   200.0000  Ry
redata: Net charge of the system         =     0.0000 |e|
redata: Max. number of SCF Iter          =      500
redata: SCF convergence failure will abort job
redata: Performing Pulay mixing using    =    10 iterations
redata: Mix DM in first SCF step ?       =     F
redata: Write Pulay info on disk?        =     F
redata: Discard 1st Pulay DM after  kick =     F
redata: New DM Mixing Weight             =     0.0500
redata: New DM Occupancy tolerance       = 0.000000000001
redata: No kicks to SCF
redata: DM Mixing Weight for Kicks       =     0.5000
redata: DM Tolerance for SCF             =     0.000100
redata: Require Energy convergence for SCF =     F
redata: DM Energy tolerance for SCF      =     0.000100 eV
redata: Require Harris convergence for SCF =     F
redata: DM Harris energy tolerance for SCF =     0.000100 eV
redata: Using Saved Data (generic)   =     F
redata: Use continuation files for DM    =     T
redata: Neglect nonoverlap interactions  =     F
redata: Method of Calculation            =     Diagonalization
redata: Divide and Conquer               =     T
redata: Electronic Temperature           =     0.0019  Ry
redata: Fix the spin of the system       =     F
redata: Dynamics option                  =     Verlet MD run
redata: Initial MD time step             =        1
redata:   Final MD time step             =        1
redata: Length of MD time step           =     1.0000  fs
redata: Initial Temperature of MD run    =     0.0000  K
redata: Perform a MD quench              =     F
redata: ***********************************************************************
Total number of electrons:   314.000000
Total ionic charge:   314.000000

* ProcessorY, Blocksize:    2  24

k-point displ. along   1 input, could be:     0.50    0.00
k-point displ. along   2 input, could be:     0.50    0.00
 Kpoints in:          231 . Kpoints trimmed:          231

siesta: k-grid: Number of k-points =   231
siesta: k-grid: Cutoff (effective) =     5.000 Ang
siesta: k-grid: Supercell and displacements
siesta: k-grid:   21   0   0      0.500
siesta: k-grid:    0  21   0      0.500
siesta: k-grid:    0   0   1      0.000
Naive supercell factors:     2    2    2

superc: Internal auxiliary supercell:     2 x     2 x     2  =       8
superc: Number of atoms, orbitals, and projectors:    576   7488   9216

* Maximum dynamic memory allocated =     4 MB

siesta:                 ==============================
                            Begin MD step =      1
                        ==============================

superc: Internal auxiliary supercell:     2 x     2 x     2  =       8
superc: Number of atoms, orbitals, and projectors:    576   7488   9216

outcell: Unit cell vectors (Ang):
       12.804619    7.392750    0.000000
        0.000000   14.785500    0.000000
        0.000000    0.000000   10.000000

outcell: Cell vector modules (Ang)   :   14.785500   14.785500   10.000000
outcell: Cell angles (23,13,12) (deg):     90.0000     90.0000     60.0000
outcell: Cell volume (Ang**3)        :   1893.2269
New_DM. Step:     1
Initializing Density Matrix...

InitMesh: MESH =   120 x   120 x    90 =     1296000
InitMesh: Mesh cutoff (required, used) =   200.000   223.865 Ry

* Maximum dynamic memory allocated =   177 MB

stepf: Fermi-Dirac step function

siesta: Program's energy decomposition (eV):
siesta: Ebs     =     -6412.151673
siesta: Eions   =     22582.429020
siesta: Ena     =      4997.440174
siesta: Ekin    =      8560.167659
siesta: Enl     =      -128.224587
siesta: DEna    =        -0.000015
siesta: DUscf   =         0.000000
siesta: DUext   =         0.000000
siesta: Exc     =     -4828.522736
siesta: eta*DQ  =         0.000000
siesta: Emadel  =         0.000000
siesta: Emeta   =         0.000000
siesta: Emolmec =         0.000000
siesta: Ekinion =         0.000000
siesta: Eharris =    -13580.917187
siesta: Etot    =    -13981.568524
siesta: FreeEng =    -13981.568524

siesta: iscf   Eharris(eV)      E_KS(eV)   FreeEng(eV)   dDmax  Ef(eV)
siesta:    1   -13580.9172   -13981.5685   -13981.5685  6.1523 -6.3495
timer: Routine,Calls,Time,% = IterSCF        1    4150.262  99.72
elaps: Routine,Calls,Wall,% = IterSCF        1     519.395  99.73
siesta:    2   -19140.3842   -12860.9519   -12860.9568 19.3698 -4.7846
siesta:    3   -13481.2959   -13834.7450   -13834.7648  3.3246 -5.3303
siesta:    4   -13447.4229   -13635.9059   -13635.9768  1.2658 -4.3367
siesta:    5   -13418.9645   -13521.8302   -13521.8693  1.0529 -3.9706
siesta:    6   -13416.1362   -13500.7748   -13500.8297  1.0085 -3.9290
siesta:    7   -13413.4071   -13485.8337   -13485.8759  0.9031 -3.8938
siesta:    8   -13412.3184   -13448.8211   -13448.8656  0.6327 -3.8617
siesta:    9   -13411.2191   -13432.2933   -13432.3392  0.5256 -3.7917
siesta:   10   -13410.6590   -13412.7355   -13412.7965  0.4356 -3.7797
siesta:   11   -13410.1086   -13400.6477   -13400.7016  0.3184 -3.7990
siesta:   12   -13410.1215   -13396.3095   -13396.3763  0.5546 -3.7768
siesta:   13   -13409.3921   -13390.8220   -13390.8696  0.1896 -3.7911
siesta:   14   -13409.0674   -13392.6473   -13392.7130  0.3814 -3.8593
siesta:   15   -13408.7425   -13392.7885   -13392.8387  0.3309 -3.8736
siesta:   16   -13408.5477   -13393.9600   -13394.0147  0.1058 -3.8687
siesta:   17   -13408.5430   -13394.1154   -13394.1930  0.1643 -3.8789
siesta:   18   -13408.5175   -13395.1117   -13395.1855  0.1190 -3.8653
siesta:   19   -13408.4906   -13396.7802   -13396.8575  0.0940 -3.8690
siesta:   20   -13408.4921   -13398.1315   -13398.2079  0.1557 -3.8797
siesta:   21   -13408.4944   -13402.0573   -13402.1288  0.1054 -3.8703
siesta:   22   -13408.4828   -13403.7404   -13403.8167  0.0994 -3.8639
siesta:   23   -13408.4757   -13406.6110   -13406.6885  0.0637 -3.8788
siesta:   24   -13408.4698   -13407.0994   -13407.1749  0.0180 -3.8783
siesta:   25   -13408.4679   -13407.5406   -13407.6183  0.0182 -3.8783
siesta:   26   -13408.4681   -13407.6951   -13407.7740  0.0127 -3.8789
siesta:   27   -13408.4675   -13407.9209   -13407.9990  0.0212 -3.8778
siesta:   28   -13408.4673   -13408.0164   -13408.0949  0.0079 -3.8779
siesta:   29   -13408.4672   -13408.1073   -13408.1857  0.0051 -3.8778
siesta:   30   -13408.4674   -13408.1831   -13408.2615  0.0024 -3.8779
siesta:   31   -13408.4673   -13408.2419   -13408.3200  0.0023 -3.8778
siesta:   32   -13408.4673   -13408.3597   -13408.4379  0.0015 -3.8777
siesta:   33   -13408.4673   -13408.4341   -13408.5123  0.0007 -3.8776
siesta:   34   -13408.4673   -13408.4544   -13408.5325  0.0008 -3.8776
siesta:   35   -13408.4673   -13408.4532   -13408.5314  0.0006 -3.8777
siesta:   36   -13408.4673   -13408.4586   -13408.5368  0.0004 -3.8777
siesta:   37   -13408.4673   -13408.4664   -13408.5445  0.0003 -3.8777
siesta:   38   -13408.4673   -13408.4751   -13408.5532  0.0002 -3.8777
siesta:   39   -13408.4673   -13408.4682   -13408.5464  0.0001 -3.8777
siesta:   40   -13408.4673   -13408.4636   -13408.5418  0.0001 -3.8777
siesta:   41   -13408.4673   -13408.4643   -13408.5424  0.0002 -3.8777
siesta:   42   -13408.4673   -13408.4647   -13408.5428  0.0001 -3.8777
siesta:   43   -13408.4673   -13408.4653   -13408.5435  0.0001 -3.8777
siesta:   44   -13408.4673   -13408.4653   -13408.5435  0.0001 -3.8777

siesta: E_KS(eV) =           -13408.4655

siesta: E_KS - E_eggbox =    -13408.4655

siesta: Atomic forces (eV/Ang):
----------------------------------------
   Tot   -0.108592   -0.088659    0.000000
----------------------------------------
   Max  688.409511
   Res  184.087156    sqrt( Sum f_i^2 / 3N )
----------------------------------------
   Max  688.409511    constrained

Stress-tensor-Voigt (kbar):     -621.42    -3349.68       -0.04       -0.36        0.00        0.00
(Free)E + p*V (eV/cell)   -11844.3800
Target enthalpy (eV/cell)   -13408.5436

siesta: Stress tensor (static) (eV/Ang**3):
        -0.387858   -0.000222    0.000000
        -0.000222   -2.090686    0.000000
         0.000000    0.000000   -0.000023

siesta: Pressure (static):       1323.71538928  kBar

siesta: Stress tensor (total) (eV/Ang**3):
        -0.387858   -0.000222    0.000000
        -0.000222   -2.090686    0.000000
         0.000000    0.000000   -0.000023

siesta: Pressure (total):       1323.71538928  kBar

siesta: Temp_ion =       0.000 K

* Maximum dynamic memory allocated =   194 MB
Computing bands...

siesta: Program's energy decomposition (eV):
siesta: Ebs     =     -5179.764971
siesta: Eions   =     22582.429020
siesta: Ena     =      4997.440174
siesta: Ekin    =     11771.281066
siesta: Enl     =     -1876.437495
siesta: DEna    =      -824.492425
siesta: DUscf   =       116.768769
siesta: DUext   =         0.000000
siesta: Exc     =     -5010.596564
siesta: eta*DQ  =         0.000000
siesta: Emadel  =         0.000000
siesta: Emeta   =         0.000000
siesta: Emolmec =         0.000000
siesta: Ekinion =         0.000000
siesta: Eharris =    -13408.467310
siesta: Etot    =    -13408.465495
siesta: FreeEng =    -13408.543631

siesta: Final energy (eV):
siesta:  Band Struct. =   -5179.764971
siesta:       Kinetic =   11771.281066
siesta:       Hartree =   37975.651654
siesta:    Ext. field =       0.000000
siesta:   Exch.-corr. =   -5010.596564
siesta:  Ion-electron =  -87196.067801
siesta:       Ion-ion =   29051.266151
siesta:       Ekinion =       0.000000
siesta:         Total =  -13408.465495

siesta: Atomic forces (eV/Ang):
siesta:      1    0.209226  647.148506    0.000000
siesta:      2   -2.252763 -109.287527    0.000000
siesta:      3   22.753305  658.055266    0.000000
siesta:      4    3.060112 -105.489941    0.000000
siesta:      5  -27.814756  657.984455    0.000000
siesta:      6   -2.716380 -107.075728    0.000000
siesta:      7   -1.087251  665.817123    0.000000
siesta:      8    4.265080 -107.397159    0.000000
siesta:      9   -6.964399  676.101157    0.000000
siesta:     10  -36.682392  -12.931368    0.000000
siesta:     11   24.489333  680.012531    0.000000
siesta:     12    1.270044   -4.501949    0.000000
siesta:     13   -1.150061    2.115651    0.000000
siesta:     14    0.367772    1.800778    0.000000
siesta:     15   -2.441613    0.834018    0.000000
siesta:     16   -1.549015    0.534772    0.000000
siesta:     17   -3.065624   -2.792986    0.000000
siesta:     18    2.106186    1.207286    0.000000
siesta:     19    1.469568   -0.025974    0.000000
siesta:     20    0.943778   -2.379187    0.000000
siesta:     21    0.129969    1.461546    0.000000
siesta:     22    0.517441   -0.449107    0.000000
siesta:     23   -0.898012   -0.735117    0.000000
siesta:     24    0.444587   -1.949608    0.000000
siesta:     25   -0.758941    0.015342    0.000000
siesta:     26    2.473323   -2.441560    0.000000
siesta:     27   -1.747221  117.782582    0.000000
siesta:     28  -15.137810 -657.719846    0.000000
siesta:     29   -0.701311  121.427795    0.000000
siesta:     30   -2.933896 -548.160546    0.000000
siesta:     31   26.507813    3.544309    0.000000
siesta:     32   19.329070 -552.610183    0.000000
siesta:     33    1.937383    0.171965    0.000000
siesta:     34   -3.594803    1.593739    0.000000
siesta:     35    2.228507    2.744589    0.000000
siesta:     36   -1.694657   -0.422415    0.000000
siesta:     37  -24.916879    5.569971    0.000000
siesta:     38  -17.915495 -553.224531    0.000000
siesta:     39   31.819942  555.442695    0.000000
siesta:     40   28.006838   -4.278453    0.000000
siesta:     41   -3.425792   -1.916112    0.000000
siesta:     42    1.962398   -0.018620    0.000000
siesta:     43   -1.586241    0.386208    0.000000
siesta:     44    1.774295   -2.575044    0.000000
siesta:     45   -0.003552    7.760356    0.000000
siesta:     46   -0.362697   -7.791855    0.000000
siesta:     47   25.474196  561.993647    0.000000
siesta:     48   26.015317   -9.787651    0.000000
siesta:     49   -1.121411    2.922111    0.000000
siesta:     50   -0.379924   -0.716535    0.000000
siesta:     51   -0.120165    1.056393    0.000000
siesta:     52   -0.306039   -0.895172    0.000000
siesta:     53  -30.360191  556.361793    0.000000
siesta:     54  -28.441407   -8.808296    0.000000
siesta:     55    0.821061    1.281572    0.000000
siesta:     56   -0.717842   -1.454937    0.000000
siesta:     57    2.168610    0.613465    0.000000
siesta:     58   -1.454171   -0.462200    0.000000
siesta:     59    0.110675    1.909702    0.000000
siesta:     60    0.960511    2.914769    0.000000
siesta:     61    0.673450    0.191583    0.000000
siesta:     62   -1.208668   -3.583285    0.000000
siesta:     63   -0.360720    0.872052    0.000000
siesta:     64    1.017628 -688.409511    0.000000
siesta:     65   24.342013    3.782230    0.000000
siesta:     66    1.220201 -684.139377    0.000000
siesta:     67  -24.379765    6.134074    0.000000
siesta:     68    2.697476 -686.188295    0.000000
siesta:     69    0.803851  115.709004    0.000000
siesta:     70   -0.089681 -674.947130    0.000000
siesta:     71    0.560540  120.660324    0.000000
siesta:     72  -14.698546 -640.436816    0.000000
siesta: ----------------------------------------
siesta:    Tot   -0.108592   -0.088659    0.000000

siesta: Stress tensor (static) (eV/Ang**3):
siesta:    -0.387858   -0.000222    0.000000
siesta:    -0.000222   -2.090686    0.000000
siesta:     0.000000    0.000000   -0.000023

siesta: Cell volume =       1893.226884 Ang**3

siesta: Pressure (static):
siesta:                Solid            Molecule  Units
siesta:           0.00899826          0.14731291  Ry/Bohr**3
siesta:           0.82618923         13.52577051  eV/Ang**3
siesta:        1323.71538928      21670.90770900  kBar
(Free)E+ p_basis*V_orbitals  =      -13381.523067
(Free)Eharris+ p_basis*V_orbitals  =      -13381.525046

siesta: Electric dipole (a.u.)  =    0.000000    0.000000    0.000000
siesta: Electric dipole (Debye) =    0.000000    0.000000    0.000000

* Maximum dynamic memory allocated : Node    0 =   194 MB
* Maximum dynamic memory allocated : Node    1 =    71 MB
* Maximum dynamic memory allocated : Node    2 =    72 MB
* Maximum dynamic memory allocated : Node    3 =   184 MB
* Maximum dynamic memory allocated : Node    4 =   186 MB
* Maximum dynamic memory allocated : Node    5 =    72 MB
* Maximum dynamic memory allocated : Node    6 =    73 MB
* Maximum dynamic memory allocated : Node    7 =   170 MB

* Maximum memory occured during matrixMtoO                    

timer: CPU execution times:
timer:  Routine       Calls   Time/call    Tot.time        %
timer:  siesta            1  182237.847  182237.847   100.00
timer:  Setup             1       3.134       3.134     0.00
timer:  bands             3     272.324     816.973     0.45
timer:  writewave         1       0.020       0.020     0.00
timer:  KSV_init          1       0.004       0.004     0.00
timer:  IterMD            1  181411.879  181411.879    99.55
timer:  hsparse           1       0.232       0.232     0.00
timer:  overlap           1       7.697       7.697     0.00
timer:  IterSCF          44    4119.433  181255.073    99.46
timer:  kinefsm           2       3.948       7.897     0.00
timer:  nlefsm            2      18.232      36.464     0.02
timer:  DHSCF            45      80.415    3618.673     1.99
timer:  DHSCF1            1       0.767       0.767     0.00
timer:  DHSCF2            1      32.595      32.595     0.02
timer:  REORD           362       0.011       3.883     0.00
timer:  POISON           46       2.647     121.759     0.07
timer:  DHSCF3           45      78.983    3554.217     1.95
timer:  rhoofd           45      15.746     708.583     0.39
timer:  cellXC           45       3.498     157.416     0.09
timer:  vmat             45      37.415    1683.680     0.92
timer:  MolMec            2       0.000       0.000     0.00
timer:  diagon           44    4037.906  177667.855    97.49
timer:  c-eigval      10285       6.751   69438.833    38.10
timer:  c-buildHS     10285       0.138    1424.444     0.78
timer:  cdiag         20449       6.864  140367.375    77.02
timer:  cdiag1        20449       0.432    8841.672     4.85
timer:  cdiag2        20449       1.916   39187.246    21.50
timer:  cdiag3        20449       3.975   81291.347    44.61
timer:  cdiag4        20449       0.210    4296.265     2.36
timer:  c-eigvec      10164       7.200   73182.872    40.16
timer:  c-buildD      10164       3.523   35805.794    19.65
timer:  DHSCF4            1      28.439      28.439     0.02
timer:  dfscf             1      26.648      26.648     0.01
timer:  overfsm           1       0.395       0.395     0.00
timer:  optical           1       5.115       5.115     0.00
  

elaps: ELAPSED times:
elaps:  Routine       Calls   Time/call    Tot.time        %
elaps:  siesta            1   22805.995   22805.995   100.00
elaps:  Setup             1       0.391       0.391     0.00
elaps:  bands             3      34.093     102.280     0.45
elaps:  writewave         1       0.003       0.003     0.00
elaps:  KSV_init          1       0.001       0.001     0.00
elaps:  IterMD            1   22702.649   22702.649    99.55
elaps:  hsparse           1       0.028       0.028     0.00
elaps:  overlap           1       0.965       0.965     0.00
elaps:  IterSCF          44     515.524   22683.035    99.46
elaps:  kinefsm           2       0.494       0.989     0.00
elaps:  nlefsm            2       2.358       4.716     0.02
elaps:  DHSCF            45      10.145     456.533     2.00
elaps:  DHSCF1            1       0.099       0.099     0.00
elaps:  DHSCF2            1       4.076       4.076     0.02
elaps:  REORD           362       0.001       0.532     0.00
elaps:  POISON           46       0.331      15.224     0.07
elaps:  DHSCF3           45       9.881     444.662     1.95
elaps:  rhoofd           45       4.375     196.894     0.86
elaps:  cellXC           45       0.437      19.666     0.09
elaps:  vmat             45       4.681     210.628     0.92
elaps:  MolMec            2       0.000       0.000     0.00
elaps:  diagon           44     505.325   22234.293    97.49
elaps:  c-eigval      10285       0.845    8688.649    38.10
elaps:  c-buildHS     10285       0.018     189.900     0.83
elaps:  cdiag         20449       0.856   17511.840    76.79
elaps:  cdiag1        20449       0.054    1094.902     4.80
elaps:  cdiag2        20449       0.240    4903.903    21.50
elaps:  cdiag3        20449       0.498   10185.621    44.66
elaps:  cdiag4        20449       0.027     543.835     2.38
elaps:  c-eigvec      10164       0.901    9153.694    40.14
elaps:  c-buildD      10164       0.441    4485.445    19.67
elaps:  DHSCF4            1       7.328       7.328     0.03
elaps:  dfscf             1       6.945       6.945     0.03
elaps:  overfsm           1       0.048       0.048     0.00
elaps:  optical           1       0.000       0.000     0.00
  
>> End of run:  20-APR-2016  19:00:12
