Siesta Version:                                        siesta-3.2-pl-3
Architecture  : x86_64-unknown-linux-gnu--unknown
Compiler flags: mpiifort -g -O2 -fPIC -xSSE4.1 -fp-model source -shared-intel 
PARALLEL version

* Running on   12 nodes in parallel
>> Start of run:   4-MAY-2016   5:20:36

                           ***********************       
                           *  WELCOME TO SIESTA  *       
                           ***********************       

reinit: Reading from standard input
************************** Dump of input data file ****************************
#(1) General system descriptors
SystemName            GRP_doping    # Descriptive name of the system
SystemLabel           GRP_doping    # Short name for naming files
%include STRUCT.fdf
%include KPT.fdf
%include BASIS.fdf
#%include TS.fdf # for transiesta calculation
#(4) DFT, Grid, SCF
XC.functional         GGA           # LDA or GGA (default = LDA)
XC.authors            PBE           # CA (Ceperley-Aldr) = PZ
                                    #    (Perdew-Zunger) - LDA - Default
                                    # PW92 (Perdew-Wang-92) - LDA
                                    # PBE (Perdew-Burke-Ernzerhof) - GGA
MeshCutoff            200.000000    Ry      # Default: 50.0 Ry ~ 0.444 Bohr
                                    #         100.0 Ry ~ 0.314 Bohr
MaxSCFIterations      500           # Default: 50
DM.MixingWeight       0.05          # Default: 0.25
DM.NumberPulay        10            # Default: 0
DM.PulayOnFile        F             # SystemLabel.P1, SystemLabel.P2
DM.Tolerance          1.d-4         # Default: 1.d-4
DM.UseSaveDM          .true.        # because of the bug
SCFMustConverge       .true.
NeglNonOverlapInt     F             # Default: F
#(5) Eigenvalue problem: order-N or diagonalization
SolutionMethod        Diagon        # or Transiesta
ElectronicTemperature 300.0 K       # Default: 300.0 K
#(6) Molecular dynamics and relaxations
#MD.TypeOfRun          CG            # Type of dynamics:
#MD.VariableCell       F
#MD.NumCGsteps         0           # 0 for single-point / 100 for gopt
#MD.MaxCGDispl         0.2 Bohr      # Default: 0.2 Bohr
#MD.MaxForceTol        0.02 eV/Ang   # Default: 0.04 eV/Ang
#MD.MaxStressTol       1.0 GPa       # Default: 1.0 GPa
# Geometry Constraints
#%block GeometryConstraints
#	position from 1 to 44
#%endblock GeometryConstraints
BandLinesScale   pi/a
%block BandLines
 1   0.00000000  0.00000000  0.00000000
50   0.00000000  0.07809418  0.00000000
50   0.04509075  0.07809242  0.00000000
20   0.00000000  0.00000000  0.00000000
%endblock BandLines
************************** End of input data file *****************************

reinit: -----------------------------------------------------------------------
reinit: System Name: GRP_doping
reinit: -----------------------------------------------------------------------
reinit: System Label: GRP_doping                                                  
reinit: -----------------------------------------------------------------------

initatom: Reading input for the pseudopotentials and atomic orbitals ----------
 Species number:            1  Label: B Atomic number:           5
 Species number:            2  Label: C Atomic number:           6
Ground state valence configuration:   2s02  2p01
Reading pseudopotential information in formatted form from B.psf

Valence configuration for pseudopotential generation:
2s( 2.00) rc: 1.74
2p( 1.00) rc: 1.74
3d( 0.00) rc: 1.74
4f( 0.00) rc: 1.74
Ground state valence configuration:   2s02  2p02
Reading pseudopotential information in formatted form from C.psf

Valence configuration for pseudopotential generation:
2s( 2.00) rc: 1.54
2p( 2.00) rc: 1.54
3d( 0.00) rc: 1.54
4f( 0.00) rc: 1.54
For B, standard SIESTA heuristics set lmxkb to 3
 (one more than the basis l, including polarization orbitals).
Use PS.lmax or PS.KBprojectors blocks to override.
For C, standard SIESTA heuristics set lmxkb to 3
 (one more than the basis l, including polarization orbitals).
Use PS.lmax or PS.KBprojectors blocks to override.

<basis_specs>
===============================================================================
B                    Z=   5    Mass=  10.810        Charge= 0.17977+309
Lmxo=1 Lmxkb= 3    BasisType=split      Semic=F
L=0  Nsemic=0  Cnfigmx=2
          n=1  nzeta=2  polorb=0
            splnorm:   0.15000    
               vcte:    0.0000    
               rinn:    0.0000    
                rcs:    0.0000      0.0000    
            lambdas:    1.0000      1.0000    
L=1  Nsemic=0  Cnfigmx=2
          n=1  nzeta=2  polorb=1
            splnorm:   0.15000    
               vcte:    0.0000    
               rinn:    0.0000    
                rcs:    0.0000      0.0000    
            lambdas:    1.0000      1.0000    
-------------------------------------------------------------------------------
L=0  Nkbl=1  erefs: 0.17977+309
L=1  Nkbl=1  erefs: 0.17977+309
L=2  Nkbl=1  erefs: 0.17977+309
L=3  Nkbl=1  erefs: 0.17977+309
===============================================================================
</basis_specs>

atom: Called for B                     (Z =   5)

read_vps: Pseudopotential generation method:
read_vps: ATM3      Troullier-Martins                       
Total valence charge:    3.00000

read_vps: Pseudopotential includes a core correction:
read_vps: Pseudo-core for xc-correction

xc_check: Exchange-correlation functional:
xc_check: GGA Perdew, Burke & Ernzerhof 1996
V l=0 = -2*Zval/r beyond r=  1.7165
V l=1 = -2*Zval/r beyond r=  1.7165
V l=2 = -2*Zval/r beyond r=  1.7165
V l=3 = -2*Zval/r beyond r=  1.6951
All V_l potentials equal beyond r=  1.7165
This should be close to max(r_c) in ps generation
All pots = -2*Zval/r beyond r=  1.7165

VLOCAL1: 99.0% of the norm of Vloc inside     14.733 Ry
VLOCAL1: 99.9% of the norm of Vloc inside     33.577 Ry
atom: Maximum radius for 4*pi*r*r*local-pseudopot. charge    2.04484
atom: Maximum radius for r*vlocal+2*Zval:    1.75994
GHOST: No ghost state for L =  0
GHOST: No ghost state for L =  1
GHOST: No ghost state for L =  2
GHOST: No ghost state for L =  3

KBgen: Kleinman-Bylander projectors: 
   l= 0   rc=  1.897051   el= -0.693730   Ekb=  4.595746   kbcos=  0.286105
   l= 1   rc=  1.920920   el= -0.265236   Ekb= -2.350715   kbcos= -0.315747
   l= 2   rc=  2.044840   el=  0.002055   Ekb= -0.690767   kbcos= -0.013822
   l= 3   rc=  2.149707   el=  0.003188   Ekb= -0.315358   kbcos= -0.002055

KBgen: Total number of  Kleinman-Bylander projectors:   16
atom: -------------------------------------------------------------------------

atom: SANKEY-TYPE ORBITALS:
atom: Selected multiple-zeta basis: split     

SPLIT: Orbitals with angular momentum L= 0

SPLIT: Basis orbitals for state 2s

SPLIT: PAO cut-off radius determined from an
SPLIT: energy shift=  0.007350 Ry

   izeta = 1
                 lambda =    1.000000
                     rc =    5.422032
                 energy =   -0.686029
                kinetic =    0.576707
    potential(screened) =   -1.262736
       potential(ionic) =   -3.271094

   izeta = 2
                 rmatch =    4.222573
              splitnorm =    0.150000
                 energy =   -0.602132
                kinetic =    0.858975
    potential(screened) =   -1.461107
       potential(ionic) =   -3.582536

SPLIT: Orbitals with angular momentum L= 1

SPLIT: Basis orbitals for state 2p

SPLIT: PAO cut-off radius determined from an
SPLIT: energy shift=  0.007350 Ry

   izeta = 1
                 lambda =    1.000000
                     rc =    6.790259
                 energy =   -0.258578
                kinetic =    1.481412
    potential(screened) =   -1.739989
       potential(ionic) =   -3.657461

   izeta = 2
                 rmatch =    4.608740
              splitnorm =    0.150000
                 energy =   -0.173757
                kinetic =    2.186690
    potential(screened) =   -2.360447
       potential(ionic) =   -4.464260

POLgen: Perturbative polarization orbital with L=  2

POLgen: Polarization orbital for state 2p

   izeta = 1
                     rc =    6.790259
                 energy =    0.684082
                kinetic =    1.471481
    potential(screened) =   -0.787399
       potential(ionic) =   -2.406985
atom: Total number of Sankey-type orbitals: 13

atm_pop: Valence configuration (for local Pseudopot. screening):
 2s( 2.00)                                                            
 2p( 1.00)                                                            
Vna: chval, zval:    3.00000   3.00000

Vna:  Cut-off radius for the neutral-atom potential:   6.790259
comcore: Pseudo-core radius Rcore=  2.122997

atom: _________________________________________________________________________

<basis_specs>
===============================================================================
C                    Z=   6    Mass=  12.010        Charge= 0.17977+309
Lmxo=1 Lmxkb= 3    BasisType=split      Semic=F
L=0  Nsemic=0  Cnfigmx=2
          n=1  nzeta=2  polorb=0
            splnorm:   0.15000    
               vcte:    0.0000    
               rinn:    0.0000    
                rcs:    0.0000      0.0000    
            lambdas:    1.0000      1.0000    
L=1  Nsemic=0  Cnfigmx=2
          n=1  nzeta=2  polorb=1
            splnorm:   0.15000    
               vcte:    0.0000    
               rinn:    0.0000    
                rcs:    0.0000      0.0000    
            lambdas:    1.0000      1.0000    
-------------------------------------------------------------------------------
L=0  Nkbl=1  erefs: 0.17977+309
L=1  Nkbl=1  erefs: 0.17977+309
L=2  Nkbl=1  erefs: 0.17977+309
L=3  Nkbl=1  erefs: 0.17977+309
===============================================================================
</basis_specs>

atom: Called for C                     (Z =   6)

read_vps: Pseudopotential generation method:
read_vps: ATM3      Troullier-Martins                       
Total valence charge:    4.00000

read_vps: Pseudopotential includes a core correction:
read_vps: Pseudo-core for xc-correction

xc_check: Exchange-correlation functional:
xc_check: GGA Perdew, Burke & Ernzerhof 1996
V l=0 = -2*Zval/r beyond r=  1.5227
V l=1 = -2*Zval/r beyond r=  1.5227
V l=2 = -2*Zval/r beyond r=  1.5227
V l=3 = -2*Zval/r beyond r=  1.5038
All V_l potentials equal beyond r=  1.5227
This should be close to max(r_c) in ps generation
All pots = -2*Zval/r beyond r=  1.5227

VLOCAL1: 99.0% of the norm of Vloc inside     18.722 Ry
VLOCAL1: 99.9% of the norm of Vloc inside     42.668 Ry
atom: Maximum radius for 4*pi*r*r*local-pseudopot. charge    1.83678
atom: Maximum radius for r*vlocal+2*Zval:    1.58088
GHOST: No ghost state for L =  0
GHOST: No ghost state for L =  1
GHOST: No ghost state for L =  2
GHOST: No ghost state for L =  3

KBgen: Kleinman-Bylander projectors: 
   l= 0   rc=  1.704034   el= -1.009801   Ekb=  5.335044   kbcos=  0.316824
   l= 1   rc=  1.704034   el= -0.388707   Ekb= -3.785862   kbcos= -0.366464
   l= 2   rc=  1.791422   el=  0.001971   Ekb= -0.970471   kbcos= -0.009212
   l= 3   rc=  1.859892   el=  0.003065   Ekb= -0.399525   kbcos= -0.001223

KBgen: Total number of  Kleinman-Bylander projectors:   16
atom: -------------------------------------------------------------------------

atom: SANKEY-TYPE ORBITALS:
atom: Selected multiple-zeta basis: split     

SPLIT: Orbitals with angular momentum L= 0

SPLIT: Basis orbitals for state 2s

SPLIT: PAO cut-off radius determined from an
SPLIT: energy shift=  0.007350 Ry

   izeta = 1
                 lambda =    1.000000
                     rc =    4.632753
                 energy =   -1.002270
                kinetic =    0.855760
    potential(screened) =   -1.858031
       potential(ionic) =   -5.417575

   izeta = 2
                 rmatch =    3.431921
              splitnorm =    0.150000
                 energy =   -0.867111
                kinetic =    1.300804
    potential(screened) =   -2.167915
       potential(ionic) =   -5.962684

SPLIT: Orbitals with angular momentum L= 1

SPLIT: Basis orbitals for state 2p

SPLIT: PAO cut-off radius determined from an
SPLIT: energy shift=  0.007350 Ry

   izeta = 1
                 lambda =    1.000000
                     rc =    5.658549
                 energy =   -0.381140
                kinetic =    2.399701
    potential(screened) =   -2.780841
       potential(ionic) =   -6.206085

   izeta = 2
                 rmatch =    3.653288
              splitnorm =    0.150000
                 energy =   -0.249149
                kinetic =    3.542762
    potential(screened) =   -3.791911
       potential(ionic) =   -7.581078

POLgen: Perturbative polarization orbital with L=  2

POLgen: Polarization orbital for state 2p

   izeta = 1
                     rc =    5.658549
                 energy =    1.109913
                kinetic =    2.304789
    potential(screened) =   -1.194876
       potential(ionic) =   -4.013592
atom: Total number of Sankey-type orbitals: 13

atm_pop: Valence configuration (for local Pseudopot. screening):
 2s( 2.00)                                                            
 2p( 2.00)                                                            
Vna: chval, zval:    4.00000   4.00000

Vna:  Cut-off radius for the neutral-atom potential:   5.658549
comcore: Pseudo-core radius Rcore=  1.791422

atom: _________________________________________________________________________

prinput: Basis input ----------------------------------------------------------

PAO.BasisType split     

%block ChemicalSpeciesLabel
    1    5 B                       # Species index, atomic number, species label
    2    6 C                       # Species index, atomic number, species label
%endblock ChemicalSpeciesLabel

%block PAO.Basis                 # Define Basis set
B                     2                    # Species label, number of l-shells
 n=2   0   2                         # n, l, Nzeta 
   5.422      4.223   
   1.000      1.000   
 n=2   1   2 P   1                   # n, l, Nzeta, Polarization, NzetaPol
   6.790      4.609   
   1.000      1.000   
C                     2                    # Species label, number of l-shells
 n=2   0   2                         # n, l, Nzeta 
   4.633      3.432   
   1.000      1.000   
 n=2   1   2 P   1                   # n, l, Nzeta, Polarization, NzetaPol
   5.659      3.653   
   1.000      1.000   
%endblock PAO.Basis

prinput: ----------------------------------------------------------------------

coor:   Atomic-coordinates input format  =     Fractional

siesta: Atomic coordinates (Bohr) and species
siesta:      2.30256  22.75985   0.00000  1        1
siesta:      2.30256  25.44831   0.00000  1        2
siesta:     -2.35420  22.75985   0.00000  1        3
siesta:     -2.35420  25.44831   0.00000  1        4
siesta:      4.63094  26.79272   0.00000  1        5
siesta:     -0.02582  26.79272   0.00000  1        6
siesta:     -0.02582  29.48119   0.00000  1        7
siesta:      2.30256  30.82560   0.00000  1        8
siesta:     -0.02582   2.59549   0.00000  2        9
siesta:     -0.02582   5.28395   0.00000  2       10
siesta:     -2.35420  38.89134   0.00000  2       11
siesta:     -2.35420  41.57980   0.00000  2       12
siesta:      2.30256  38.89134   0.00000  2       13
siesta:      2.30256  41.57980   0.00000  2       14
siesta:      4.63094  34.85847   0.00000  2       15
siesta:      4.63094  37.54693   0.00000  2       16
siesta:      6.95932  30.82560   0.00000  2       17
siesta:      6.95932  33.51406   0.00000  2       18
siesta:      9.28770  26.79272   0.00000  2       19
siesta:      9.28770  29.48119   0.00000  2       20
siesta:     -4.68258  34.85847   0.00000  2       21
siesta:     -4.68258  37.54693   0.00000  2       22
siesta:      2.30256   6.62836   0.00000  2       23
siesta:      2.30256   9.31683   0.00000  2       24
siesta:      4.63094  10.66124   0.00000  2       25
siesta:      4.63094  13.34970   0.00000  2       26
siesta:      6.95932  14.69411   0.00000  2       27
siesta:      6.95932  17.38257   0.00000  2       28
siesta:      9.28770  18.72698   0.00000  2       29
siesta:      9.28770  21.41544   0.00000  2       30
siesta:     11.61608  22.75985   0.00000  2       31
siesta:     11.61608  25.44831   0.00000  2       32
siesta:     -2.35420   6.62836   0.00000  2       33
siesta:     -2.35420   9.31683   0.00000  2       34
siesta:     -0.02582  10.66124   0.00000  2       35
siesta:     -0.02582  13.34970   0.00000  2       36
siesta:      2.30256  14.69411   0.00000  2       37
siesta:      2.30256  17.38257   0.00000  2       38
siesta:      4.63094  18.72698   0.00000  2       39
siesta:      4.63094  21.41544   0.00000  2       40
siesta:      6.95932  22.75985   0.00000  2       41
siesta:      6.95932  25.44831   0.00000  2       42
siesta:     -4.68258  10.66124   0.00000  2       43
siesta:     -4.68258  13.34970   0.00000  2       44
siesta:     -2.35420  14.69411   0.00000  2       45
siesta:     -2.35420  17.38257   0.00000  2       46
siesta:     -0.02582  18.72698   0.00000  2       47
siesta:     -0.02582  21.41544   0.00000  2       48
siesta:     -7.01096  14.69411   0.00000  2       49
siesta:     -7.01096  17.38257   0.00000  2       50
siesta:     -4.68258  18.72698   0.00000  2       51
siesta:     -4.68258  21.41544   0.00000  2       52
siesta:     -9.33934  18.72698   0.00000  2       53
siesta:     -9.33934  21.41544   0.00000  2       54
siesta:     -7.01096  22.75985   0.00000  2       55
siesta:     -7.01096  25.44831   0.00000  2       56
siesta:    -11.66772  22.75985   0.00000  2       57
siesta:    -11.66772  25.44831   0.00000  2       58
siesta:     -9.33934  26.79272   0.00000  2       59
siesta:     -9.33934  29.48119   0.00000  2       60
siesta:      4.63094  29.48119   0.00000  2       61
siesta:     -4.68258  26.79272   0.00000  2       62
siesta:     -4.68258  29.48119   0.00000  2       63
siesta:      2.30256  33.51406   0.00000  2       64
siesta:     -2.35420  30.82560   0.00000  2       65
siesta:     -2.35420  33.51406   0.00000  2       66
siesta:     -7.01096  30.82560   0.00000  2       67
siesta:     -7.01096  33.51406   0.00000  2       68
siesta:     -0.02582  34.85847   0.00000  2       69
siesta:     -0.02582  37.54693   0.00000  2       70
siesta:     -0.02582  42.92421   0.00000  2       71
siesta:     -0.02582  45.61267   0.00000  2       72

siesta: System type = slab      

initatomlists: Number of atoms, orbitals, and projectors:     72   936  1152

siesta: ******************** Simulation parameters ****************************
siesta:
siesta: The following are some of the parameters of the simulation.
siesta: A complete list of the parameters used, including default values,
siesta: can be found in file out.fdf
siesta:
redata: Non-Collinear-spin run           =     F
redata: SpinPolarized (Up/Down) run      =     F
redata: Number of spin components        =     1
redata: Long output                      =     F
redata: Number of Atomic Species         =        2
redata: Charge density info will appear in .RHO file
redata: Write Mulliken Pop.              =     NO
redata: Mesh Cutoff                      =   200.0000  Ry
redata: Net charge of the system         =     0.0000 |e|
redata: Max. number of SCF Iter          =      500
redata: SCF convergence failure will abort job
redata: Performing Pulay mixing using    =    10 iterations
redata: Mix DM in first SCF step ?       =     F
redata: Write Pulay info on disk?        =     F
redata: Discard 1st Pulay DM after  kick =     F
redata: New DM Mixing Weight             =     0.0500
redata: New DM Occupancy tolerance       = 0.000000000001
redata: No kicks to SCF
redata: DM Mixing Weight for Kicks       =     0.5000
redata: DM Tolerance for SCF             =     0.000100
redata: Require Energy convergence for SCF =     F
redata: DM Energy tolerance for SCF      =     0.000100 eV
redata: Require Harris convergence for SCF =     F
redata: DM Harris energy tolerance for SCF =     0.000100 eV
redata: Using Saved Data (generic)   =     F
redata: Use continuation files for DM    =     T
redata: Neglect nonoverlap interactions  =     F
redata: Method of Calculation            =     Diagonalization
redata: Divide and Conquer               =     T
redata: Electronic Temperature           =     0.0019  Ry
redata: Fix the spin of the system       =     F
redata: Dynamics option                  =     Verlet MD run
redata: Initial MD time step             =        1
redata:   Final MD time step             =        1
redata: Length of MD time step           =     1.0000  fs
redata: Initial Temperature of MD run    =     0.0000  K
redata: Perform a MD quench              =     F
redata: ***********************************************************************
Total number of electrons:   280.000000
Total ionic charge:   280.000000

* ProcessorY, Blocksize:    3  24

k-point displ. along   1 input, could be:     0.50    0.00
k-point displ. along   2 input, could be:     0.50    0.00
 Kpoints in:          231 . Kpoints trimmed:          231

siesta: k-grid: Number of k-points =   231
siesta: k-grid: Cutoff (effective) =     5.000 Ang
siesta: k-grid: Supercell and displacements
siesta: k-grid:   21   0   0      0.500
siesta: k-grid:    0  21   0      0.500
siesta: k-grid:    0   0   1      0.000
Naive supercell factors:     2    2    2

superc: Internal auxiliary supercell:     2 x     2 x     2  =       8
superc: Number of atoms, orbitals, and projectors:    576   7488   9216

* Maximum dynamic memory allocated =     4 MB

siesta:                 ==============================
                            Begin MD step =      1
                        ==============================

superc: Internal auxiliary supercell:     2 x     2 x     2  =       8
superc: Number of atoms, orbitals, and projectors:    576   7488   9216

outcell: Unit cell vectors (Ang):
       12.804619    7.392750    0.000000
        0.000000   14.785500    0.000000
        0.000000    0.000000   10.000000

outcell: Cell vector modules (Ang)   :   14.785500   14.785500   10.000000
outcell: Cell angles (23,13,12) (deg):     90.0000     90.0000     60.0000
outcell: Cell volume (Ang**3)        :   1893.2269
New_DM. Step:     1
Initializing Density Matrix...

InitMesh: MESH =   120 x   120 x    90 =     1296000
InitMesh: Mesh cutoff (required, used) =   200.000   223.865 Ry

* Maximum dynamic memory allocated =   151 MB

stepf: Fermi-Dirac step function

siesta: Program's energy decomposition (eV):
siesta: Ebs     =     -5745.605656
siesta: Eions   =     17378.557381
siesta: Ena     =      4523.319944
siesta: Ekin    =      5956.271858
siesta: Enl     =       694.340781
siesta: DEna    =        -0.000012
siesta: DUscf   =         0.000000
siesta: DUext   =         0.000000
siesta: Exc     =     -4182.276670
siesta: eta*DQ  =         0.000000
siesta: Emadel  =         0.000000
siesta: Emeta   =         0.000000
siesta: Emolmec =         0.000000
siesta: Ekinion =         0.000000
siesta: Eharris =    -10077.517797
siesta: Etot    =    -10386.901482
siesta: FreeEng =    -10386.901482

siesta: iscf   Eharris(eV)      E_KS(eV)   FreeEng(eV)   dDmax  Ef(eV)
siesta:    1   -10077.5178   -10386.9015   -10386.9015  6.3603 -8.0491
timer: Routine,Calls,Time,% = IterSCF        1    5329.077  99.77
elaps: Routine,Calls,Wall,% = IterSCF        1     464.492  99.77
siesta:    2   -14207.2818    -9424.3983    -9424.5039 16.1488 -2.6665
siesta:    3   -10021.6196   -10226.1636   -10226.2218  3.2474 -6.3237
siesta:    4   -10001.0070   -10071.4803   -10071.4883  1.0361 -5.3759
siesta:    5    -9954.5593   -10010.0296   -10010.0825  0.7772 -5.1437
siesta:    6    -9938.3501    -9973.3114    -9973.3739  0.6899 -4.9770
siesta:    7    -9935.1802    -9966.9683    -9967.0429  0.7195 -5.0484
siesta:    8    -9932.4749    -9958.8614    -9958.9409  0.7107 -5.1241
siesta:    9    -9930.8985    -9950.4967    -9950.5755  0.6691 -5.0472
siesta:   10    -9931.0216    -9931.0974    -9931.1484  0.4252 -4.9654
siesta:   11    -9929.5462    -9924.9476    -9925.0269  0.3854 -4.9193
siesta:   12    -9929.3040    -9910.3767    -9910.4563  0.2342 -4.7931
siesta:   13    -9929.5839    -9905.3350    -9905.4046  0.1529 -4.8155
siesta:   14    -9929.1116    -9907.9071    -9907.9591  0.1320 -4.7966
siesta:   15    -9928.7575    -9911.5756    -9911.6322  0.0941 -4.8248
siesta:   16    -9928.4618    -9917.2080    -9917.2664  0.0657 -4.8649
siesta:   17    -9928.3492    -9919.6531    -9919.7153  0.0563 -4.8910
siesta:   18    -9928.2929    -9921.8241    -9921.8915  0.0386 -4.9017
siesta:   19    -9928.2587    -9923.1172    -9923.1803  0.0328 -4.8878
siesta:   20    -9928.2528    -9923.8146    -9923.8806  0.0309 -4.8828
siesta:   21    -9928.2451    -9925.0257    -9925.0923  0.0262 -4.8845
siesta:   22    -9928.2434    -9926.0639    -9926.1323  0.0224 -4.8878
siesta:   23    -9928.2399    -9927.1381    -9927.2054  0.0154 -4.8925
siesta:   24    -9928.2397    -9927.6062    -9927.6753  0.0119 -4.8923
siesta:   25    -9928.2384    -9928.2186    -9928.2867  0.0085 -4.8926
siesta:   26    -9928.2379    -9928.4745    -9928.5435  0.0066 -4.8922
siesta:   27    -9928.2380    -9928.6291    -9928.6982  0.0044 -4.8916
siesta:   28    -9928.2379    -9928.6026    -9928.6716  0.0031 -4.8907
siesta:   29    -9928.2380    -9928.4224    -9928.4914  0.0020 -4.8896
siesta:   30    -9928.2379    -9928.3607    -9928.4295  0.0016 -4.8895
siesta:   31    -9928.2378    -9928.3151    -9928.3840  0.0012 -4.8895
siesta:   32    -9928.2378    -9928.3093    -9928.3782  0.0009 -4.8896
siesta:   33    -9928.2378    -9928.2972    -9928.3661  0.0007 -4.8899
siesta:   34    -9928.2378    -9928.2846    -9928.3535  0.0006 -4.8900
siesta:   35    -9928.2378    -9928.2714    -9928.3403  0.0003 -4.8902
siesta:   36    -9928.2378    -9928.2528    -9928.3217  0.0001 -4.8901
siesta:   37    -9928.2378    -9928.2487    -9928.3176  0.0001 -4.8902
siesta:   38    -9928.2378    -9928.2380    -9928.3069  0.0001 -4.8902
siesta:   39    -9928.2378    -9928.2367    -9928.3057  0.0001 -4.8902

siesta: E_KS(eV) =            -9928.2391

siesta: E_KS - E_eggbox =     -9928.2391

siesta: Atomic forces (eV/Ang):
----------------------------------------
   Tot   -0.277835   -0.125069    0.000000
----------------------------------------
   Max  564.553449
   Res  157.120400    sqrt( Sum f_i^2 / 3N )
----------------------------------------
   Max  564.553449    constrained

Stress-tensor-Voigt (kbar):     -767.20    -2808.53       -0.40       -3.35        0.00        0.00
(Free)E + p*V (eV/cell)    -8519.7337
Target enthalpy (eV/cell)    -9928.3081

siesta: Stress tensor (static) (eV/Ang**3):
        -0.478844   -0.002093    0.000000
        -0.002093   -1.752925    0.000000
         0.000000    0.000000   -0.000253

siesta: Pressure (static):       1192.04378830  kBar

siesta: Stress tensor (total) (eV/Ang**3):
        -0.478844   -0.002093    0.000000
        -0.002093   -1.752925    0.000000
         0.000000    0.000000   -0.000253

siesta: Pressure (total):       1192.04378830  kBar

siesta: Temp_ion =       0.000 K

* Maximum dynamic memory allocated =   163 MB
Computing bands...

siesta: Program's energy decomposition (eV):
siesta: Ebs     =     -4415.223193
siesta: Eions   =     17378.557381
siesta: Ena     =      4523.319944
siesta: Ekin    =      8894.922243
siesta: Enl     =      -929.998198
siesta: DEna    =      -788.048329
siesta: DUscf   =       104.168374
siesta: DUext   =         0.000000
siesta: Exc     =     -4354.045800
siesta: eta*DQ  =         0.000000
siesta: Emadel  =         0.000000
siesta: Emeta   =         0.000000
siesta: Emolmec =         0.000000
siesta: Ekinion =         0.000000
siesta: Eharris =     -9928.237828
siesta: Etot    =     -9928.239148
siesta: FreeEng =     -9928.308060

siesta: Final energy (eV):
siesta:  Band Struct. =   -4415.223193
siesta:       Kinetic =    8894.922243
siesta:       Hartree =   29191.460764
siesta:    Ext. field =       0.000000
siesta:   Exch.-corr. =   -4354.045800
siesta:  Ion-electron =  -66958.388573
siesta:       Ion-ion =   23297.812217
siesta:       Ekinion =       0.000000
siesta:         Total =   -9928.239148

siesta: Atomic forces (eV/Ang):
siesta:      1    0.264522   -5.008565    0.000000
siesta:      2   -1.895889    2.246319    0.000000
siesta:      3    0.683310   -5.300598    0.000000
siesta:      4   -4.757729    3.233018    0.000000
siesta:      5    3.824105    1.629537    0.000000
siesta:      6    1.501896    0.353836    0.000000
siesta:      7   -1.176214 -408.770968    0.000000
siesta:      8   19.570265    1.268578    0.000000
siesta:      9   -1.722529  404.381879    0.000000
siesta:     10    2.204454 -126.678879    0.000000
siesta:     11    2.152165  126.666876    0.000000
siesta:     12  -15.029909 -547.334670    0.000000
siesta:     13   -2.068330  126.607753    0.000000
siesta:     14   14.528790 -547.636531    0.000000
siesta:     15   26.520710    3.757224    0.000000
siesta:     16   31.931875 -548.640346    0.000000
siesta:     17    3.467654    0.297461    0.000000
siesta:     18   -2.530544    2.068881    0.000000
siesta:     19    2.711633    1.200540    0.000000
siesta:     20   -1.584826    0.943791    0.000000
siesta:     21  -27.040341    4.322176    0.000000
siesta:     22  -32.360340 -548.508504    0.000000
siesta:     23   17.631694  552.095350    0.000000
siesta:     24   -2.011696 -127.001826    0.000000
siesta:     25   34.212794  548.867450    0.000000
siesta:     26   26.688655   -5.748919    0.000000
siesta:     27   -2.366497   -1.757817    0.000000
siesta:     28    2.115445   -0.455117    0.000000
siesta:     29   -1.258005   -0.447035    0.000000
siesta:     30    2.836539   -1.764096    0.000000
siesta:     31   -0.215143    7.061477    0.000000
siesta:     32   -0.410676   -7.222995    0.000000
siesta:     33  -15.483075  548.746220    0.000000
siesta:     34    1.626450 -126.457508    0.000000
siesta:     35   -0.361305  543.031764    0.000000
siesta:     36    0.064697 -126.054961    0.000000
siesta:     37   23.280157  557.133235    0.000000
siesta:     38   21.430270   -5.685951    0.000000
siesta:     39   -0.569812    2.707168    0.000000
siesta:     40    3.080039   -2.485809    0.000000
siesta:     41    0.250420    0.197811    0.000000
siesta:     42    2.630253   -2.212073    0.000000
siesta:     43  -33.804940  548.618766    0.000000
siesta:     44  -26.873973   -5.503944    0.000000
siesta:     45  -22.879079  557.174166    0.000000
siesta:     46  -21.404241   -5.581236    0.000000
siesta:     47    0.281652  564.553449    0.000000
siesta:     48   -0.354482   -2.972052    0.000000
siesta:     49    2.472153   -1.973124    0.000000
siesta:     50   -2.073999   -0.336122    0.000000
siesta:     51    0.526806    2.553137    0.000000
siesta:     52   -3.054192   -2.207192    0.000000
siesta:     53    1.183551   -0.521459    0.000000
siesta:     54   -2.600007   -1.553742    0.000000
siesta:     55    0.005684    0.014155    0.000000
siesta:     56   -0.271751   -0.172177    0.000000
siesta:     57    0.209132    7.232302    0.000000
siesta:     58    0.310855   -7.364895    0.000000
siesta:     59   -2.447322    1.411947    0.000000
siesta:     60    1.434834    0.653937    0.000000
siesta:     61    0.477987    1.914694    0.000000
siesta:     62   -2.199628    1.644374    0.000000
siesta:     63    0.665119   -1.657100    0.000000
siesta:     64   24.101534 -554.640358    0.000000
siesta:     65  -21.644229    2.290814    0.000000
siesta:     66  -25.128140 -557.760029    0.000000
siesta:     67   -2.532304    0.189325    0.000000
siesta:     68    2.660808    2.191151    0.000000
siesta:     69    0.548767  124.528304    0.000000
siesta:     70    0.143858 -545.467942    0.000000
siesta:     71   -0.079997  127.306990    0.000000
siesta:     72   -0.318228 -548.336381    0.000000
siesta: ----------------------------------------
siesta:    Tot   -0.277835   -0.125069    0.000000

siesta: Stress tensor (static) (eV/Ang**3):
siesta:    -0.478844   -0.002093    0.000000
siesta:    -0.002093   -1.752925    0.000000
siesta:     0.000000    0.000000   -0.000253

siesta: Cell volume =       1893.226884 Ang**3

siesta: Pressure (static):
siesta:                Solid            Molecule  Units
siesta:           0.00810319          0.12179570  Ry/Bohr**3
siesta:           0.74400717         11.18286672  eV/Ang**3
siesta:        1192.04378830      17917.12143113  kBar
(Free)E+ p_basis*V_orbitals  =       -9895.042814
(Free)Eharris+ p_basis*V_orbitals  =       -9895.043901

siesta: Electric dipole (a.u.)  =    0.000000    0.000000    0.000000
siesta: Electric dipole (Debye) =    0.000000    0.000000    0.000000

* Maximum dynamic memory allocated : Node    0 =   163 MB
* Maximum dynamic memory allocated : Node    1 =    66 MB
* Maximum dynamic memory allocated : Node    2 =    67 MB
* Maximum dynamic memory allocated : Node    3 =   149 MB
* Maximum dynamic memory allocated : Node    4 =   154 MB
* Maximum dynamic memory allocated : Node    5 =    57 MB
* Maximum dynamic memory allocated : Node    6 =    59 MB
* Maximum dynamic memory allocated : Node    7 =   147 MB
* Maximum dynamic memory allocated : Node    8 =   148 MB
* Maximum dynamic memory allocated : Node    9 =    59 MB
* Maximum dynamic memory allocated : Node   10 =    60 MB
* Maximum dynamic memory allocated : Node   11 =   141 MB

* Maximum memory occured during matrixMtoO                    

timer: CPU execution times:
timer:  Routine       Calls   Time/call    Tot.time        %
timer:  siesta            1  207968.586  207968.586   100.00
timer:  Setup             1       3.227       3.227     0.00
timer:  bands             3     419.125    1257.376     0.60
timer:  writewave         1       0.023       0.023     0.00
timer:  KSV_init          1       0.005       0.005     0.00
timer:  IterMD            1  206701.199  206701.199    99.39
timer:  hsparse           1       0.280       0.280     0.00
timer:  overlap           1       6.023       6.023     0.00
timer:  IterSCF          39    5296.180  206551.020    99.32
timer:  kinefsm           2       3.073       6.147     0.00
timer:  nlefsm            2      19.664      39.328     0.02
timer:  DHSCF            40      76.740    3069.602     1.48
timer:  DHSCF1            1       1.187       1.187     0.00
timer:  DHSCF2            1      36.491      36.491     0.02
timer:  REORD           322       0.002       0.715     0.00
timer:  POISON           41       0.625      25.615     0.01
timer:  DHSCF3           40      75.104    3004.175     1.44
timer:  rhoofd           40      15.766     630.658     0.30
timer:  cellXC           40       2.995     119.799     0.06
timer:  vmat             40      34.889    1395.549     0.67
timer:  MolMec            2       0.000       0.000     0.00
timer:  diagon           39    5217.344  203476.403    97.84
timer:  c-eigval       9130      10.374   94710.185    45.54
timer:  c-buildHS      9130       0.033     300.977     0.14
timer:  cdiag         18139      10.643  193044.387    92.82
timer:  cdiag1        18139       0.478    8671.713     4.17
timer:  cdiag2        18139       3.384   61385.123    29.52
timer:  cdiag3        18139       6.318  114603.577    55.11
timer:  cdiag4        18139       0.166    3016.467     1.45
timer:  c-eigvec       9009      10.978   98900.170    47.56
timer:  c-buildD       9009       1.229   11073.326     5.32
timer:  DHSCF4            1      27.507      27.507     0.01
timer:  dfscf             1      25.456      25.456     0.01
timer:  overfsm           1       0.314       0.314     0.00
timer:  optical           1       6.076       6.076     0.00
  

elaps: ELAPSED times:
elaps:  Routine       Calls   Time/call    Tot.time        %
elaps:  siesta            1   18126.376   18126.376   100.00
elaps:  Setup             1       0.278       0.278     0.00
elaps:  bands             3      36.552     109.656     0.60
elaps:  writewave         1       0.002       0.002     0.00
elaps:  KSV_init          1       0.000       0.000     0.00
elaps:  IterMD            1   18015.912   18015.912    99.39
elaps:  hsparse           1       0.028       0.028     0.00
elaps:  overlap           1       0.717       0.717     0.00
elaps:  IterSCF          39     461.611   18002.822    99.32
elaps:  kinefsm           2       0.380       0.760     0.00
elaps:  nlefsm            2       2.127       4.255     0.02
elaps:  DHSCF            40       6.742     269.684     1.49
elaps:  DHSCF1            1       0.101       0.101     0.00
elaps:  DHSCF2            1       3.181       3.181     0.02
elaps:  REORD           322       0.000       0.090     0.00
elaps:  POISON           41       0.056       2.306     0.01
elaps:  DHSCF3           40       6.546     261.838     1.44
elaps:  rhoofd           40       3.071     122.821     0.68
elaps:  cellXC           40       0.261      10.421     0.06
elaps:  vmat             40       3.041     121.658     0.67
elaps:  MolMec            2       0.000       0.000     0.00
elaps:  diagon           39     454.747   17735.137    97.84
elaps:  c-eigval       9130       0.904    8254.982    45.54
elaps:  c-buildHS      9130       0.004      33.718     0.19
elaps:  cdiag         18139       0.921   16714.983    92.21
elaps:  cdiag1        18139       0.041     745.917     4.12
elaps:  cdiag2        18139       0.295    5357.986    29.56
elaps:  cdiag3        18139       0.552   10010.592    55.23
elaps:  cdiag4        18139       0.014     248.748     1.37
elaps:  c-eigvec       9009       0.947    8527.769    47.05
elaps:  c-buildD       9009       0.117    1055.973     5.83
elaps:  DHSCF4            1       4.524       4.524     0.02
elaps:  dfscf             1       4.271       4.271     0.02
elaps:  overfsm           1       0.036       0.036     0.00
elaps:  optical           1       0.000       0.000     0.00
  
>> End of run:   4-MAY-2016  10:22:42
