Siesta Version:                                        siesta-3.2-pl-3
Architecture  : x86_64-unknown-linux-gnu--unknown
Compiler flags: mpiifort -g -O2 -fPIC -xSSE4.1 -fp-model source -shared-intel 
PARALLEL version

* Running on    8 nodes in parallel
>> Start of run:  28-APR-2016  23:52:51

                           ***********************       
                           *  WELCOME TO SIESTA  *       
                           ***********************       

reinit: Reading from standard input
************************** Dump of input data file ****************************
#(1) General system descriptors
SystemName            GRP_doping    # Descriptive name of the system
SystemLabel           GRP_doping    # Short name for naming files
%include STRUCT.fdf
%include KPT.fdf
%include BASIS.fdf
#%include TS.fdf # for transiesta calculation
#(4) DFT, Grid, SCF
XC.functional         GGA           # LDA or GGA (default = LDA)
XC.authors            PBE           # CA (Ceperley-Aldr) = PZ
                                    #    (Perdew-Zunger) - LDA - Default
                                    # PW92 (Perdew-Wang-92) - LDA
                                    # PBE (Perdew-Burke-Ernzerhof) - GGA
MeshCutoff            200.000000    Ry      # Default: 50.0 Ry ~ 0.444 Bohr
                                    #         100.0 Ry ~ 0.314 Bohr
MaxSCFIterations      500           # Default: 50
DM.MixingWeight       0.05          # Default: 0.25
DM.NumberPulay        10            # Default: 0
DM.PulayOnFile        F             # SystemLabel.P1, SystemLabel.P2
DM.Tolerance          1.d-4         # Default: 1.d-4
DM.UseSaveDM          .true.        # because of the bug
SCFMustConverge       .true.
NeglNonOverlapInt     F             # Default: F
#(5) Eigenvalue problem: order-N or diagonalization
SolutionMethod        Diagon        # or Transiesta
ElectronicTemperature 300.0 K       # Default: 300.0 K
#(6) Molecular dynamics and relaxations
#MD.TypeOfRun          CG            # Type of dynamics:
#MD.VariableCell       F
#MD.NumCGsteps         0           # 0 for single-point / 100 for gopt
#MD.MaxCGDispl         0.2 Bohr      # Default: 0.2 Bohr
#MD.MaxForceTol        0.02 eV/Ang   # Default: 0.04 eV/Ang
#MD.MaxStressTol       1.0 GPa       # Default: 1.0 GPa
# Geometry Constraints
#%block GeometryConstraints
#	position from 1 to 44
#%endblock GeometryConstraints
BandLinesScale   pi/a
%block BandLines
 1   0.00000000  0.00000000  0.00000000
50   0.00000000  0.07809418  0.00000000
50   0.04509075  0.07809242  0.00000000
20   0.00000000  0.00000000  0.00000000
%endblock BandLines
************************** End of input data file *****************************

reinit: -----------------------------------------------------------------------
reinit: System Name: GRP_doping
reinit: -----------------------------------------------------------------------
reinit: System Label: GRP_doping                                                  
reinit: -----------------------------------------------------------------------

initatom: Reading input for the pseudopotentials and atomic orbitals ----------
 Species number:            1  Label: N Atomic number:           7
 Species number:            2  Label: C Atomic number:           6
Ground state valence configuration:   2s02  2p03
Reading pseudopotential information in formatted form from N.psf

Valence configuration for pseudopotential generation:
2s( 2.00) rc: 1.48
2p( 3.00) rc: 1.48
3d( 0.00) rc: 1.48
4f( 0.00) rc: 1.48
Ground state valence configuration:   2s02  2p02
Reading pseudopotential information in formatted form from C.psf

Valence configuration for pseudopotential generation:
2s( 2.00) rc: 1.54
2p( 2.00) rc: 1.54
3d( 0.00) rc: 1.54
4f( 0.00) rc: 1.54
For N, standard SIESTA heuristics set lmxkb to 3
 (one more than the basis l, including polarization orbitals).
Use PS.lmax or PS.KBprojectors blocks to override.
For C, standard SIESTA heuristics set lmxkb to 3
 (one more than the basis l, including polarization orbitals).
Use PS.lmax or PS.KBprojectors blocks to override.

<basis_specs>
===============================================================================
N                    Z=   7    Mass=  14.010        Charge= 0.17977+309
Lmxo=1 Lmxkb= 3    BasisType=split      Semic=F
L=0  Nsemic=0  Cnfigmx=2
          n=1  nzeta=2  polorb=0
            splnorm:   0.15000    
               vcte:    0.0000    
               rinn:    0.0000    
                rcs:    0.0000      0.0000    
            lambdas:    1.0000      1.0000    
L=1  Nsemic=0  Cnfigmx=2
          n=1  nzeta=2  polorb=1
            splnorm:   0.15000    
               vcte:    0.0000    
               rinn:    0.0000    
                rcs:    0.0000      0.0000    
            lambdas:    1.0000      1.0000    
-------------------------------------------------------------------------------
L=0  Nkbl=1  erefs: 0.17977+309
L=1  Nkbl=1  erefs: 0.17977+309
L=2  Nkbl=1  erefs: 0.17977+309
L=3  Nkbl=1  erefs: 0.17977+309
===============================================================================
</basis_specs>

atom: Called for N                     (Z =   7)

read_vps: Pseudopotential generation method:
read_vps: ATM3      Troullier-Martins                       
Total valence charge:    5.00000

read_vps: Pseudopotential includes a core correction:
read_vps: Pseudo-core for xc-correction

xc_check: Exchange-correlation functional:
xc_check: GGA Perdew, Burke & Ernzerhof 1996
V l=0 = -2*Zval/r beyond r=  1.4606
V l=1 = -2*Zval/r beyond r=  1.4606
V l=2 = -2*Zval/r beyond r=  1.4606
V l=3 = -2*Zval/r beyond r=  1.4606
All V_l potentials equal beyond r=  1.4606
This should be close to max(r_c) in ps generation
All pots = -2*Zval/r beyond r=  1.4606

VLOCAL1: 99.0% of the norm of Vloc inside     20.347 Ry
VLOCAL1: 99.9% of the norm of Vloc inside     46.372 Ry
atom: Maximum radius for 4*pi*r*r*local-pseudopot. charge    1.76189
atom: Maximum radius for r*vlocal+2*Zval:    1.53550
GHOST: No ghost state for L =  0
GHOST: No ghost state for L =  1
GHOST: No ghost state for L =  2
GHOST: No ghost state for L =  3

KBgen: Kleinman-Bylander projectors: 
   l= 0   rc=  1.634559   el= -1.363963   Ekb=  5.296955   kbcos=  0.335621
   l= 1   rc=  1.614250   el= -0.521451   Ekb= -5.259161   kbcos= -0.433408
   l= 2   rc=  1.718383   el=  0.001991   Ekb= -1.271464   kbcos= -0.007566
   l= 3   rc=  1.761893   el=  0.003093   Ekb= -0.494769   kbcos= -0.001015

KBgen: Total number of  Kleinman-Bylander projectors:   16
atom: -------------------------------------------------------------------------

atom: SANKEY-TYPE ORBITALS:
atom: Selected multiple-zeta basis: split     

SPLIT: Orbitals with angular momentum L= 0

SPLIT: Basis orbitals for state 2s

SPLIT: PAO cut-off radius determined from an
SPLIT: energy shift=  0.007350 Ry

   izeta = 1
                 lambda =    1.000000
                     rc =    4.071465
                 energy =   -1.356470
                kinetic =    1.176977
    potential(screened) =   -2.533447
       potential(ionic) =   -8.057990

   izeta = 2
                 rmatch =    2.905100
              splitnorm =    0.150000
                 energy =   -1.158343
                kinetic =    1.813009
    potential(screened) =   -2.971352
       potential(ionic) =   -8.901931

SPLIT: Orbitals with angular momentum L= 1

SPLIT: Basis orbitals for state 2p

SPLIT: PAO cut-off radius determined from an
SPLIT: energy shift=  0.007350 Ry

   izeta = 1
                 lambda =    1.000000
                     rc =    4.972977
                 energy =   -0.513884
                kinetic =    3.441732
    potential(screened) =   -3.955616
       potential(ionic) =   -9.287901

   izeta = 2
                 rmatch =    3.054066
              splitnorm =    0.150000
                 energy =   -0.318226
                kinetic =    5.125348
    potential(screened) =   -5.443573
       potential(ionic) =  -11.380999

POLgen: Perturbative polarization orbital with L=  2

POLgen: Polarization orbital for state 2p

   izeta = 1
                     rc =    4.972977
                 energy =    1.607437
                kinetic =    3.268125
    potential(screened) =   -1.660688
       potential(ionic) =   -5.973652
atom: Total number of Sankey-type orbitals: 13

atm_pop: Valence configuration (for local Pseudopot. screening):
 2s( 2.00)                                                            
 2p( 3.00)                                                            
Vna: chval, zval:    5.00000   5.00000

Vna:  Cut-off radius for the neutral-atom potential:   4.972977
comcore: Pseudo-core radius Rcore=  1.554824

atom: _________________________________________________________________________

<basis_specs>
===============================================================================
C                    Z=   6    Mass=  12.010        Charge= 0.17977+309
Lmxo=1 Lmxkb= 3    BasisType=split      Semic=F
L=0  Nsemic=0  Cnfigmx=2
          n=1  nzeta=2  polorb=0
            splnorm:   0.15000    
               vcte:    0.0000    
               rinn:    0.0000    
                rcs:    0.0000      0.0000    
            lambdas:    1.0000      1.0000    
L=1  Nsemic=0  Cnfigmx=2
          n=1  nzeta=2  polorb=1
            splnorm:   0.15000    
               vcte:    0.0000    
               rinn:    0.0000    
                rcs:    0.0000      0.0000    
            lambdas:    1.0000      1.0000    
-------------------------------------------------------------------------------
L=0  Nkbl=1  erefs: 0.17977+309
L=1  Nkbl=1  erefs: 0.17977+309
L=2  Nkbl=1  erefs: 0.17977+309
L=3  Nkbl=1  erefs: 0.17977+309
===============================================================================
</basis_specs>

atom: Called for C                     (Z =   6)

read_vps: Pseudopotential generation method:
read_vps: ATM3      Troullier-Martins                       
Total valence charge:    4.00000

read_vps: Pseudopotential includes a core correction:
read_vps: Pseudo-core for xc-correction

xc_check: Exchange-correlation functional:
xc_check: GGA Perdew, Burke & Ernzerhof 1996
V l=0 = -2*Zval/r beyond r=  1.5227
V l=1 = -2*Zval/r beyond r=  1.5227
V l=2 = -2*Zval/r beyond r=  1.5227
V l=3 = -2*Zval/r beyond r=  1.5038
All V_l potentials equal beyond r=  1.5227
This should be close to max(r_c) in ps generation
All pots = -2*Zval/r beyond r=  1.5227

VLOCAL1: 99.0% of the norm of Vloc inside     18.722 Ry
VLOCAL1: 99.9% of the norm of Vloc inside     42.668 Ry
atom: Maximum radius for 4*pi*r*r*local-pseudopot. charge    1.83678
atom: Maximum radius for r*vlocal+2*Zval:    1.58088
GHOST: No ghost state for L =  0
GHOST: No ghost state for L =  1
GHOST: No ghost state for L =  2
GHOST: No ghost state for L =  3

KBgen: Kleinman-Bylander projectors: 
   l= 0   rc=  1.704034   el= -1.009801   Ekb=  5.335044   kbcos=  0.316824
   l= 1   rc=  1.704034   el= -0.388707   Ekb= -3.785862   kbcos= -0.366464
   l= 2   rc=  1.791422   el=  0.001971   Ekb= -0.970471   kbcos= -0.009212
   l= 3   rc=  1.859892   el=  0.003065   Ekb= -0.399525   kbcos= -0.001223

KBgen: Total number of  Kleinman-Bylander projectors:   16
atom: -------------------------------------------------------------------------

atom: SANKEY-TYPE ORBITALS:
atom: Selected multiple-zeta basis: split     

SPLIT: Orbitals with angular momentum L= 0

SPLIT: Basis orbitals for state 2s

SPLIT: PAO cut-off radius determined from an
SPLIT: energy shift=  0.007350 Ry

   izeta = 1
                 lambda =    1.000000
                     rc =    4.632753
                 energy =   -1.002270
                kinetic =    0.855760
    potential(screened) =   -1.858031
       potential(ionic) =   -5.417575

   izeta = 2
                 rmatch =    3.431921
              splitnorm =    0.150000
                 energy =   -0.867111
                kinetic =    1.300804
    potential(screened) =   -2.167915
       potential(ionic) =   -5.962684

SPLIT: Orbitals with angular momentum L= 1

SPLIT: Basis orbitals for state 2p

SPLIT: PAO cut-off radius determined from an
SPLIT: energy shift=  0.007350 Ry

   izeta = 1
                 lambda =    1.000000
                     rc =    5.658549
                 energy =   -0.381140
                kinetic =    2.399701
    potential(screened) =   -2.780841
       potential(ionic) =   -6.206085

   izeta = 2
                 rmatch =    3.653288
              splitnorm =    0.150000
                 energy =   -0.249149
                kinetic =    3.542762
    potential(screened) =   -3.791911
       potential(ionic) =   -7.581078

POLgen: Perturbative polarization orbital with L=  2

POLgen: Polarization orbital for state 2p

   izeta = 1
                     rc =    5.658549
                 energy =    1.109913
                kinetic =    2.304789
    potential(screened) =   -1.194876
       potential(ionic) =   -4.013592
atom: Total number of Sankey-type orbitals: 13

atm_pop: Valence configuration (for local Pseudopot. screening):
 2s( 2.00)                                                            
 2p( 2.00)                                                            
Vna: chval, zval:    4.00000   4.00000

Vna:  Cut-off radius for the neutral-atom potential:   5.658549
comcore: Pseudo-core radius Rcore=  1.791422

atom: _________________________________________________________________________

prinput: Basis input ----------------------------------------------------------

PAO.BasisType split     

%block ChemicalSpeciesLabel
    1    7 N                       # Species index, atomic number, species label
    2    6 C                       # Species index, atomic number, species label
%endblock ChemicalSpeciesLabel

%block PAO.Basis                 # Define Basis set
N                     2                    # Species label, number of l-shells
 n=2   0   2                         # n, l, Nzeta 
   4.071      2.905   
   1.000      1.000   
 n=2   1   2 P   1                   # n, l, Nzeta, Polarization, NzetaPol
   4.973      3.054   
   1.000      1.000   
C                     2                    # Species label, number of l-shells
 n=2   0   2                         # n, l, Nzeta 
   4.633      3.432   
   1.000      1.000   
 n=2   1   2 P   1                   # n, l, Nzeta, Polarization, NzetaPol
   5.659      3.653   
   1.000      1.000   
%endblock PAO.Basis

prinput: ----------------------------------------------------------------------

coor:   Atomic-coordinates input format  =     Fractional

siesta: Atomic coordinates (Bohr) and species
siesta:     -0.02582   2.59549   0.00000  1        1
siesta:     -0.02582   5.28395   0.00000  1        2
siesta:     -0.02582  10.66124   0.00000  1        3
siesta:     -0.02582  13.34970   0.00000  1        4
siesta:     -0.02582  18.72698   0.00000  1        5
siesta:     -0.02582  21.41544   0.00000  1        6
siesta:      2.30256  22.75985   0.00000  1        7
siesta:      2.30256  25.44831   0.00000  1        8
siesta:     -7.01096  14.69411   0.00000  1        9
siesta:     -4.68258  21.41544   0.00000  1       10
siesta:     -2.35420  22.75985   0.00000  1       11
siesta:     -2.35420  25.44831   0.00000  1       12
siesta:     -9.33934  21.41544   0.00000  1       13
siesta:     -7.01096  22.75985   0.00000  1       14
siesta:     -7.01096  25.44831   0.00000  1       15
siesta:    -11.66772  22.75985   0.00000  1       16
siesta:    -11.66772  25.44831   0.00000  1       17
siesta:     -9.33934  26.79272   0.00000  1       18
siesta:     -0.02582  26.79272   0.00000  1       19
siesta:     -4.68258  26.79272   0.00000  1       20
siesta:     -2.35420  38.89134   0.00000  2       21
siesta:     -2.35420  41.57980   0.00000  2       22
siesta:      2.30256  38.89134   0.00000  2       23
siesta:      2.30256  41.57980   0.00000  2       24
siesta:      4.63094  34.85847   0.00000  2       25
siesta:      4.63094  37.54693   0.00000  2       26
siesta:      6.95932  30.82560   0.00000  2       27
siesta:      6.95932  33.51406   0.00000  2       28
siesta:      9.28770  26.79272   0.00000  2       29
siesta:      9.28770  29.48119   0.00000  2       30
siesta:     -4.68258  34.85847   0.00000  2       31
siesta:     -4.68258  37.54693   0.00000  2       32
siesta:      2.30256   6.62836   0.00000  2       33
siesta:      2.30256   9.31683   0.00000  2       34
siesta:      4.63094  10.66124   0.00000  2       35
siesta:      4.63094  13.34970   0.00000  2       36
siesta:      6.95932  14.69411   0.00000  2       37
siesta:      6.95932  17.38257   0.00000  2       38
siesta:      9.28770  18.72698   0.00000  2       39
siesta:      9.28770  21.41544   0.00000  2       40
siesta:     11.61608  22.75985   0.00000  2       41
siesta:     11.61608  25.44831   0.00000  2       42
siesta:     -2.35420   6.62836   0.00000  2       43
siesta:     -2.35420   9.31683   0.00000  2       44
siesta:      2.30256  14.69411   0.00000  2       45
siesta:      2.30256  17.38257   0.00000  2       46
siesta:      4.63094  18.72698   0.00000  2       47
siesta:      4.63094  21.41544   0.00000  2       48
siesta:      6.95932  22.75985   0.00000  2       49
siesta:      6.95932  25.44831   0.00000  2       50
siesta:     -4.68258  10.66124   0.00000  2       51
siesta:     -4.68258  13.34970   0.00000  2       52
siesta:     -2.35420  14.69411   0.00000  2       53
siesta:     -2.35420  17.38257   0.00000  2       54
siesta:     -7.01096  17.38257   0.00000  2       55
siesta:     -4.68258  18.72698   0.00000  2       56
siesta:     -9.33934  18.72698   0.00000  2       57
siesta:     -9.33934  29.48119   0.00000  2       58
siesta:      4.63094  26.79272   0.00000  2       59
siesta:      4.63094  29.48119   0.00000  2       60
siesta:     -0.02582  29.48119   0.00000  2       61
siesta:     -4.68258  29.48119   0.00000  2       62
siesta:      2.30256  30.82560   0.00000  2       63
siesta:      2.30256  33.51406   0.00000  2       64
siesta:     -2.35420  30.82560   0.00000  2       65
siesta:     -2.35420  33.51406   0.00000  2       66
siesta:     -7.01096  30.82560   0.00000  2       67
siesta:     -7.01096  33.51406   0.00000  2       68
siesta:     -0.02582  34.85847   0.00000  2       69
siesta:     -0.02582  37.54693   0.00000  2       70
siesta:     -0.02582  42.92421   0.00000  2       71
siesta:     -0.02582  45.61267   0.00000  2       72

siesta: System type = slab      

initatomlists: Number of atoms, orbitals, and projectors:     72   936  1152

siesta: ******************** Simulation parameters ****************************
siesta:
siesta: The following are some of the parameters of the simulation.
siesta: A complete list of the parameters used, including default values,
siesta: can be found in file out.fdf
siesta:
redata: Non-Collinear-spin run           =     F
redata: SpinPolarized (Up/Down) run      =     F
redata: Number of spin components        =     1
redata: Long output                      =     F
redata: Number of Atomic Species         =        2
redata: Charge density info will appear in .RHO file
redata: Write Mulliken Pop.              =     NO
redata: Mesh Cutoff                      =   200.0000  Ry
redata: Net charge of the system         =     0.0000 |e|
redata: Max. number of SCF Iter          =      500
redata: SCF convergence failure will abort job
redata: Performing Pulay mixing using    =    10 iterations
redata: Mix DM in first SCF step ?       =     F
redata: Write Pulay info on disk?        =     F
redata: Discard 1st Pulay DM after  kick =     F
redata: New DM Mixing Weight             =     0.0500
redata: New DM Occupancy tolerance       = 0.000000000001
redata: No kicks to SCF
redata: DM Mixing Weight for Kicks       =     0.5000
redata: DM Tolerance for SCF             =     0.000100
redata: Require Energy convergence for SCF =     F
redata: DM Energy tolerance for SCF      =     0.000100 eV
redata: Require Harris convergence for SCF =     F
redata: DM Harris energy tolerance for SCF =     0.000100 eV
redata: Using Saved Data (generic)   =     F
redata: Use continuation files for DM    =     T
redata: Neglect nonoverlap interactions  =     F
redata: Method of Calculation            =     Diagonalization
redata: Divide and Conquer               =     T
redata: Electronic Temperature           =     0.0019  Ry
redata: Fix the spin of the system       =     F
redata: Dynamics option                  =     Verlet MD run
redata: Initial MD time step             =        1
redata:   Final MD time step             =        1
redata: Length of MD time step           =     1.0000  fs
redata: Initial Temperature of MD run    =     0.0000  K
redata: Perform a MD quench              =     F
redata: ***********************************************************************
Total number of electrons:   308.000000
Total ionic charge:   308.000000

* ProcessorY, Blocksize:    2  24

k-point displ. along   1 input, could be:     0.50    0.00
k-point displ. along   2 input, could be:     0.50    0.00
 Kpoints in:          231 . Kpoints trimmed:          231

siesta: k-grid: Number of k-points =   231
siesta: k-grid: Cutoff (effective) =     5.000 Ang
siesta: k-grid: Supercell and displacements
siesta: k-grid:   21   0   0      0.500
siesta: k-grid:    0  21   0      0.500
siesta: k-grid:    0   0   1      0.000
Naive supercell factors:     2    2    2

superc: Internal auxiliary supercell:     2 x     2 x     2  =       8
superc: Number of atoms, orbitals, and projectors:    576   7488   9216

* Maximum dynamic memory allocated =     4 MB

siesta:                 ==============================
                            Begin MD step =      1
                        ==============================

superc: Internal auxiliary supercell:     2 x     2 x     2  =       8
superc: Number of atoms, orbitals, and projectors:    576   7488   9216

outcell: Unit cell vectors (Ang):
       12.804619    7.392750    0.000000
        0.000000   14.785500    0.000000
        0.000000    0.000000   10.000000

outcell: Cell vector modules (Ang)   :   14.785500   14.785500   10.000000
outcell: Cell angles (23,13,12) (deg):     90.0000     90.0000     60.0000
outcell: Cell volume (Ang**3)        :   1893.2269
New_DM. Step:     1
Initializing Density Matrix...

InitMesh: MESH =   120 x   120 x    90 =     1296000
InitMesh: Mesh cutoff (required, used) =   200.000   223.865 Ry

* Maximum dynamic memory allocated =   185 MB

stepf: Fermi-Dirac step function

siesta: Program's energy decomposition (eV):
siesta: Ebs     =     -6249.042319
siesta: Eions   =     21617.947954
siesta: Ena     =      4924.164803
siesta: Ekin    =      8056.630787
siesta: Enl     =        57.033439
siesta: DEna    =        -0.000015
siesta: DUscf   =         0.000000
siesta: DUext   =         0.000000
siesta: Exc     =     -4669.566257
siesta: eta*DQ  =         0.000000
siesta: Emadel  =         0.000000
siesta: Emeta   =         0.000000
siesta: Emolmec =         0.000000
siesta: Ekinion =         0.000000
siesta: Eharris =    -12886.880800
siesta: Etot    =    -13249.685196
siesta: FreeEng =    -13249.685196

siesta: iscf   Eharris(eV)      E_KS(eV)   FreeEng(eV)   dDmax  Ef(eV)
siesta:    1   -12886.8808   -13249.6852   -13249.6852  8.4004 -6.7747
timer: Routine,Calls,Time,% = IterSCF        1    4131.901  99.73
elaps: Routine,Calls,Wall,% = IterSCF        1     517.080  99.73
siesta:    2   -19461.6151   -12060.4142   -12060.4717 21.2740 -6.8054
siesta:    3   -12800.4904   -13095.1501   -13095.1511  3.9754 -5.5822
siesta:    4   -12773.9275   -12903.6351   -12903.6415  1.5609 -4.5226
siesta:    5   -12728.0303   -12788.3331   -12788.3993  1.1634 -3.6689
siesta:    6   -12722.7868   -12777.2703   -12777.2962  1.1010 -3.6308
siesta:    7   -12720.8570   -12770.3547   -12770.3575  1.0569 -3.6683
siesta:    8   -12718.9550   -12725.4350   -12725.4480  0.6631 -3.9921
siesta:    9   -12716.1873   -12722.8357   -12722.8878  0.6236 -3.9765
siesta:   10   -12715.3937   -12718.0769   -12718.1387  0.5651 -3.9528
siesta:   11   -12713.8678   -12701.6272   -12701.6852  0.3504 -3.8190
siesta:   12   -12713.7153   -12691.9719   -12692.0217  0.3191 -3.7460
siesta:   13   -12713.4550   -12687.6565   -12687.7018  0.2420 -3.7387
siesta:   14   -12713.0012   -12690.6034   -12690.6575  0.2192 -3.7079
siesta:   15   -12712.6346   -12692.6634   -12692.7076  0.0948 -3.7197
siesta:   16   -12712.6035   -12695.8422   -12695.8919  0.0792 -3.7258
siesta:   17   -12712.5589   -12698.7345   -12698.7905  0.0742 -3.7294
siesta:   18   -12712.5043   -12705.5345   -12705.5850  0.0626 -3.7470
siesta:   19   -12712.4706   -12706.6941   -12706.7391  0.0617 -3.7440
siesta:   20   -12712.4597   -12707.9091   -12707.9551  0.0558 -3.7416
siesta:   21   -12712.4473   -12709.6304   -12709.6750  0.0462 -3.7377
siesta:   22   -12712.4410   -12711.1562   -12711.2032  0.0354 -3.7354
siesta:   23   -12712.4372   -12711.5029   -12711.5511  0.0093 -3.7374
siesta:   24   -12712.4362   -12711.7904   -12711.8384  0.0079 -3.7367
siesta:   25   -12712.4353   -12711.8261   -12711.8745  0.0063 -3.7369
siesta:   26   -12712.4353   -12712.1495   -12712.1983  0.0046 -3.7380
siesta:   27   -12712.4352   -12712.2272   -12712.2757  0.0036 -3.7383
siesta:   28   -12712.4352   -12712.2979   -12712.3465  0.0023 -3.7382
siesta:   29   -12712.4351   -12712.2985   -12712.3470  0.0015 -3.7383
siesta:   30   -12712.4351   -12712.2950   -12712.3436  0.0009 -3.7386
siesta:   31   -12712.4351   -12712.3418   -12712.3903  0.0006 -3.7386
siesta:   32   -12712.4351   -12712.3789   -12712.4275  0.0003 -3.7387
siesta:   33   -12712.4351   -12712.3813   -12712.4298  0.0004 -3.7387
siesta:   34   -12712.4351   -12712.3892   -12712.4377  0.0002 -3.7388
siesta:   35   -12712.4351   -12712.3977   -12712.4462  0.0002 -3.7388
siesta:   36   -12712.4351   -12712.4187   -12712.4672  0.0001 -3.7388
siesta:   37   -12712.4351   -12712.4232   -12712.4717  0.0001 -3.7388
siesta:   38   -12712.4351   -12712.4310   -12712.4796  0.0001 -3.7388
siesta:   39   -12712.4351   -12712.4325   -12712.4810  0.0001 -3.7388

siesta: E_KS(eV) =           -12712.4331

siesta: E_KS - E_eggbox =    -12712.4331

siesta: Atomic forces (eV/Ang):
----------------------------------------
   Tot   -0.334962    0.143791    0.000000
----------------------------------------
   Max  688.087158
   Res  172.926714    sqrt( Sum f_i^2 / 3N )
----------------------------------------
   Max  688.087158    constrained

Stress-tensor-Voigt (kbar):     -655.33    -3068.69       -0.06        3.32        0.00        0.00
(Free)E + p*V (eV/cell)   -11245.6333
Target enthalpy (eV/cell)   -12712.4816

siesta: Stress tensor (static) (eV/Ang**3):
        -0.409021    0.002070    0.000000
         0.002070   -1.915303    0.000000
         0.000000    0.000000   -0.000039

siesta: Pressure (static):       1241.35970300  kBar

siesta: Stress tensor (total) (eV/Ang**3):
        -0.409021    0.002070    0.000000
         0.002070   -1.915303    0.000000
         0.000000    0.000000   -0.000039

siesta: Pressure (total):       1241.35970300  kBar

siesta: Temp_ion =       0.000 K

* Maximum dynamic memory allocated =   202 MB
Computing bands...

siesta: Program's energy decomposition (eV):
siesta: Ebs     =     -5049.225983
siesta: Eions   =     21617.947954
siesta: Ena     =      4924.164803
siesta: Ekin    =     11121.029206
siesta: Enl     =     -1637.331490
siesta: DEna    =      -771.574680
siesta: DUscf   =       108.118623
siesta: DUext   =         0.000000
siesta: Exc     =     -4838.891632
siesta: eta*DQ  =         0.000000
siesta: Emadel  =         0.000000
siesta: Emeta   =         0.000000
siesta: Emolmec =         0.000000
siesta: Ekinion =         0.000000
siesta: Eharris =    -12712.435122
siesta: Etot    =    -12712.433124
siesta: FreeEng =    -12712.481641

siesta: Final energy (eV):
siesta:  Band Struct. =   -5049.225983
siesta:       Kinetic =   11121.029206
siesta:       Hartree =   35597.297912
siesta:    Ext. field =       0.000000
siesta:   Exch.-corr. =   -4838.891632
siesta:  Ion-electron =  -81861.974017
siesta:       Ion-ion =   27270.105407
siesta:       Ekinion =       0.000000
siesta:         Total =  -12712.433124

siesta: Atomic forces (eV/Ang):
siesta:      1   -1.759263  647.560090    0.000000
siesta:      2   -0.689811 -112.173920    0.000000
siesta:      3   -0.835923  653.461772    0.000000
siesta:      4   -0.186754 -114.101508    0.000000
siesta:      5    6.079056  678.074349    0.000000
siesta:      6    0.778772   -4.775964    0.000000
siesta:      7    1.248787   -0.677332    0.000000
siesta:      8    0.976972    0.441418    0.000000
siesta:      9    2.873316    1.231349    0.000000
siesta:     10   -0.362969   -1.112945    0.000000
siesta:     11   -3.241262   -0.590268    0.000000
siesta:     12   -2.643235    1.257477    0.000000
siesta:     13   -0.768507   -3.704425    0.000000
siesta:     14    1.430767    1.240592    0.000000
siesta:     15    1.250896   -1.485769    0.000000
siesta:     16    1.212588    3.086424    0.000000
siesta:     17    1.745786   -2.954677    0.000000
siesta:     18   -1.431654    3.032519    0.000000
siesta:     19    0.484694    4.122845    0.000000
siesta:     20   -0.246448    2.211629    0.000000
siesta:     21    1.528887  124.236481    0.000000
siesta:     22   -0.730843 -548.299225    0.000000
siesta:     23   -0.585999  123.783106    0.000000
siesta:     24   -1.908420 -547.717750    0.000000
siesta:     25   25.601927    6.619239    0.000000
siesta:     26   32.121172 -549.909865    0.000000
siesta:     27    2.747111    0.301898    0.000000
siesta:     28   -2.996129    1.696349    0.000000
siesta:     29    1.652430    2.150382    0.000000
siesta:     30   -1.697358    0.227632    0.000000
siesta:     31  -25.947815    7.187775    0.000000
siesta:     32  -31.233549 -550.063910    0.000000
siesta:     33   19.594004  552.845675    0.000000
siesta:     34   -0.345420 -130.230824    0.000000
siesta:     35   33.196605  551.351902    0.000000
siesta:     36   26.887082   -5.918401    0.000000
siesta:     37   -2.995827   -1.664875    0.000000
siesta:     38    2.444311   -0.191016    0.000000
siesta:     39   -1.698469   -0.348297    0.000000
siesta:     40    1.756207   -2.134141    0.000000
siesta:     41   -0.301855    7.310419    0.000000
siesta:     42   -0.208547   -7.354790    0.000000
siesta:     43  -20.724249  553.802894    0.000000
siesta:     44    1.001015 -131.561668    0.000000
siesta:     45   24.872497  562.312971    0.000000
siesta:     46   26.020889  -10.074974    0.000000
siesta:     47   -1.649950    4.078045    0.000000
siesta:     48   -0.677320   -0.812370    0.000000
siesta:     49   -0.058951    1.273397    0.000000
siesta:     50   -0.277563   -1.144679    0.000000
siesta:     51  -34.722366  553.062962    0.000000
siesta:     52  -26.376711   -6.964363    0.000000
siesta:     53  -23.172636  563.342728    0.000000
siesta:     54  -27.088130   -9.537731    0.000000
siesta:     55   -0.170290   -1.589724    0.000000
siesta:     56    1.769382    2.748972    0.000000
siesta:     57   -1.099700    2.495584    0.000000
siesta:     58   -0.830689   -2.376959    0.000000
siesta:     59   -0.280185    0.685910    0.000000
siesta:     60   -2.127036   -4.290026    0.000000
siesta:     61    3.301979 -688.087158    0.000000
siesta:     62    1.989755   -3.414568    0.000000
siesta:     63   24.085978    4.304744    0.000000
siesta:     64    4.665442 -558.459222    0.000000
siesta:     65  -25.052172    4.148455    0.000000
siesta:     66   -3.650858 -558.142556    0.000000
siesta:     67   -1.283913   -0.336177    0.000000
siesta:     68    2.596319    1.026799    0.000000
siesta:     69    0.322165  125.757357    0.000000
siesta:     70   -0.024266 -665.821860    0.000000
siesta:     71   -0.562275  121.946436    0.000000
siesta:     72   -3.926438 -646.250848    0.000000
siesta: ----------------------------------------
siesta:    Tot   -0.334962    0.143791    0.000000

siesta: Stress tensor (static) (eV/Ang**3):
siesta:    -0.409021    0.002070    0.000000
siesta:     0.002070   -1.915303    0.000000
siesta:     0.000000    0.000000   -0.000039

siesta: Cell volume =       1893.226884 Ang**3

siesta: Pressure (static):
siesta:                Solid            Molecule  Units
siesta:           0.00843842          0.13597276  Ry/Bohr**3
siesta:           0.77478741         12.48455666  eV/Ang**3
siesta:        1241.35970300      20002.68117874  kBar
(Free)E+ p_basis*V_orbitals  =      -12684.603295
(Free)Eharris+ p_basis*V_orbitals  =      -12684.605965

siesta: Electric dipole (a.u.)  =    0.000000    0.000000    0.000000
siesta: Electric dipole (Debye) =    0.000000    0.000000    0.000000

* Maximum dynamic memory allocated : Node    0 =   202 MB
* Maximum dynamic memory allocated : Node    1 =    72 MB
* Maximum dynamic memory allocated : Node    2 =    74 MB
* Maximum dynamic memory allocated : Node    3 =   192 MB
* Maximum dynamic memory allocated : Node    4 =   185 MB
* Maximum dynamic memory allocated : Node    5 =    70 MB
* Maximum dynamic memory allocated : Node    6 =    71 MB
* Maximum dynamic memory allocated : Node    7 =   169 MB

* Maximum memory occured during matrixMtoO                    

timer: CPU execution times:
timer:  Routine       Calls   Time/call    Tot.time        %
timer:  siesta            1  159406.868  159406.868   100.00
timer:  Setup             1       3.051       3.051     0.00
timer:  bands             3     268.929     806.786     0.51
timer:  writewave         1       0.019       0.019     0.00
timer:  KSV_init          1       0.000       0.000     0.00
timer:  IterMD            1  158591.160  158591.160    99.49
timer:  hsparse           1       0.234       0.234     0.00
timer:  overlap           1       7.702       7.702     0.00
timer:  IterSCF          39    4062.176  158424.880    99.38
timer:  kinefsm           2       3.953       7.906     0.00
timer:  nlefsm            2      18.538      37.077     0.02
timer:  DHSCF            40      90.525    3621.018     2.27
timer:  DHSCF1            1       0.763       0.763     0.00
timer:  DHSCF2            1      33.310      33.310     0.02
timer:  REORD           322       0.010       3.234     0.00
timer:  POISON           41       2.243      91.973     0.06
timer:  DHSCF3           40      88.877    3555.088     2.23
timer:  rhoofd           40      17.161     686.444     0.43
timer:  cellXC           40       3.435     137.400     0.09
timer:  vmat             40      40.762    1630.487     1.02
timer:  MolMec            2       0.000       0.000     0.00
timer:  diagon           39    3970.262  154840.221    97.14
timer:  c-eigval       9130       6.664   60843.902    38.17
timer:  c-buildHS      9130       0.111    1013.541     0.64
timer:  cdiag         18139       6.867  124568.202    78.14
timer:  cdiag1        18139       0.425    7714.650     4.84
timer:  cdiag2        18139       1.913   34697.473    21.77
timer:  cdiag3        18139       3.940   71463.731    44.83
timer:  cdiag4        18139       0.203    3688.540     2.31
timer:  c-eigvec       9009       7.245   65271.092    40.95
timer:  c-buildD       9009       3.273   29483.307    18.50
timer:  DHSCF4            1      29.762      29.762     0.02
timer:  dfscf             1      27.977      27.977     0.02
timer:  overfsm           1       0.400       0.400     0.00
timer:  optical           1       5.125       5.125     0.00
  

elaps: ELAPSED times:
elaps:  Routine       Calls   Time/call    Tot.time        %
elaps:  siesta            1   19947.063   19947.063   100.00
elaps:  Setup             1       0.381       0.381     0.00
elaps:  bands             3      33.667     101.001     0.51
elaps:  writewave         1       0.002       0.002     0.00
elaps:  KSV_init          1       0.000       0.000     0.00
elaps:  IterMD            1   19845.005   19845.005    99.49
elaps:  hsparse           1       0.029       0.029     0.00
elaps:  overlap           1       0.966       0.966     0.00
elaps:  IterSCF          39     508.313   19824.207    99.38
elaps:  kinefsm           2       0.497       0.994     0.00
elaps:  nlefsm            2       2.414       4.828     0.02
elaps:  DHSCF            40      11.427     457.063     2.29
elaps:  DHSCF1            1       0.098       0.098     0.00
elaps:  DHSCF2            1       4.165       4.165     0.02
elaps:  REORD           322       0.001       0.434     0.00
elaps:  POISON           41       0.281      11.503     0.06
elaps:  DHSCF3           40      11.119     444.761     2.23
elaps:  rhoofd           40       4.713     188.526     0.95
elaps:  cellXC           40       0.429      17.162     0.09
elaps:  vmat             40       5.099     203.970     1.02
elaps:  MolMec            2       0.000       0.000     0.00
elaps:  diagon           39     496.822   19376.060    97.14
elaps:  c-eigval       9130       0.834    7612.576    38.16
elaps:  c-buildHS      9130       0.015     139.900     0.70
elaps:  cdiag         18139       0.854   15491.592    77.66
elaps:  cdiag1        18139       0.053     955.350     4.79
elaps:  cdiag2        18139       0.239    4341.554    21.77
elaps:  cdiag3        18139       0.494    8953.773    44.89
elaps:  cdiag4        18139       0.026     468.147     2.35
elaps:  c-eigvec       9009       0.901    8118.280    40.70
elaps:  c-buildD       9009       0.415    3738.409    18.74
elaps:  DHSCF4            1       7.751       7.751     0.04
elaps:  dfscf             1       7.365       7.365     0.04
elaps:  overfsm           1       0.051       0.051     0.00
elaps:  optical           1       0.000       0.000     0.00
  
>> End of run:  29-APR-2016   5:25:18
