Siesta Version:                                        siesta-3.2-pl-3
Architecture  : x86_64-unknown-linux-gnu--unknown
Compiler flags: mpiifort -g -O2 -fPIC -xSSE4.1 -fp-model source -shared-intel 
PARALLEL version

* Running on    8 nodes in parallel
>> Start of run:  24-APR-2016  15:02:50

                           ***********************       
                           *  WELCOME TO SIESTA  *       
                           ***********************       

reinit: Reading from standard input
************************** Dump of input data file ****************************
#(1) General system descriptors
SystemName            GRP_doping    # Descriptive name of the system
SystemLabel           GRP_doping    # Short name for naming files
%include STRUCT.fdf
%include KPT.fdf
%include BASIS.fdf
#%include TS.fdf # for transiesta calculation
#(4) DFT, Grid, SCF
XC.functional         GGA           # LDA or GGA (default = LDA)
XC.authors            PBE           # CA (Ceperley-Aldr) = PZ
                                    #    (Perdew-Zunger) - LDA - Default
                                    # PW92 (Perdew-Wang-92) - LDA
                                    # PBE (Perdew-Burke-Ernzerhof) - GGA
MeshCutoff            200.000000    Ry      # Default: 50.0 Ry ~ 0.444 Bohr
                                    #         100.0 Ry ~ 0.314 Bohr
MaxSCFIterations      500           # Default: 50
DM.MixingWeight       0.05          # Default: 0.25
DM.NumberPulay        10            # Default: 0
DM.PulayOnFile        F             # SystemLabel.P1, SystemLabel.P2
DM.Tolerance          1.d-4         # Default: 1.d-4
DM.UseSaveDM          .true.        # because of the bug
SCFMustConverge       .true.
NeglNonOverlapInt     F             # Default: F
#(5) Eigenvalue problem: order-N or diagonalization
SolutionMethod        Diagon        # or Transiesta
ElectronicTemperature 300.0 K       # Default: 300.0 K
#(6) Molecular dynamics and relaxations
#MD.TypeOfRun          CG            # Type of dynamics:
#MD.VariableCell       F
#MD.NumCGsteps         0           # 0 for single-point / 100 for gopt
#MD.MaxCGDispl         0.2 Bohr      # Default: 0.2 Bohr
#MD.MaxForceTol        0.02 eV/Ang   # Default: 0.04 eV/Ang
#MD.MaxStressTol       1.0 GPa       # Default: 1.0 GPa
# Geometry Constraints
#%block GeometryConstraints
#	position from 1 to 44
#%endblock GeometryConstraints
BandLinesScale   pi/a
%block BandLines
 1   0.00000000  0.00000000  0.00000000
50   0.00000000  0.07809418  0.00000000
50   0.04509075  0.07809242  0.00000000
20   0.00000000  0.00000000  0.00000000
%endblock BandLines
************************** End of input data file *****************************

reinit: -----------------------------------------------------------------------
reinit: System Name: GRP_doping
reinit: -----------------------------------------------------------------------
reinit: System Label: GRP_doping                                                  
reinit: -----------------------------------------------------------------------

initatom: Reading input for the pseudopotentials and atomic orbitals ----------
 Species number:            1  Label: B Atomic number:           5
 Species number:            2  Label: C Atomic number:           6
Ground state valence configuration:   2s02  2p01
Reading pseudopotential information in formatted form from B.psf

Valence configuration for pseudopotential generation:
2s( 2.00) rc: 1.74
2p( 1.00) rc: 1.74
3d( 0.00) rc: 1.74
4f( 0.00) rc: 1.74
Ground state valence configuration:   2s02  2p02
Reading pseudopotential information in formatted form from C.psf

Valence configuration for pseudopotential generation:
2s( 2.00) rc: 1.54
2p( 2.00) rc: 1.54
3d( 0.00) rc: 1.54
4f( 0.00) rc: 1.54
For B, standard SIESTA heuristics set lmxkb to 3
 (one more than the basis l, including polarization orbitals).
Use PS.lmax or PS.KBprojectors blocks to override.
For C, standard SIESTA heuristics set lmxkb to 3
 (one more than the basis l, including polarization orbitals).
Use PS.lmax or PS.KBprojectors blocks to override.

<basis_specs>
===============================================================================
B                    Z=   5    Mass=  10.810        Charge= 0.17977+309
Lmxo=1 Lmxkb= 3    BasisType=split      Semic=F
L=0  Nsemic=0  Cnfigmx=2
          n=1  nzeta=2  polorb=0
            splnorm:   0.15000    
               vcte:    0.0000    
               rinn:    0.0000    
                rcs:    0.0000      0.0000    
            lambdas:    1.0000      1.0000    
L=1  Nsemic=0  Cnfigmx=2
          n=1  nzeta=2  polorb=1
            splnorm:   0.15000    
               vcte:    0.0000    
               rinn:    0.0000    
                rcs:    0.0000      0.0000    
            lambdas:    1.0000      1.0000    
-------------------------------------------------------------------------------
L=0  Nkbl=1  erefs: 0.17977+309
L=1  Nkbl=1  erefs: 0.17977+309
L=2  Nkbl=1  erefs: 0.17977+309
L=3  Nkbl=1  erefs: 0.17977+309
===============================================================================
</basis_specs>

atom: Called for B                     (Z =   5)

read_vps: Pseudopotential generation method:
read_vps: ATM3      Troullier-Martins                       
Total valence charge:    3.00000

read_vps: Pseudopotential includes a core correction:
read_vps: Pseudo-core for xc-correction

xc_check: Exchange-correlation functional:
xc_check: GGA Perdew, Burke & Ernzerhof 1996
V l=0 = -2*Zval/r beyond r=  1.7165
V l=1 = -2*Zval/r beyond r=  1.7165
V l=2 = -2*Zval/r beyond r=  1.7165
V l=3 = -2*Zval/r beyond r=  1.6951
All V_l potentials equal beyond r=  1.7165
This should be close to max(r_c) in ps generation
All pots = -2*Zval/r beyond r=  1.7165

VLOCAL1: 99.0% of the norm of Vloc inside     14.733 Ry
VLOCAL1: 99.9% of the norm of Vloc inside     33.577 Ry
atom: Maximum radius for 4*pi*r*r*local-pseudopot. charge    2.04484
atom: Maximum radius for r*vlocal+2*Zval:    1.75994
GHOST: No ghost state for L =  0
GHOST: No ghost state for L =  1
GHOST: No ghost state for L =  2
GHOST: No ghost state for L =  3

KBgen: Kleinman-Bylander projectors: 
   l= 0   rc=  1.897051   el= -0.693730   Ekb=  4.595746   kbcos=  0.286105
   l= 1   rc=  1.920920   el= -0.265236   Ekb= -2.350715   kbcos= -0.315747
   l= 2   rc=  2.044840   el=  0.002055   Ekb= -0.690767   kbcos= -0.013822
   l= 3   rc=  2.149707   el=  0.003188   Ekb= -0.315358   kbcos= -0.002055

KBgen: Total number of  Kleinman-Bylander projectors:   16
atom: -------------------------------------------------------------------------

atom: SANKEY-TYPE ORBITALS:
atom: Selected multiple-zeta basis: split     

SPLIT: Orbitals with angular momentum L= 0

SPLIT: Basis orbitals for state 2s

SPLIT: PAO cut-off radius determined from an
SPLIT: energy shift=  0.007350 Ry

   izeta = 1
                 lambda =    1.000000
                     rc =    5.422032
                 energy =   -0.686029
                kinetic =    0.576707
    potential(screened) =   -1.262736
       potential(ionic) =   -3.271094

   izeta = 2
                 rmatch =    4.222573
              splitnorm =    0.150000
                 energy =   -0.602132
                kinetic =    0.858975
    potential(screened) =   -1.461107
       potential(ionic) =   -3.582536

SPLIT: Orbitals with angular momentum L= 1

SPLIT: Basis orbitals for state 2p

SPLIT: PAO cut-off radius determined from an
SPLIT: energy shift=  0.007350 Ry

   izeta = 1
                 lambda =    1.000000
                     rc =    6.790259
                 energy =   -0.258578
                kinetic =    1.481412
    potential(screened) =   -1.739989
       potential(ionic) =   -3.657461

   izeta = 2
                 rmatch =    4.608740
              splitnorm =    0.150000
                 energy =   -0.173757
                kinetic =    2.186690
    potential(screened) =   -2.360447
       potential(ionic) =   -4.464260

POLgen: Perturbative polarization orbital with L=  2

POLgen: Polarization orbital for state 2p

   izeta = 1
                     rc =    6.790259
                 energy =    0.684082
                kinetic =    1.471481
    potential(screened) =   -0.787399
       potential(ionic) =   -2.406985
atom: Total number of Sankey-type orbitals: 13

atm_pop: Valence configuration (for local Pseudopot. screening):
 2s( 2.00)                                                            
 2p( 1.00)                                                            
Vna: chval, zval:    3.00000   3.00000

Vna:  Cut-off radius for the neutral-atom potential:   6.790259
comcore: Pseudo-core radius Rcore=  2.122997

atom: _________________________________________________________________________

<basis_specs>
===============================================================================
C                    Z=   6    Mass=  12.010        Charge= 0.17977+309
Lmxo=1 Lmxkb= 3    BasisType=split      Semic=F
L=0  Nsemic=0  Cnfigmx=2
          n=1  nzeta=2  polorb=0
            splnorm:   0.15000    
               vcte:    0.0000    
               rinn:    0.0000    
                rcs:    0.0000      0.0000    
            lambdas:    1.0000      1.0000    
L=1  Nsemic=0  Cnfigmx=2
          n=1  nzeta=2  polorb=1
            splnorm:   0.15000    
               vcte:    0.0000    
               rinn:    0.0000    
                rcs:    0.0000      0.0000    
            lambdas:    1.0000      1.0000    
-------------------------------------------------------------------------------
L=0  Nkbl=1  erefs: 0.17977+309
L=1  Nkbl=1  erefs: 0.17977+309
L=2  Nkbl=1  erefs: 0.17977+309
L=3  Nkbl=1  erefs: 0.17977+309
===============================================================================
</basis_specs>

atom: Called for C                     (Z =   6)

read_vps: Pseudopotential generation method:
read_vps: ATM3      Troullier-Martins                       
Total valence charge:    4.00000

read_vps: Pseudopotential includes a core correction:
read_vps: Pseudo-core for xc-correction

xc_check: Exchange-correlation functional:
xc_check: GGA Perdew, Burke & Ernzerhof 1996
V l=0 = -2*Zval/r beyond r=  1.5227
V l=1 = -2*Zval/r beyond r=  1.5227
V l=2 = -2*Zval/r beyond r=  1.5227
V l=3 = -2*Zval/r beyond r=  1.5038
All V_l potentials equal beyond r=  1.5227
This should be close to max(r_c) in ps generation
All pots = -2*Zval/r beyond r=  1.5227

VLOCAL1: 99.0% of the norm of Vloc inside     18.722 Ry
VLOCAL1: 99.9% of the norm of Vloc inside     42.668 Ry
atom: Maximum radius for 4*pi*r*r*local-pseudopot. charge    1.83678
atom: Maximum radius for r*vlocal+2*Zval:    1.58088
GHOST: No ghost state for L =  0
GHOST: No ghost state for L =  1
GHOST: No ghost state for L =  2
GHOST: No ghost state for L =  3

KBgen: Kleinman-Bylander projectors: 
   l= 0   rc=  1.704034   el= -1.009801   Ekb=  5.335044   kbcos=  0.316824
   l= 1   rc=  1.704034   el= -0.388707   Ekb= -3.785862   kbcos= -0.366464
   l= 2   rc=  1.791422   el=  0.001971   Ekb= -0.970471   kbcos= -0.009212
   l= 3   rc=  1.859892   el=  0.003065   Ekb= -0.399525   kbcos= -0.001223

KBgen: Total number of  Kleinman-Bylander projectors:   16
atom: -------------------------------------------------------------------------

atom: SANKEY-TYPE ORBITALS:
atom: Selected multiple-zeta basis: split     

SPLIT: Orbitals with angular momentum L= 0

SPLIT: Basis orbitals for state 2s

SPLIT: PAO cut-off radius determined from an
SPLIT: energy shift=  0.007350 Ry

   izeta = 1
                 lambda =    1.000000
                     rc =    4.632753
                 energy =   -1.002270
                kinetic =    0.855760
    potential(screened) =   -1.858031
       potential(ionic) =   -5.417575

   izeta = 2
                 rmatch =    3.431921
              splitnorm =    0.150000
                 energy =   -0.867111
                kinetic =    1.300804
    potential(screened) =   -2.167915
       potential(ionic) =   -5.962684

SPLIT: Orbitals with angular momentum L= 1

SPLIT: Basis orbitals for state 2p

SPLIT: PAO cut-off radius determined from an
SPLIT: energy shift=  0.007350 Ry

   izeta = 1
                 lambda =    1.000000
                     rc =    5.658549
                 energy =   -0.381140
                kinetic =    2.399701
    potential(screened) =   -2.780841
       potential(ionic) =   -6.206085

   izeta = 2
                 rmatch =    3.653288
              splitnorm =    0.150000
                 energy =   -0.249149
                kinetic =    3.542762
    potential(screened) =   -3.791911
       potential(ionic) =   -7.581078

POLgen: Perturbative polarization orbital with L=  2

POLgen: Polarization orbital for state 2p

   izeta = 1
                     rc =    5.658549
                 energy =    1.109913
                kinetic =    2.304789
    potential(screened) =   -1.194876
       potential(ionic) =   -4.013592
atom: Total number of Sankey-type orbitals: 13

atm_pop: Valence configuration (for local Pseudopot. screening):
 2s( 2.00)                                                            
 2p( 2.00)                                                            
Vna: chval, zval:    4.00000   4.00000

Vna:  Cut-off radius for the neutral-atom potential:   5.658549
comcore: Pseudo-core radius Rcore=  1.791422

atom: _________________________________________________________________________

prinput: Basis input ----------------------------------------------------------

PAO.BasisType split     

%block ChemicalSpeciesLabel
    1    5 B                       # Species index, atomic number, species label
    2    6 C                       # Species index, atomic number, species label
%endblock ChemicalSpeciesLabel

%block PAO.Basis                 # Define Basis set
B                     2                    # Species label, number of l-shells
 n=2   0   2                         # n, l, Nzeta 
   5.422      4.223   
   1.000      1.000   
 n=2   1   2 P   1                   # n, l, Nzeta, Polarization, NzetaPol
   6.790      4.609   
   1.000      1.000   
C                     2                    # Species label, number of l-shells
 n=2   0   2                         # n, l, Nzeta 
   4.633      3.432   
   1.000      1.000   
 n=2   1   2 P   1                   # n, l, Nzeta, Polarization, NzetaPol
   5.659      3.653   
   1.000      1.000   
%endblock PAO.Basis

prinput: ----------------------------------------------------------------------

coor:   Atomic-coordinates input format  =     Fractional

siesta: Atomic coordinates (Bohr) and species
siesta:     -4.68258  34.85847   0.00000  1        1
siesta:      4.63094  10.66124   0.00000  1        2
siesta:      4.63094  13.34970   0.00000  1        3
siesta:      6.95932  17.38257   0.00000  1        4
siesta:      2.30256  14.69411   0.00000  1        5
siesta:      2.30256  17.38257   0.00000  1        6
siesta:      4.63094  18.72698   0.00000  1        7
siesta:      4.63094  21.41544   0.00000  1        8
siesta:     -0.02582  18.72698   0.00000  1        9
siesta:     -0.02582  21.41544   0.00000  1       10
siesta:      2.30256  22.75985   0.00000  1       11
siesta:     -4.68258  21.41544   0.00000  1       12
siesta:     -2.35420  22.75985   0.00000  1       13
siesta:     -7.01096  22.75985   0.00000  1       14
siesta:     -7.01096  25.44831   0.00000  1       15
siesta:     -9.33934  26.79272   0.00000  1       16
siesta:     -9.33934  29.48119   0.00000  1       17
siesta:     -4.68258  26.79272   0.00000  1       18
siesta:     -4.68258  29.48119   0.00000  1       19
siesta:     -2.35420  30.82560   0.00000  1       20
siesta:     -2.35420  33.51406   0.00000  1       21
siesta:     -7.01096  30.82560   0.00000  1       22
siesta:     -7.01096  33.51406   0.00000  1       23
siesta:     -0.02582   2.59549   0.00000  2       24
siesta:     -0.02582   5.28395   0.00000  2       25
siesta:     -2.35420  38.89134   0.00000  2       26
siesta:     -2.35420  41.57980   0.00000  2       27
siesta:      2.30256  38.89134   0.00000  2       28
siesta:      2.30256  41.57980   0.00000  2       29
siesta:      4.63094  34.85847   0.00000  2       30
siesta:      4.63094  37.54693   0.00000  2       31
siesta:      6.95932  30.82560   0.00000  2       32
siesta:      6.95932  33.51406   0.00000  2       33
siesta:      9.28770  26.79272   0.00000  2       34
siesta:      9.28770  29.48119   0.00000  2       35
siesta:     -4.68258  37.54693   0.00000  2       36
siesta:      2.30256   6.62836   0.00000  2       37
siesta:      2.30256   9.31683   0.00000  2       38
siesta:      6.95932  14.69411   0.00000  2       39
siesta:      9.28770  18.72698   0.00000  2       40
siesta:      9.28770  21.41544   0.00000  2       41
siesta:     11.61608  22.75985   0.00000  2       42
siesta:     11.61608  25.44831   0.00000  2       43
siesta:     -2.35420   6.62836   0.00000  2       44
siesta:     -2.35420   9.31683   0.00000  2       45
siesta:     -0.02582  10.66124   0.00000  2       46
siesta:     -0.02582  13.34970   0.00000  2       47
siesta:      6.95932  22.75985   0.00000  2       48
siesta:      6.95932  25.44831   0.00000  2       49
siesta:     -4.68258  10.66124   0.00000  2       50
siesta:     -4.68258  13.34970   0.00000  2       51
siesta:     -2.35420  14.69411   0.00000  2       52
siesta:     -2.35420  17.38257   0.00000  2       53
siesta:      2.30256  25.44831   0.00000  2       54
siesta:     -7.01096  14.69411   0.00000  2       55
siesta:     -7.01096  17.38257   0.00000  2       56
siesta:     -4.68258  18.72698   0.00000  2       57
siesta:     -2.35420  25.44831   0.00000  2       58
siesta:     -9.33934  18.72698   0.00000  2       59
siesta:     -9.33934  21.41544   0.00000  2       60
siesta:    -11.66772  22.75985   0.00000  2       61
siesta:    -11.66772  25.44831   0.00000  2       62
siesta:      4.63094  26.79272   0.00000  2       63
siesta:      4.63094  29.48119   0.00000  2       64
siesta:     -0.02582  26.79272   0.00000  2       65
siesta:     -0.02582  29.48119   0.00000  2       66
siesta:      2.30256  30.82560   0.00000  2       67
siesta:      2.30256  33.51406   0.00000  2       68
siesta:     -0.02582  34.85847   0.00000  2       69
siesta:     -0.02582  37.54693   0.00000  2       70
siesta:     -0.02582  42.92421   0.00000  2       71
siesta:     -0.02582  45.61267   0.00000  2       72

siesta: System type = slab      

initatomlists: Number of atoms, orbitals, and projectors:     72   936  1152

siesta: ******************** Simulation parameters ****************************
siesta:
siesta: The following are some of the parameters of the simulation.
siesta: A complete list of the parameters used, including default values,
siesta: can be found in file out.fdf
siesta:
redata: Non-Collinear-spin run           =     F
redata: SpinPolarized (Up/Down) run      =     F
redata: Number of spin components        =     1
redata: Long output                      =     F
redata: Number of Atomic Species         =        2
redata: Charge density info will appear in .RHO file
redata: Write Mulliken Pop.              =     NO
redata: Mesh Cutoff                      =   200.0000  Ry
redata: Net charge of the system         =     0.0000 |e|
redata: Max. number of SCF Iter          =      500
redata: SCF convergence failure will abort job
redata: Performing Pulay mixing using    =    10 iterations
redata: Mix DM in first SCF step ?       =     F
redata: Write Pulay info on disk?        =     F
redata: Discard 1st Pulay DM after  kick =     F
redata: New DM Mixing Weight             =     0.0500
redata: New DM Occupancy tolerance       = 0.000000000001
redata: No kicks to SCF
redata: DM Mixing Weight for Kicks       =     0.5000
redata: DM Tolerance for SCF             =     0.000100
redata: Require Energy convergence for SCF =     F
redata: DM Energy tolerance for SCF      =     0.000100 eV
redata: Require Harris convergence for SCF =     F
redata: DM Harris energy tolerance for SCF =     0.000100 eV
redata: Using Saved Data (generic)   =     F
redata: Use continuation files for DM    =     T
redata: Neglect nonoverlap interactions  =     F
redata: Method of Calculation            =     Diagonalization
redata: Divide and Conquer               =     T
redata: Electronic Temperature           =     0.0019  Ry
redata: Fix the spin of the system       =     F
redata: Dynamics option                  =     Verlet MD run
redata: Initial MD time step             =        1
redata:   Final MD time step             =        1
redata: Length of MD time step           =     1.0000  fs
redata: Initial Temperature of MD run    =     0.0000  K
redata: Perform a MD quench              =     F
redata: ***********************************************************************
Total number of electrons:   265.000000
Total ionic charge:   265.000000

* ProcessorY, Blocksize:    2  24

k-point displ. along   1 input, could be:     0.50    0.00
k-point displ. along   2 input, could be:     0.50    0.00
 Kpoints in:          231 . Kpoints trimmed:          231

siesta: k-grid: Number of k-points =   231
siesta: k-grid: Cutoff (effective) =     5.000 Ang
siesta: k-grid: Supercell and displacements
siesta: k-grid:   21   0   0      0.500
siesta: k-grid:    0  21   0      0.500
siesta: k-grid:    0   0   1      0.000
Naive supercell factors:     2    2    2

superc: Internal auxiliary supercell:     2 x     2 x     2  =       8
superc: Number of atoms, orbitals, and projectors:    576   7488   9216

* Maximum dynamic memory allocated =     4 MB

siesta:                 ==============================
                            Begin MD step =      1
                        ==============================

superc: Internal auxiliary supercell:     2 x     2 x     2  =       8
superc: Number of atoms, orbitals, and projectors:    576   7488   9216

outcell: Unit cell vectors (Ang):
       12.804619    7.392750    0.000000
        0.000000   14.785500    0.000000
        0.000000    0.000000   10.000000

outcell: Cell vector modules (Ang)   :   14.785500   14.785500   10.000000
outcell: Cell angles (23,13,12) (deg):     90.0000     90.0000     60.0000
outcell: Cell volume (Ang**3)        :   1893.2269
New_DM. Step:     1
Initializing Density Matrix...

InitMesh: MESH =   120 x   120 x    90 =     1296000
InitMesh: Mesh cutoff (required, used) =   200.000   223.865 Ry

* Maximum dynamic memory allocated =   231 MB

stepf: Fermi-Dirac step function

siesta: Program's energy decomposition (eV):
siesta: Ebs     =     -5481.708053
siesta: Eions   =     15457.706713
siesta: Ena     =      4162.165492
siesta: Ekin    =      5165.204314
siesta: Enl     =       829.430522
siesta: DEna    =        -0.000007
siesta: DUscf   =         0.000000
siesta: DUext   =         0.000000
siesta: Exc     =     -4208.810307
siesta: eta*DQ  =         0.000000
siesta: Emadel  =         0.000000
siesta: Emeta   =         0.000000
siesta: Emolmec =         0.000000
siesta: Ekinion =         0.000000
siesta: Eharris =     -9245.615541
siesta: Etot    =     -9509.716699
siesta: FreeEng =     -9509.716699

siesta: iscf   Eharris(eV)      E_KS(eV)   FreeEng(eV)   dDmax  Ef(eV)
siesta:    1    -9245.6155    -9509.7167    -9509.7167  6.5571 -8.5620
timer: Routine,Calls,Time,% = IterSCF        1    4460.180  99.74
elaps: Routine,Calls,Wall,% = IterSCF        1     558.188  99.74
siesta:    2   -14535.4668    -8448.9070    -8448.9402 25.2241 -3.4689
siesta:    3    -9179.4119    -9387.9983    -9388.0507  3.9798 -7.2965
siesta:    4    -9166.1018    -9237.9430    -9238.0051  1.4105 -5.6991
siesta:    5    -9121.4985    -9192.7828    -9192.8490  1.1883 -5.7660
siesta:    6    -9099.5000    -9132.4612    -9132.4898  0.8865 -5.5734
siesta:    7    -9094.0463    -9107.4707    -9107.5119  0.7755 -5.3054
siesta:    8    -9090.2055    -9097.4973    -9097.5503  0.6807 -5.2852
siesta:    9    -9090.4307    -9082.7811    -9082.8303  0.5172 -5.3314
siesta:   10    -9090.0215    -9075.3379    -9075.4117  0.4815 -5.2882
siesta:   11    -9090.2691    -9065.7331    -9065.7998  0.3118 -5.2537
siesta:   12    -9088.8947    -9059.2002    -9059.2870  0.2059 -5.2442
siesta:   13    -9088.5901    -9053.9258    -9053.9835  0.2007 -5.1946
siesta:   14    -9088.0582    -9058.7361    -9058.8066  0.1873 -5.2135
siesta:   15    -9087.3525    -9063.5423    -9063.6210  0.1469 -5.1923
siesta:   16    -9087.0933    -9066.9458    -9067.0201  0.1066 -5.2093
siesta:   17    -9086.9756    -9070.0799    -9070.1534  0.1102 -5.2265
siesta:   18    -9086.9357    -9073.9573    -9074.0423  0.0749 -5.2443
siesta:   19    -9086.9074    -9077.4809    -9077.5683  0.0553 -5.2508
siesta:   20    -9086.9056    -9083.7207    -9083.8116  0.0413 -5.2680
siesta:   21    -9086.8941    -9084.7653    -9084.8494  0.0300 -5.2630
siesta:   22    -9086.8781    -9086.6636    -9086.7483  0.0239 -5.2503
siesta:   23    -9086.8748    -9087.0299    -9087.1176  0.0161 -5.2454
siesta:   24    -9086.8742    -9087.1285    -9087.2155  0.0100 -5.2401
siesta:   25    -9086.8730    -9087.3257    -9087.4139  0.0103 -5.2379
siesta:   26    -9086.8717    -9087.3758    -9087.4623  0.0079 -5.2381
siesta:   27    -9086.8714    -9087.3251    -9087.4118  0.0058 -5.2382
siesta:   28    -9086.8712    -9087.3275    -9087.4140  0.0035 -5.2398
siesta:   29    -9086.8713    -9087.2168    -9087.3033  0.0028 -5.2405
siesta:   30    -9086.8709    -9087.0983    -9087.1846  0.0016 -5.2404
siesta:   31    -9086.8709    -9086.9100    -9086.9967  0.0018 -5.2406
siesta:   32    -9086.8709    -9086.8450    -9086.9315  0.0017 -5.2407
siesta:   33    -9086.8709    -9086.8506    -9086.9372  0.0008 -5.2411
siesta:   34    -9086.8709    -9086.8634    -9086.9499  0.0004 -5.2413
siesta:   35    -9086.8709    -9086.8647    -9086.9512  0.0003 -5.2414
siesta:   36    -9086.8709    -9086.8634    -9086.9500  0.0002 -5.2414
siesta:   37    -9086.8709    -9086.8593    -9086.9459  0.0002 -5.2414
siesta:   38    -9086.8709    -9086.8571    -9086.9436  0.0001 -5.2414
siesta:   39    -9086.8709    -9086.8576    -9086.9441  0.0001 -5.2413
siesta:   40    -9086.8709    -9086.8616    -9086.9482  0.0000 -5.2413

siesta: E_KS(eV) =            -9086.8670

siesta: E_KS - E_eggbox =     -9086.8670

siesta: Atomic forces (eV/Ang):
----------------------------------------
   Tot   -0.127906    0.066527    0.000000
----------------------------------------
   Max  558.332106
   Res  144.013982    sqrt( Sum f_i^2 / 3N )
----------------------------------------
   Max  558.332106    constrained

Stress-tensor-Voigt (kbar):     -821.89    -2667.43       -0.73        5.86        0.00        0.00
(Free)E + p*V (eV/cell)    -7712.2846
Target enthalpy (eV/cell)    -9086.9535

siesta: Stress tensor (static) (eV/Ang**3):
        -0.512978    0.003655    0.000000
         0.003655   -1.664860    0.000000
         0.000000    0.000000   -0.000457

siesta: Pressure (static):       1163.35037843  kBar

siesta: Stress tensor (total) (eV/Ang**3):
        -0.512978    0.003655    0.000000
         0.003655   -1.664860    0.000000
         0.000000    0.000000   -0.000457

siesta: Pressure (total):       1163.35037843  kBar

siesta: Temp_ion =       0.000 K

* Maximum dynamic memory allocated =   248 MB
Computing bands...

siesta: Program's energy decomposition (eV):
siesta: Ebs     =     -4117.749065
siesta: Eions   =     15457.706713
siesta: Ena     =      4162.165492
siesta: Ekin    =      8041.546611
siesta: Enl     =      -770.482530
siesta: DEna    =      -790.444892
siesta: DUscf   =       107.245896
siesta: DUext   =         0.000000
siesta: Exc     =     -4379.190849
siesta: eta*DQ  =         0.000000
siesta: Emadel  =         0.000000
siesta: Emeta   =         0.000000
siesta: Emolmec =         0.000000
siesta: Ekinion =         0.000000
siesta: Eharris =     -9086.870895
siesta: Etot    =     -9086.866984
siesta: FreeEng =     -9086.953521

siesta: Final energy (eV):
siesta:  Band Struct. =   -4117.749065
siesta:       Kinetic =    8041.546611
siesta:       Hartree =   26426.750197
siesta:    Ext. field =       0.000000
siesta:   Exch.-corr. =   -4379.190849
siesta:  Ion-electron =  -60626.989593
siesta:       Ion-ion =   21451.016648
siesta:       Ekinion =       0.000000
siesta:         Total =   -9086.866984

siesta: Atomic forces (eV/Ang):
siesta:      1  -17.421446    3.439664    0.000000
siesta:      2   21.796470  398.021392    0.000000
siesta:      3   19.329339    2.104337    0.000000
siesta:      4    8.701321   -5.342777    0.000000
siesta:      5   19.951100  401.646578    0.000000
siesta:      6   14.765338   -0.809003    0.000000
siesta:      7   -2.249787   -1.086984    0.000000
siesta:      8    4.108377    0.867880    0.000000
siesta:      9    0.623340  407.489730    0.000000
siesta:     10    0.223648   -4.249499    0.000000
siesta:     11   -1.879758    6.123509    0.000000
siesta:     12    1.696759   -6.158482    0.000000
siesta:     13   -0.262368    7.425572    0.000000
siesta:     14   -2.570368   -1.473298    0.000000
siesta:     15    0.041328    1.818771    0.000000
siesta:     16   -8.245728   -1.898529    0.000000
siesta:     17   -3.660053    2.654989    0.000000
siesta:     18    3.865517   -3.521572    0.000000
siesta:     19    1.215185    2.708289    0.000000
siesta:     20  -14.924280    2.058887    0.000000
siesta:     21  -20.253043 -401.482038    0.000000
siesta:     22   -3.013140    3.607973    0.000000
siesta:     23   -3.666961    2.491993    0.000000
siesta:     24    7.831423  546.357934    0.000000
siesta:     25   -4.335989 -131.285225    0.000000
siesta:     26   -1.503260  125.315159    0.000000
siesta:     27  -20.772216 -551.674793    0.000000
siesta:     28    4.801112  123.227716    0.000000
siesta:     29   16.473546 -405.659271    0.000000
siesta:     30   26.120534   -1.892173    0.000000
siesta:     31   35.662063 -406.946776    0.000000
siesta:     32    1.821103    0.049755    0.000000
siesta:     33   -2.740629    2.439426    0.000000
siesta:     34    2.552360    2.401085    0.000000
siesta:     35   -1.132833    0.481065    0.000000
siesta:     36  -28.493254 -548.977810    0.000000
siesta:     37   19.839869  547.504909    0.000000
siesta:     38    8.423921 -116.649920    0.000000
siesta:     39   -1.135731   -2.439967    0.000000
siesta:     40    1.450309    4.117238    0.000000
siesta:     41    2.557796   -2.716496    0.000000
siesta:     42    0.764263    6.786836    0.000000
siesta:     43   -0.318088   -6.996978    0.000000
siesta:     44  -16.052122  405.852829    0.000000
siesta:     45   -3.023026 -124.506721    0.000000
siesta:     46    4.913909  546.214872    0.000000
siesta:     47    7.091337 -118.578897    0.000000
siesta:     48    1.387366    3.488987    0.000000
siesta:     49    0.316290   -1.023267    0.000000
siesta:     50  -35.673331  554.723701    0.000000
siesta:     51  -25.668424   -4.766051    0.000000
siesta:     52  -23.078594  557.309743    0.000000
siesta:     53  -23.286321   -3.642400    0.000000
siesta:     54    0.389177    3.368214    0.000000
siesta:     55    1.978347   -1.516247    0.000000
siesta:     56   -1.853205   -1.599889    0.000000
siesta:     57    1.241151   -1.977143    0.000000
siesta:     58    4.385257    3.101754    0.000000
siesta:     59    1.153640    0.494932    0.000000
siesta:     60   -5.718621   -3.403588    0.000000
siesta:     61   -0.597378    5.718010    0.000000
siesta:     62   -2.699413   -7.207022    0.000000
siesta:     63   -0.046624    1.134431    0.000000
siesta:     64   -0.836521   -2.300034    0.000000
siesta:     65    0.059231   -1.469359    0.000000
siesta:     66   -6.125165 -558.332106    0.000000
siesta:     67   21.460183    7.765153    0.000000
siesta:     68   28.238194 -556.143089    0.000000
siesta:     69   -7.690147  120.741637    0.000000
siesta:     70   -8.752820 -546.932970    0.000000
siesta:     71    5.954981  127.236536    0.000000
siesta:     72   -3.632343 -403.564586    0.000000
siesta: ----------------------------------------
siesta:    Tot   -0.127906    0.066527    0.000000

siesta: Stress tensor (static) (eV/Ang**3):
siesta:    -0.512978    0.003655    0.000000
siesta:     0.003655   -1.664860    0.000000
siesta:     0.000000    0.000000   -0.000457

siesta: Cell volume =       1893.226884 Ang**3

siesta: Pressure (static):
siesta:                Solid            Molecule  Units
siesta:           0.00790814          0.10992020  Ry/Bohr**3
siesta:           0.72609835         10.09249908  eV/Ang**3
siesta:        1163.35037843      16170.14097913  kBar
(Free)E+ p_basis*V_orbitals  =       -9048.948976
(Free)Eharris+ p_basis*V_orbitals  =       -9048.958247

siesta: Electric dipole (a.u.)  =    0.000000    0.000000    0.000000
siesta: Electric dipole (Debye) =    0.000000    0.000000    0.000000

* Maximum dynamic memory allocated : Node    0 =   248 MB
* Maximum dynamic memory allocated : Node    1 =    86 MB
* Maximum dynamic memory allocated : Node    2 =    89 MB
* Maximum dynamic memory allocated : Node    3 =   236 MB
* Maximum dynamic memory allocated : Node    4 =   229 MB
* Maximum dynamic memory allocated : Node    5 =    83 MB
* Maximum dynamic memory allocated : Node    6 =    85 MB
* Maximum dynamic memory allocated : Node    7 =   209 MB

* Maximum memory occured during matrixMtoO                    

timer: CPU execution times:
timer:  Routine       Calls   Time/call    Tot.time        %
timer:  siesta            1  176337.784  176337.784   100.00
timer:  Setup             1       3.027       3.027     0.00
timer:  bands             3     269.398     808.195     0.46
timer:  writewave         1       0.020       0.020     0.00
timer:  KSV_init          1       0.001       0.001     0.00
timer:  IterMD            1  175520.722  175520.722    99.54
timer:  hsparse           1       0.396       0.396     0.00
timer:  overlap           1       7.816       7.816     0.00
timer:  IterSCF          40    4381.868  175274.740    99.40
timer:  kinefsm           2       4.113       8.226     0.00
timer:  nlefsm            2      21.755      43.510     0.02
timer:  DHSCF            41     127.745    5237.537     2.97
timer:  DHSCF1            1       1.007       1.007     0.00
timer:  DHSCF2            1      46.131      46.131     0.03
timer:  REORD           330       0.010       3.265     0.00
timer:  POISON           42       2.234      93.844     0.05
timer:  DHSCF3           41     125.463    5143.985     2.92
timer:  rhoofd           41      26.370    1081.189     0.61
timer:  cellXC           41       3.544     145.309     0.08
timer:  vmat             41      62.119    2546.880     1.44
timer:  MolMec            2       0.000       0.000     0.00
timer:  diagon           40    4253.113  170124.536    96.48
timer:  c-eigval       9361       6.675   62489.015    35.44
timer:  c-buildHS      9361       0.123    1153.038     0.65
timer:  cdiag         18601       6.882  128020.106    72.60
timer:  cdiag1        18601       0.427    7935.950     4.50
timer:  cdiag2        18601       1.910   35530.042    20.15
timer:  cdiag3        18601       3.938   73255.372    41.54
timer:  cdiag4        18601       0.224    4174.403     2.37
timer:  c-eigvec       9240       7.283   67293.092    38.16
timer:  c-buildD       9240       4.448   41099.653    23.31
timer:  DHSCF4            1      44.256      44.256     0.03
timer:  dfscf             1      41.564      41.564     0.02
timer:  overfsm           1       0.494       0.494     0.00
timer:  optical           1       5.088       5.088     0.00
  

elaps: ELAPSED times:
elaps:  Routine       Calls   Time/call    Tot.time        %
elaps:  siesta            1   22067.346   22067.346   100.00
elaps:  Setup             1       0.377       0.377     0.00
elaps:  bands             3      33.725     101.175     0.46
elaps:  writewave         1       0.002       0.002     0.00
elaps:  KSV_init          1       0.000       0.000     0.00
elaps:  IterMD            1   21965.121   21965.121    99.54
elaps:  hsparse           1       0.049       0.049     0.00
elaps:  overlap           1       0.985       0.985     0.00
elaps:  IterSCF          40     548.359   21934.350    99.40
elaps:  kinefsm           2       0.542       1.083     0.00
elaps:  nlefsm            2       2.882       5.765     0.03
elaps:  DHSCF            41      16.117     660.817     2.99
elaps:  DHSCF1            1       0.126       0.126     0.00
elaps:  DHSCF2            1       5.772       5.772     0.03
elaps:  REORD           330       0.001       0.437     0.00
elaps:  POISON           42       0.280      11.752     0.05
elaps:  DHSCF3           41      15.696     643.529     2.92
elaps:  rhoofd           41       7.060     289.447     1.31
elaps:  cellXC           41       0.443      18.147     0.08
elaps:  vmat             41       7.771     318.598     1.44
elaps:  MolMec            2       0.000       0.000     0.00
elaps:  diagon           40     532.266   21290.623    96.48
elaps:  c-eigval       9361       0.835    7818.473    35.43
elaps:  c-buildHS      9361       0.017     157.602     0.71
elaps:  cdiag         18601       0.853   15867.843    71.91
elaps:  cdiag1        18601       0.053     981.599     4.45
elaps:  cdiag2        18601       0.239    4445.820    20.15
elaps:  cdiag3        18601       0.493    9177.826    41.59
elaps:  cdiag4        18601       0.029     530.348     2.40
elaps:  c-eigvec       9240       0.899    8310.037    37.66
elaps:  c-buildD       9240       0.569    5255.724    23.82
elaps:  DHSCF4            1      11.094      11.094     0.05
elaps:  dfscf             1      10.554      10.554     0.05
elaps:  overfsm           1       0.062       0.062     0.00
elaps:  optical           1       0.000       0.000     0.00
  
>> End of run:  24-APR-2016  21:10:37
