Siesta Version:                                        siesta-3.2-pl-3
Architecture  : x86_64-unknown-linux-gnu--unknown
Compiler flags: mpiifort -g -O2 -fPIC -xSSE4.1 -fp-model source -shared-intel 
PARALLEL version

* Running on    8 nodes in parallel
>> Start of run:   1-MAY-2016   0:05:27

                           ***********************       
                           *  WELCOME TO SIESTA  *       
                           ***********************       

reinit: Reading from standard input
************************** Dump of input data file ****************************
#(1) General system descriptors
SystemName            GRP_doping    # Descriptive name of the system
SystemLabel           GRP_doping    # Short name for naming files
%include STRUCT.fdf
%include KPT.fdf
%include BASIS.fdf
#%include TS.fdf # for transiesta calculation
#(4) DFT, Grid, SCF
XC.functional         GGA           # LDA or GGA (default = LDA)
XC.authors            PBE           # CA (Ceperley-Aldr) = PZ
                                    #    (Perdew-Zunger) - LDA - Default
                                    # PW92 (Perdew-Wang-92) - LDA
                                    # PBE (Perdew-Burke-Ernzerhof) - GGA
MeshCutoff            200.000000    Ry      # Default: 50.0 Ry ~ 0.444 Bohr
                                    #         100.0 Ry ~ 0.314 Bohr
MaxSCFIterations      500           # Default: 50
DM.MixingWeight       0.05          # Default: 0.25
DM.NumberPulay        10            # Default: 0
DM.PulayOnFile        F             # SystemLabel.P1, SystemLabel.P2
DM.Tolerance          1.d-4         # Default: 1.d-4
DM.UseSaveDM          .true.        # because of the bug
SCFMustConverge       .true.
NeglNonOverlapInt     F             # Default: F
#(5) Eigenvalue problem: order-N or diagonalization
SolutionMethod        Diagon        # or Transiesta
ElectronicTemperature 300.0 K       # Default: 300.0 K
#(6) Molecular dynamics and relaxations
#MD.TypeOfRun          CG            # Type of dynamics:
#MD.VariableCell       F
#MD.NumCGsteps         0           # 0 for single-point / 100 for gopt
#MD.MaxCGDispl         0.2 Bohr      # Default: 0.2 Bohr
#MD.MaxForceTol        0.02 eV/Ang   # Default: 0.04 eV/Ang
#MD.MaxStressTol       1.0 GPa       # Default: 1.0 GPa
# Geometry Constraints
#%block GeometryConstraints
#	position from 1 to 44
#%endblock GeometryConstraints
BandLinesScale   pi/a
%block BandLines
 1   0.00000000  0.00000000  0.00000000
50   0.00000000  0.07809418  0.00000000
50   0.04509075  0.07809242  0.00000000
20   0.00000000  0.00000000  0.00000000
%endblock BandLines
************************** End of input data file *****************************

reinit: -----------------------------------------------------------------------
reinit: System Name: GRP_doping
reinit: -----------------------------------------------------------------------
reinit: System Label: GRP_doping                                                  
reinit: -----------------------------------------------------------------------

initatom: Reading input for the pseudopotentials and atomic orbitals ----------
 Species number:            1  Label: B Atomic number:           5
 Species number:            2  Label: C Atomic number:           6
Ground state valence configuration:   2s02  2p01
Reading pseudopotential information in formatted form from B.psf

Valence configuration for pseudopotential generation:
2s( 2.00) rc: 1.74
2p( 1.00) rc: 1.74
3d( 0.00) rc: 1.74
4f( 0.00) rc: 1.74
Ground state valence configuration:   2s02  2p02
Reading pseudopotential information in formatted form from C.psf

Valence configuration for pseudopotential generation:
2s( 2.00) rc: 1.54
2p( 2.00) rc: 1.54
3d( 0.00) rc: 1.54
4f( 0.00) rc: 1.54
For B, standard SIESTA heuristics set lmxkb to 3
 (one more than the basis l, including polarization orbitals).
Use PS.lmax or PS.KBprojectors blocks to override.
For C, standard SIESTA heuristics set lmxkb to 3
 (one more than the basis l, including polarization orbitals).
Use PS.lmax or PS.KBprojectors blocks to override.

<basis_specs>
===============================================================================
B                    Z=   5    Mass=  10.810        Charge= 0.17977+309
Lmxo=1 Lmxkb= 3    BasisType=split      Semic=F
L=0  Nsemic=0  Cnfigmx=2
          n=1  nzeta=2  polorb=0
            splnorm:   0.15000    
               vcte:    0.0000    
               rinn:    0.0000    
                rcs:    0.0000      0.0000    
            lambdas:    1.0000      1.0000    
L=1  Nsemic=0  Cnfigmx=2
          n=1  nzeta=2  polorb=1
            splnorm:   0.15000    
               vcte:    0.0000    
               rinn:    0.0000    
                rcs:    0.0000      0.0000    
            lambdas:    1.0000      1.0000    
-------------------------------------------------------------------------------
L=0  Nkbl=1  erefs: 0.17977+309
L=1  Nkbl=1  erefs: 0.17977+309
L=2  Nkbl=1  erefs: 0.17977+309
L=3  Nkbl=1  erefs: 0.17977+309
===============================================================================
</basis_specs>

atom: Called for B                     (Z =   5)

read_vps: Pseudopotential generation method:
read_vps: ATM3      Troullier-Martins                       
Total valence charge:    3.00000

read_vps: Pseudopotential includes a core correction:
read_vps: Pseudo-core for xc-correction

xc_check: Exchange-correlation functional:
xc_check: GGA Perdew, Burke & Ernzerhof 1996
V l=0 = -2*Zval/r beyond r=  1.7165
V l=1 = -2*Zval/r beyond r=  1.7165
V l=2 = -2*Zval/r beyond r=  1.7165
V l=3 = -2*Zval/r beyond r=  1.6951
All V_l potentials equal beyond r=  1.7165
This should be close to max(r_c) in ps generation
All pots = -2*Zval/r beyond r=  1.7165

VLOCAL1: 99.0% of the norm of Vloc inside     14.733 Ry
VLOCAL1: 99.9% of the norm of Vloc inside     33.577 Ry
atom: Maximum radius for 4*pi*r*r*local-pseudopot. charge    2.04484
atom: Maximum radius for r*vlocal+2*Zval:    1.75994
GHOST: No ghost state for L =  0
GHOST: No ghost state for L =  1
GHOST: No ghost state for L =  2
GHOST: No ghost state for L =  3

KBgen: Kleinman-Bylander projectors: 
   l= 0   rc=  1.897051   el= -0.693730   Ekb=  4.595746   kbcos=  0.286105
   l= 1   rc=  1.920920   el= -0.265236   Ekb= -2.350715   kbcos= -0.315747
   l= 2   rc=  2.044840   el=  0.002055   Ekb= -0.690767   kbcos= -0.013822
   l= 3   rc=  2.149707   el=  0.003188   Ekb= -0.315358   kbcos= -0.002055

KBgen: Total number of  Kleinman-Bylander projectors:   16
atom: -------------------------------------------------------------------------

atom: SANKEY-TYPE ORBITALS:
atom: Selected multiple-zeta basis: split     

SPLIT: Orbitals with angular momentum L= 0

SPLIT: Basis orbitals for state 2s

SPLIT: PAO cut-off radius determined from an
SPLIT: energy shift=  0.007350 Ry

   izeta = 1
                 lambda =    1.000000
                     rc =    5.422032
                 energy =   -0.686029
                kinetic =    0.576707
    potential(screened) =   -1.262736
       potential(ionic) =   -3.271094

   izeta = 2
                 rmatch =    4.222573
              splitnorm =    0.150000
                 energy =   -0.602132
                kinetic =    0.858975
    potential(screened) =   -1.461107
       potential(ionic) =   -3.582536

SPLIT: Orbitals with angular momentum L= 1

SPLIT: Basis orbitals for state 2p

SPLIT: PAO cut-off radius determined from an
SPLIT: energy shift=  0.007350 Ry

   izeta = 1
                 lambda =    1.000000
                     rc =    6.790259
                 energy =   -0.258578
                kinetic =    1.481412
    potential(screened) =   -1.739989
       potential(ionic) =   -3.657461

   izeta = 2
                 rmatch =    4.608740
              splitnorm =    0.150000
                 energy =   -0.173757
                kinetic =    2.186690
    potential(screened) =   -2.360447
       potential(ionic) =   -4.464260

POLgen: Perturbative polarization orbital with L=  2

POLgen: Polarization orbital for state 2p

   izeta = 1
                     rc =    6.790259
                 energy =    0.684082
                kinetic =    1.471481
    potential(screened) =   -0.787399
       potential(ionic) =   -2.406985
atom: Total number of Sankey-type orbitals: 13

atm_pop: Valence configuration (for local Pseudopot. screening):
 2s( 2.00)                                                            
 2p( 1.00)                                                            
Vna: chval, zval:    3.00000   3.00000

Vna:  Cut-off radius for the neutral-atom potential:   6.790259
comcore: Pseudo-core radius Rcore=  2.122997

atom: _________________________________________________________________________

<basis_specs>
===============================================================================
C                    Z=   6    Mass=  12.010        Charge= 0.17977+309
Lmxo=1 Lmxkb= 3    BasisType=split      Semic=F
L=0  Nsemic=0  Cnfigmx=2
          n=1  nzeta=2  polorb=0
            splnorm:   0.15000    
               vcte:    0.0000    
               rinn:    0.0000    
                rcs:    0.0000      0.0000    
            lambdas:    1.0000      1.0000    
L=1  Nsemic=0  Cnfigmx=2
          n=1  nzeta=2  polorb=1
            splnorm:   0.15000    
               vcte:    0.0000    
               rinn:    0.0000    
                rcs:    0.0000      0.0000    
            lambdas:    1.0000      1.0000    
-------------------------------------------------------------------------------
L=0  Nkbl=1  erefs: 0.17977+309
L=1  Nkbl=1  erefs: 0.17977+309
L=2  Nkbl=1  erefs: 0.17977+309
L=3  Nkbl=1  erefs: 0.17977+309
===============================================================================
</basis_specs>

atom: Called for C                     (Z =   6)

read_vps: Pseudopotential generation method:
read_vps: ATM3      Troullier-Martins                       
Total valence charge:    4.00000

read_vps: Pseudopotential includes a core correction:
read_vps: Pseudo-core for xc-correction

xc_check: Exchange-correlation functional:
xc_check: GGA Perdew, Burke & Ernzerhof 1996
V l=0 = -2*Zval/r beyond r=  1.5227
V l=1 = -2*Zval/r beyond r=  1.5227
V l=2 = -2*Zval/r beyond r=  1.5227
V l=3 = -2*Zval/r beyond r=  1.5038
All V_l potentials equal beyond r=  1.5227
This should be close to max(r_c) in ps generation
All pots = -2*Zval/r beyond r=  1.5227

VLOCAL1: 99.0% of the norm of Vloc inside     18.722 Ry
VLOCAL1: 99.9% of the norm of Vloc inside     42.668 Ry
atom: Maximum radius for 4*pi*r*r*local-pseudopot. charge    1.83678
atom: Maximum radius for r*vlocal+2*Zval:    1.58088
GHOST: No ghost state for L =  0
GHOST: No ghost state for L =  1
GHOST: No ghost state for L =  2
GHOST: No ghost state for L =  3

KBgen: Kleinman-Bylander projectors: 
   l= 0   rc=  1.704034   el= -1.009801   Ekb=  5.335044   kbcos=  0.316824
   l= 1   rc=  1.704034   el= -0.388707   Ekb= -3.785862   kbcos= -0.366464
   l= 2   rc=  1.791422   el=  0.001971   Ekb= -0.970471   kbcos= -0.009212
   l= 3   rc=  1.859892   el=  0.003065   Ekb= -0.399525   kbcos= -0.001223

KBgen: Total number of  Kleinman-Bylander projectors:   16
atom: -------------------------------------------------------------------------

atom: SANKEY-TYPE ORBITALS:
atom: Selected multiple-zeta basis: split     

SPLIT: Orbitals with angular momentum L= 0

SPLIT: Basis orbitals for state 2s

SPLIT: PAO cut-off radius determined from an
SPLIT: energy shift=  0.007350 Ry

   izeta = 1
                 lambda =    1.000000
                     rc =    4.632753
                 energy =   -1.002270
                kinetic =    0.855760
    potential(screened) =   -1.858031
       potential(ionic) =   -5.417575

   izeta = 2
                 rmatch =    3.431921
              splitnorm =    0.150000
                 energy =   -0.867111
                kinetic =    1.300804
    potential(screened) =   -2.167915
       potential(ionic) =   -5.962684

SPLIT: Orbitals with angular momentum L= 1

SPLIT: Basis orbitals for state 2p

SPLIT: PAO cut-off radius determined from an
SPLIT: energy shift=  0.007350 Ry

   izeta = 1
                 lambda =    1.000000
                     rc =    5.658549
                 energy =   -0.381140
                kinetic =    2.399701
    potential(screened) =   -2.780841
       potential(ionic) =   -6.206085

   izeta = 2
                 rmatch =    3.653288
              splitnorm =    0.150000
                 energy =   -0.249149
                kinetic =    3.542762
    potential(screened) =   -3.791911
       potential(ionic) =   -7.581078

POLgen: Perturbative polarization orbital with L=  2

POLgen: Polarization orbital for state 2p

   izeta = 1
                     rc =    5.658549
                 energy =    1.109913
                kinetic =    2.304789
    potential(screened) =   -1.194876
       potential(ionic) =   -4.013592
atom: Total number of Sankey-type orbitals: 13

atm_pop: Valence configuration (for local Pseudopot. screening):
 2s( 2.00)                                                            
 2p( 2.00)                                                            
Vna: chval, zval:    4.00000   4.00000

Vna:  Cut-off radius for the neutral-atom potential:   5.658549
comcore: Pseudo-core radius Rcore=  1.791422

atom: _________________________________________________________________________

prinput: Basis input ----------------------------------------------------------

PAO.BasisType split     

%block ChemicalSpeciesLabel
    1    5 B                       # Species index, atomic number, species label
    2    6 C                       # Species index, atomic number, species label
%endblock ChemicalSpeciesLabel

%block PAO.Basis                 # Define Basis set
B                     2                    # Species label, number of l-shells
 n=2   0   2                         # n, l, Nzeta 
   5.422      4.223   
   1.000      1.000   
 n=2   1   2 P   1                   # n, l, Nzeta, Polarization, NzetaPol
   6.790      4.609   
   1.000      1.000   
C                     2                    # Species label, number of l-shells
 n=2   0   2                         # n, l, Nzeta 
   4.633      3.432   
   1.000      1.000   
 n=2   1   2 P   1                   # n, l, Nzeta, Polarization, NzetaPol
   5.659      3.653   
   1.000      1.000   
%endblock PAO.Basis

prinput: ----------------------------------------------------------------------

coor:   Atomic-coordinates input format  =     Fractional

siesta: Atomic coordinates (Bohr) and species
siesta:      2.30256  38.89134   0.00000  1        1
siesta:     -4.68258  37.54693   0.00000  1        2
siesta:      2.30256   6.62836   0.00000  1        3
siesta:      4.63094  10.66124   0.00000  1        4
siesta:      6.95932  17.38257   0.00000  1        5
siesta:      9.28770  21.41544   0.00000  1        6
siesta:     -4.68258  13.34970   0.00000  1        7
siesta:     -0.02582  21.41544   0.00000  1        8
siesta:      2.30256  25.44831   0.00000  1        9
siesta:     -7.01096  17.38257   0.00000  1       10
siesta:     -9.33934  18.72698   0.00000  1       11
siesta:     -9.33934  29.48119   0.00000  1       12
siesta:      4.63094  29.48119   0.00000  1       13
siesta:     -4.68258  26.79272   0.00000  1       14
siesta:     -2.35420  30.82560   0.00000  1       15
siesta:     -7.01096  33.51406   0.00000  1       16
siesta:     -0.02582  34.85847   0.00000  1       17
siesta:     -0.02582   2.59549   0.00000  2       18
siesta:     -0.02582   5.28395   0.00000  2       19
siesta:     -2.35420  38.89134   0.00000  2       20
siesta:     -2.35420  41.57980   0.00000  2       21
siesta:      2.30256  41.57980   0.00000  2       22
siesta:      4.63094  34.85847   0.00000  2       23
siesta:      4.63094  37.54693   0.00000  2       24
siesta:      6.95932  30.82560   0.00000  2       25
siesta:      6.95932  33.51406   0.00000  2       26
siesta:      9.28770  26.79272   0.00000  2       27
siesta:      9.28770  29.48119   0.00000  2       28
siesta:     -4.68258  34.85847   0.00000  2       29
siesta:      2.30256   9.31683   0.00000  2       30
siesta:      4.63094  13.34970   0.00000  2       31
siesta:      6.95932  14.69411   0.00000  2       32
siesta:      9.28770  18.72698   0.00000  2       33
siesta:     11.61608  22.75985   0.00000  2       34
siesta:     11.61608  25.44831   0.00000  2       35
siesta:     -2.35420   6.62836   0.00000  2       36
siesta:     -2.35420   9.31683   0.00000  2       37
siesta:     -0.02582  10.66124   0.00000  2       38
siesta:     -0.02582  13.34970   0.00000  2       39
siesta:      2.30256  14.69411   0.00000  2       40
siesta:      2.30256  17.38257   0.00000  2       41
siesta:      4.63094  18.72698   0.00000  2       42
siesta:      4.63094  21.41544   0.00000  2       43
siesta:      6.95932  22.75985   0.00000  2       44
siesta:      6.95932  25.44831   0.00000  2       45
siesta:     -4.68258  10.66124   0.00000  2       46
siesta:     -2.35420  14.69411   0.00000  2       47
siesta:     -2.35420  17.38257   0.00000  2       48
siesta:     -0.02582  18.72698   0.00000  2       49
siesta:      2.30256  22.75985   0.00000  2       50
siesta:     -7.01096  14.69411   0.00000  2       51
siesta:     -4.68258  18.72698   0.00000  2       52
siesta:     -4.68258  21.41544   0.00000  2       53
siesta:     -2.35420  22.75985   0.00000  2       54
siesta:     -2.35420  25.44831   0.00000  2       55
siesta:     -9.33934  21.41544   0.00000  2       56
siesta:     -7.01096  22.75985   0.00000  2       57
siesta:     -7.01096  25.44831   0.00000  2       58
siesta:    -11.66772  22.75985   0.00000  2       59
siesta:    -11.66772  25.44831   0.00000  2       60
siesta:     -9.33934  26.79272   0.00000  2       61
siesta:      4.63094  26.79272   0.00000  2       62
siesta:     -0.02582  26.79272   0.00000  2       63
siesta:     -0.02582  29.48119   0.00000  2       64
siesta:     -4.68258  29.48119   0.00000  2       65
siesta:      2.30256  30.82560   0.00000  2       66
siesta:      2.30256  33.51406   0.00000  2       67
siesta:     -2.35420  33.51406   0.00000  2       68
siesta:     -7.01096  30.82560   0.00000  2       69
siesta:     -0.02582  37.54693   0.00000  2       70
siesta:     -0.02582  42.92421   0.00000  2       71
siesta:     -0.02582  45.61267   0.00000  2       72

siesta: System type = slab      

initatomlists: Number of atoms, orbitals, and projectors:     72   936  1152

siesta: ******************** Simulation parameters ****************************
siesta:
siesta: The following are some of the parameters of the simulation.
siesta: A complete list of the parameters used, including default values,
siesta: can be found in file out.fdf
siesta:
redata: Non-Collinear-spin run           =     F
redata: SpinPolarized (Up/Down) run      =     F
redata: Number of spin components        =     1
redata: Long output                      =     F
redata: Number of Atomic Species         =        2
redata: Charge density info will appear in .RHO file
redata: Write Mulliken Pop.              =     NO
redata: Mesh Cutoff                      =   200.0000  Ry
redata: Net charge of the system         =     0.0000 |e|
redata: Max. number of SCF Iter          =      500
redata: SCF convergence failure will abort job
redata: Performing Pulay mixing using    =    10 iterations
redata: Mix DM in first SCF step ?       =     F
redata: Write Pulay info on disk?        =     F
redata: Discard 1st Pulay DM after  kick =     F
redata: New DM Mixing Weight             =     0.0500
redata: New DM Occupancy tolerance       = 0.000000000001
redata: No kicks to SCF
redata: DM Mixing Weight for Kicks       =     0.5000
redata: DM Tolerance for SCF             =     0.000100
redata: Require Energy convergence for SCF =     F
redata: DM Energy tolerance for SCF      =     0.000100 eV
redata: Require Harris convergence for SCF =     F
redata: DM Harris energy tolerance for SCF =     0.000100 eV
redata: Using Saved Data (generic)   =     F
redata: Use continuation files for DM    =     T
redata: Neglect nonoverlap interactions  =     F
redata: Method of Calculation            =     Diagonalization
redata: Divide and Conquer               =     T
redata: Electronic Temperature           =     0.0019  Ry
redata: Fix the spin of the system       =     F
redata: Dynamics option                  =     Verlet MD run
redata: Initial MD time step             =        1
redata:   Final MD time step             =        1
redata: Length of MD time step           =     1.0000  fs
redata: Initial Temperature of MD run    =     0.0000  K
redata: Perform a MD quench              =     F
redata: ***********************************************************************
Total number of electrons:   271.000000
Total ionic charge:   271.000000

* ProcessorY, Blocksize:    2  24

k-point displ. along   1 input, could be:     0.50    0.00
k-point displ. along   2 input, could be:     0.50    0.00
 Kpoints in:          231 . Kpoints trimmed:          231

siesta: k-grid: Number of k-points =   231
siesta: k-grid: Cutoff (effective) =     5.000 Ang
siesta: k-grid: Supercell and displacements
siesta: k-grid:   21   0   0      0.500
siesta: k-grid:    0  21   0      0.500
siesta: k-grid:    0   0   1      0.000
Naive supercell factors:     2    2    2

superc: Internal auxiliary supercell:     2 x     2 x     2  =       8
superc: Number of atoms, orbitals, and projectors:    576   7488   9216

* Maximum dynamic memory allocated =     4 MB

siesta:                 ==============================
                            Begin MD step =      1
                        ==============================

superc: Internal auxiliary supercell:     2 x     2 x     2  =       8
superc: Number of atoms, orbitals, and projectors:    576   7488   9216

outcell: Unit cell vectors (Ang):
       12.804619    7.392750    0.000000
        0.000000   14.785500    0.000000
        0.000000    0.000000   10.000000

outcell: Cell vector modules (Ang)   :   14.785500   14.785500   10.000000
outcell: Cell angles (23,13,12) (deg):     90.0000     90.0000     60.0000
outcell: Cell volume (Ang**3)        :   1893.2269
New_DM. Step:     1
Initializing Density Matrix...

InitMesh: MESH =   120 x   120 x    90 =     1296000
InitMesh: Mesh cutoff (required, used) =   200.000   223.865 Ry

* Maximum dynamic memory allocated =   224 MB

stepf: Fermi-Dirac step function

siesta: Program's energy decomposition (eV):
siesta: Ebs     =     -5604.415615
siesta: Eions   =     16226.046981
siesta: Ena     =      4315.003805
siesta: Ekin    =      5481.631332
siesta: Enl     =       779.507808
siesta: DEna    =        -0.000009
siesta: DUscf   =         0.000000
siesta: DUext   =         0.000000
siesta: Exc     =     -4192.413425
siesta: eta*DQ  =         0.000000
siesta: Emadel  =         0.000000
siesta: Emeta   =         0.000000
siesta: Emolmec =         0.000000
siesta: Ekinion =         0.000000
siesta: Eharris =     -9601.447046
siesta: Etot    =     -9842.317470
siesta: FreeEng =     -9842.317470

siesta: iscf   Eharris(eV)      E_KS(eV)   FreeEng(eV)   dDmax  Ef(eV)
siesta:    1    -9601.4470    -9842.3175    -9842.3175  6.2976 -8.3668
timer: Routine,Calls,Time,% = IterSCF        1    3473.286  99.69
elaps: Routine,Calls,Wall,% = IterSCF        1     435.021  99.69
siesta:    2   -13574.2462    -8928.2783    -8928.3260 15.4156 -3.3797
siesta:    3    -9589.9941    -9659.3939    -9659.4334  2.3056 -5.9467
siesta:    4    -9526.9322    -9590.2959    -9590.3386  1.5214 -5.6734
siesta:    5    -9466.3483    -9502.4934    -9502.5450  1.2744 -5.2443
siesta:    6    -9456.5403    -9479.2966    -9479.3459  0.8639 -5.0845
siesta:    7    -9454.3367    -9471.0938    -9471.1354  1.0355 -5.0567
siesta:    8    -9449.6537    -9454.9603    -9454.9969  0.6871 -5.0891
siesta:    9    -9448.7139    -9446.6187    -9446.6637  0.6025 -5.0543
siesta:   10    -9448.6868    -9439.5353    -9439.6010  0.5351 -4.9647
siesta:   11    -9447.7113    -9433.3449    -9433.3841  0.4940 -4.9237
siesta:   12    -9446.7869    -9429.5181    -9429.5597  0.3761 -4.9719
siesta:   13    -9446.7157    -9427.6329    -9427.7071  0.3620 -4.9450
siesta:   14    -9446.0184    -9430.0350    -9430.0920  0.4569 -4.9623
siesta:   15    -9445.6171    -9430.1658    -9430.2366  0.2680 -5.0461
siesta:   16    -9445.4033    -9432.0744    -9432.1223  0.1846 -5.0378
siesta:   17    -9445.2864    -9434.4763    -9434.5317  0.1906 -5.0571
siesta:   18    -9445.2143    -9436.5006    -9436.5765  0.1917 -5.0684
siesta:   19    -9445.1933    -9441.3650    -9441.4239  0.1534 -5.0864
siesta:   20    -9445.1660    -9445.0010    -9445.0600  0.1765 -5.0635
siesta:   21    -9445.1392    -9445.3823    -9445.4518  0.0462 -5.0802
siesta:   22    -9445.1333    -9445.2263    -9445.2928  0.0746 -5.0805
siesta:   23    -9445.1194    -9446.1421    -9446.2073  0.0281 -5.0812
siesta:   24    -9445.1196    -9446.1411    -9446.2089  0.0886 -5.0852
siesta:   25    -9445.1165    -9446.5585    -9446.6231  0.0252 -5.0763
siesta:   26    -9445.1151    -9446.4889    -9446.5559  0.0160 -5.0744
siesta:   27    -9445.1121    -9446.1481    -9446.2149  0.0118 -5.0658
siesta:   28    -9445.1126    -9445.8411    -9445.9089  0.0239 -5.0637
siesta:   29    -9445.1124    -9445.5585    -9445.6259  0.0157 -5.0638
siesta:   30    -9445.1125    -9445.3402    -9445.4074  0.0040 -5.0640
siesta:   31    -9445.1124    -9445.2387    -9445.3058  0.0022 -5.0639
siesta:   32    -9445.1123    -9445.2001    -9445.2672  0.0046 -5.0639
siesta:   33    -9445.1124    -9445.1414    -9445.2085  0.0009 -5.0650
siesta:   34    -9445.1123    -9445.1472    -9445.2142  0.0022 -5.0651
siesta:   35    -9445.1123    -9445.1237    -9445.1908  0.0004 -5.0653
siesta:   36    -9445.1123    -9445.1133    -9445.1804  0.0002 -5.0652
siesta:   37    -9445.1123    -9445.1077    -9445.1747  0.0001 -5.0653
siesta:   38    -9445.1123    -9445.1085    -9445.1756  0.0001 -5.0653

siesta: E_KS(eV) =            -9445.1071

siesta: E_KS - E_eggbox =     -9445.1071

siesta: Atomic forces (eV/Ang):
----------------------------------------
   Tot   -0.128824   -0.017393    0.000000
----------------------------------------
   Max  561.013947
   Res  148.253935    sqrt( Sum f_i^2 / 3N )
----------------------------------------
   Max  561.013947    constrained

Stress-tensor-Voigt (kbar):     -742.96    -2675.74       -0.53       23.91        0.00        0.00
(Free)E + p*V (eV/cell)    -8098.3999
Target enthalpy (eV/cell)    -9445.1742

siesta: Stress tensor (static) (eV/Ang**3):
        -0.463717    0.014923    0.000000
         0.014922   -1.670047    0.000000
         0.000000    0.000000   -0.000330

siesta: Pressure (static):       1139.74377211  kBar

siesta: Stress tensor (total) (eV/Ang**3):
        -0.463717    0.014923    0.000000
         0.014922   -1.670047    0.000000
         0.000000    0.000000   -0.000330

siesta: Pressure (total):       1139.74377211  kBar

siesta: Temp_ion =       0.000 K

* Maximum dynamic memory allocated =   240 MB
Computing bands...

siesta: Program's energy decomposition (eV):
siesta: Ebs     =     -4225.510423
siesta: Eions   =     16226.046981
siesta: Ena     =      4315.003805
siesta: Ekin    =      8377.423638
siesta: Enl     =      -866.245083
siesta: DEna    =      -786.497488
siesta: DUscf   =       106.312921
siesta: DUext   =         0.000000
siesta: Exc     =     -4365.057885
siesta: eta*DQ  =         0.000000
siesta: Emadel  =         0.000000
siesta: Emeta   =         0.000000
siesta: Emolmec =         0.000000
siesta: Ekinion =         0.000000
siesta: Eharris =     -9445.112325
siesta: Etot    =     -9445.107073
siesta: FreeEng =     -9445.174166

siesta: Final energy (eV):
siesta:  Band Struct. =   -4225.510423
siesta:       Kinetic =    8377.423638
siesta:       Hartree =   27205.770645
siesta:    Ext. field =       0.000000
siesta:   Exch.-corr. =   -4365.057885
siesta:  Ion-electron =  -62494.271721
siesta:       Ion-ion =   21831.028249
siesta:       Ekinion =       0.000000
siesta:         Total =   -9445.107073

siesta: Atomic forces (eV/Ang):
siesta:      1   -7.878208  110.633881    0.000000
siesta:      2  -30.139242 -402.226145    0.000000
siesta:      3    8.197869  400.351119    0.000000
siesta:      4   26.524095  397.931092    0.000000
siesta:      5    3.302167   -1.032033    0.000000
siesta:      6    3.122867   -2.025911    0.000000
siesta:      7  -21.453450    2.117950    0.000000
siesta:      8    0.367999    1.352967    0.000000
siesta:      9    0.611727    0.305450    0.000000
siesta:     10    1.323770   -4.923582    0.000000
siesta:     11   -4.855403    2.489498    0.000000
siesta:     12    0.211320    1.604349    0.000000
siesta:     13   -1.673309   -0.565840    0.000000
siesta:     14    0.077381   -0.000835    0.000000
siesta:     15  -20.064384    2.971539    0.000000
siesta:     16    0.448821    1.922134    0.000000
siesta:     17   -9.491866  113.089309    0.000000
siesta:     18    3.349543  550.759648    0.000000
siesta:     19   11.155699 -126.338355    0.000000
siesta:     20   -5.227516  121.355270    0.000000
siesta:     21  -11.111034 -544.010128    0.000000
siesta:     22   10.264135 -544.984525    0.000000
siesta:     23   25.817762   -2.836348    0.000000
siesta:     24   28.229710 -399.541921    0.000000
siesta:     25    6.987503    2.834263    0.000000
siesta:     26   -3.139499    1.665766    0.000000
siesta:     27    2.454640    1.976145    0.000000
siesta:     28   -1.341025    0.341563    0.000000
siesta:     29  -22.340686    2.516638    0.000000
siesta:     30   11.609356 -121.652276    0.000000
siesta:     31   24.689720   -1.955790    0.000000
siesta:     32   -3.604411   -6.315657    0.000000
siesta:     33    0.458759   -1.412515    0.000000
siesta:     34    3.878631    8.134765    0.000000
siesta:     35   -0.077216   -5.870159    0.000000
siesta:     36  -22.750566  556.010282    0.000000
siesta:     37   -2.603357 -126.547710    0.000000
siesta:     38   -1.804432  553.776734    0.000000
siesta:     39    2.207180 -133.890950    0.000000
siesta:     40   29.631845  559.910212    0.000000
siesta:     41   21.066323   -5.210048    0.000000
siesta:     42   -3.264352    2.214212    0.000000
siesta:     43   -0.304432    1.179600    0.000000
siesta:     44   -2.893136    1.736210    0.000000
siesta:     45   -1.390301   -0.759974    0.000000
siesta:     46  -29.403423  397.750117    0.000000
siesta:     47  -30.575133  553.156875    0.000000
siesta:     48  -20.820518   -5.420557    0.000000
siesta:     49   -0.728378  560.649100    0.000000
siesta:     50    2.092100   -2.693450    0.000000
siesta:     51    1.062163   -3.542276    0.000000
siesta:     52    2.566420    3.678696    0.000000
siesta:     53    0.875657   -0.442235    0.000000
siesta:     54   -2.122171    1.077118    0.000000
siesta:     55    3.078556   -0.639084    0.000000
siesta:     56   -3.340496    1.527239    0.000000
siesta:     57   -0.839111    1.691816    0.000000
siesta:     58   -2.794701   -3.407603    0.000000
siesta:     59   -0.087142    5.620083    0.000000
siesta:     60    0.358101   -5.940851    0.000000
siesta:     61   -3.727524   -2.058294    0.000000
siesta:     62    3.281922   -2.109188    0.000000
siesta:     63   -3.047145    0.672602    0.000000
siesta:     64   -2.389819 -561.013947    0.000000
siesta:     65   -0.042030    2.341427    0.000000
siesta:     66   20.103978    4.544797    0.000000
siesta:     67   27.658796 -404.452983    0.000000
siesta:     68  -19.224730 -547.268022    0.000000
siesta:     69   -1.908592    0.185315    0.000000
siesta:     70    9.906325 -537.351800    0.000000
siesta:     71    0.190629  127.546420    0.000000
siesta:     72    1.166443 -551.198600    0.000000
siesta: ----------------------------------------
siesta:    Tot   -0.128824   -0.017393    0.000000

siesta: Stress tensor (static) (eV/Ang**3):
siesta:    -0.463717    0.014923    0.000000
siesta:     0.014922   -1.670047    0.000000
siesta:     0.000000    0.000000   -0.000330

siesta: Cell volume =       1893.226884 Ang**3

siesta: Pressure (static):
siesta:                Solid            Molecule  Units
siesta:           0.00774767          0.11382054  Ry/Bohr**3
siesta:           0.71136442         10.45061509  eV/Ang**3
siesta:        1139.74377211      16743.91228416  kBar
(Free)E+ p_basis*V_orbitals  =       -9409.065340
(Free)Eharris+ p_basis*V_orbitals  =       -9409.069193

siesta: Electric dipole (a.u.)  =    0.000000    0.000000    0.000000
siesta: Electric dipole (Debye) =    0.000000    0.000000    0.000000

* Maximum dynamic memory allocated : Node    0 =   240 MB
* Maximum dynamic memory allocated : Node    1 =    84 MB
* Maximum dynamic memory allocated : Node    2 =    85 MB
* Maximum dynamic memory allocated : Node    3 =   228 MB
* Maximum dynamic memory allocated : Node    4 =   221 MB
* Maximum dynamic memory allocated : Node    5 =    81 MB
* Maximum dynamic memory allocated : Node    6 =    82 MB
* Maximum dynamic memory allocated : Node    7 =   202 MB

* Maximum memory occured during matrixMtoO                    

timer: CPU execution times:
timer:  Routine       Calls   Time/call    Tot.time        %
timer:  siesta            1  130686.100  130686.100   100.00
timer:  Setup             1       2.737       2.737     0.00
timer:  bands             3     244.017     732.051     0.56
timer:  writewave         1       0.018       0.018     0.00
timer:  KSV_init          1       0.000       0.000     0.00
timer:  IterMD            1  129946.074  129946.074    99.43
timer:  hsparse           1       0.513       0.513     0.00
timer:  overlap           1       7.212       7.212     0.01
timer:  IterSCF          38    3414.073  129734.787    99.27
timer:  kinefsm           2       3.740       7.480     0.01
timer:  nlefsm            2      19.978      39.956     0.03
timer:  DHSCF            39     109.895    4285.919     3.28
timer:  DHSCF1            1       0.990       0.990     0.00
timer:  DHSCF2            1      42.190      42.190     0.03
timer:  REORD           314       0.005       1.582     0.00
timer:  POISON           40       0.878      35.118     0.03
timer:  DHSCF3           39     107.762    4202.719     3.22
timer:  rhoofd           39      22.986     896.457     0.69
timer:  cellXC           39       3.299     128.655     0.10
timer:  vmat             39      49.505    1930.698     1.48
timer:  MolMec            2       0.000       0.000     0.00
timer:  diagon           38    3303.571  125535.681    96.06
timer:  c-eigval       8899       6.039   53745.388    41.13
timer:  c-buildHS      8899       0.052     460.253     0.35
timer:  cdiag         17677       6.178  109209.671    83.57
timer:  cdiag1        17677       0.389    6875.979     5.26
timer:  cdiag2        17677       1.768   31249.103    23.91
timer:  cdiag3        17677       3.739   66099.903    50.58
timer:  cdiag4        17677       0.158    2784.819     2.13
timer:  c-eigvec       8778       6.415   56314.196    43.09
timer:  c-buildD       8778       1.841   16163.221    12.37
timer:  DHSCF4            1      39.286      39.286     0.03
timer:  dfscf             1      36.532      36.532     0.03
timer:  overfsm           1       0.451       0.451     0.00
timer:  optical           1       4.574       4.574     0.00
  

elaps: ELAPSED times:
elaps:  Routine       Calls   Time/call    Tot.time        %
elaps:  siesta            1   16367.186   16367.186   100.00
elaps:  Setup             1       0.341       0.341     0.00
elaps:  bands             3      30.577      91.732     0.56
elaps:  writewave         1       0.002       0.002     0.00
elaps:  KSV_init          1       0.000       0.000     0.00
elaps:  IterMD            1   16274.507   16274.507    99.43
elaps:  hsparse           1       0.066       0.066     0.00
elaps:  overlap           1       0.903       0.903     0.01
elaps:  IterSCF          38     427.580   16248.053    99.27
elaps:  kinefsm           2       0.470       0.941     0.01
elaps:  nlefsm            2       2.596       5.192     0.03
elaps:  DHSCF            39      13.897     541.982     3.31
elaps:  DHSCF1            1       0.127       0.127     0.00
elaps:  DHSCF2            1       5.282       5.282     0.03
elaps:  REORD           314       0.001       0.208     0.00
elaps:  POISON           40       0.111       4.438     0.03
elaps:  DHSCF3           39      13.497     526.375     3.22
elaps:  rhoofd           39       6.750     263.262     1.61
elaps:  cellXC           39       0.413      16.098     0.10
elaps:  vmat             39       6.200     241.808     1.48
elaps:  MolMec            2       0.000       0.000     0.00
elaps:  diagon           38     413.749   15722.465    96.06
elaps:  c-eigval       8899       0.756    6730.975    41.12
elaps:  c-buildHS      8899       0.007      62.714     0.38
elaps:  cdiag         17677       0.769   13592.058    83.04
elaps:  cdiag1        17677       0.049     861.926     5.27
elaps:  cdiag2        17677       0.221    3914.337    23.92
elaps:  cdiag3        17677       0.469    8290.444    50.65
elaps:  cdiag4        17677       0.019     343.428     2.10
elaps:  c-eigvec       8778       0.795    6976.826    42.63
elaps:  c-buildD       8778       0.239    2098.527    12.82
elaps:  DHSCF4            1      10.112      10.112     0.06
elaps:  dfscf             1       9.561       9.561     0.06
elaps:  overfsm           1       0.058       0.058     0.00
elaps:  optical           1       0.000       0.000     0.00
  
>> End of run:   1-MAY-2016   4:38:14
