Siesta Version:                                        siesta-3.2-pl-3
Architecture  : x86_64-unknown-linux-gnu--unknown
Compiler flags: mpiifort -g -O2 -fPIC -xSSE4.1 -fp-model source -shared-intel 
PARALLEL version

* Running on    8 nodes in parallel
>> Start of run:  18-APR-2016  12:15:20

                           ***********************       
                           *  WELCOME TO SIESTA  *       
                           ***********************       

reinit: Reading from standard input
************************** Dump of input data file ****************************
#(1) General system descriptors
SystemName            GRP_doping    # Descriptive name of the system
SystemLabel           GRP_doping    # Short name for naming files
%include STRUCT.fdf
%include KPT.fdf
%include BASIS.fdf
#%include TS.fdf # for transiesta calculation
#(4) DFT, Grid, SCF
XC.functional         GGA           # LDA or GGA (default = LDA)
XC.authors            PBE           # CA (Ceperley-Aldr) = PZ
                                    #    (Perdew-Zunger) - LDA - Default
                                    # PW92 (Perdew-Wang-92) - LDA
                                    # PBE (Perdew-Burke-Ernzerhof) - GGA
MeshCutoff            200.000000    Ry      # Default: 50.0 Ry ~ 0.444 Bohr
                                    #         100.0 Ry ~ 0.314 Bohr
MaxSCFIterations      500           # Default: 50
DM.MixingWeight       0.05          # Default: 0.25
DM.NumberPulay        10            # Default: 0
DM.PulayOnFile        F             # SystemLabel.P1, SystemLabel.P2
DM.Tolerance          1.d-4         # Default: 1.d-4
DM.UseSaveDM          .true.        # because of the bug
SCFMustConverge       .true.
NeglNonOverlapInt     F             # Default: F
#(5) Eigenvalue problem: order-N or diagonalization
SolutionMethod        Diagon        # or Transiesta
ElectronicTemperature 300.0 K       # Default: 300.0 K
#(6) Molecular dynamics and relaxations
#MD.TypeOfRun          CG            # Type of dynamics:
#MD.VariableCell       F
#MD.NumCGsteps         0           # 0 for single-point / 100 for gopt
#MD.MaxCGDispl         0.2 Bohr      # Default: 0.2 Bohr
#MD.MaxForceTol        0.02 eV/Ang   # Default: 0.04 eV/Ang
#MD.MaxStressTol       1.0 GPa       # Default: 1.0 GPa
# Geometry Constraints
#%block GeometryConstraints
#	position from 1 to 44
#%endblock GeometryConstraints
BandLinesScale   pi/a
%block BandLines
 1   0.00000000  0.00000000  0.00000000
50   0.00000000  0.07809418  0.00000000
50   0.04509075  0.07809242  0.00000000
20   0.00000000  0.00000000  0.00000000
%endblock BandLines
************************** End of input data file *****************************

reinit: -----------------------------------------------------------------------
reinit: System Name: GRP_doping
reinit: -----------------------------------------------------------------------
reinit: System Label: GRP_doping                                                  
reinit: -----------------------------------------------------------------------

initatom: Reading input for the pseudopotentials and atomic orbitals ----------
 Species number:            1  Label: B Atomic number:           5
 Species number:            2  Label: C Atomic number:           6
Ground state valence configuration:   2s02  2p01
Reading pseudopotential information in formatted form from B.psf

Valence configuration for pseudopotential generation:
2s( 2.00) rc: 1.74
2p( 1.00) rc: 1.74
3d( 0.00) rc: 1.74
4f( 0.00) rc: 1.74
Ground state valence configuration:   2s02  2p02
Reading pseudopotential information in formatted form from C.psf

Valence configuration for pseudopotential generation:
2s( 2.00) rc: 1.54
2p( 2.00) rc: 1.54
3d( 0.00) rc: 1.54
4f( 0.00) rc: 1.54
For B, standard SIESTA heuristics set lmxkb to 3
 (one more than the basis l, including polarization orbitals).
Use PS.lmax or PS.KBprojectors blocks to override.
For C, standard SIESTA heuristics set lmxkb to 3
 (one more than the basis l, including polarization orbitals).
Use PS.lmax or PS.KBprojectors blocks to override.

<basis_specs>
===============================================================================
B                    Z=   5    Mass=  10.810        Charge= 0.17977+309
Lmxo=1 Lmxkb= 3    BasisType=split      Semic=F
L=0  Nsemic=0  Cnfigmx=2
          n=1  nzeta=2  polorb=0
            splnorm:   0.15000    
               vcte:    0.0000    
               rinn:    0.0000    
                rcs:    0.0000      0.0000    
            lambdas:    1.0000      1.0000    
L=1  Nsemic=0  Cnfigmx=2
          n=1  nzeta=2  polorb=1
            splnorm:   0.15000    
               vcte:    0.0000    
               rinn:    0.0000    
                rcs:    0.0000      0.0000    
            lambdas:    1.0000      1.0000    
-------------------------------------------------------------------------------
L=0  Nkbl=1  erefs: 0.17977+309
L=1  Nkbl=1  erefs: 0.17977+309
L=2  Nkbl=1  erefs: 0.17977+309
L=3  Nkbl=1  erefs: 0.17977+309
===============================================================================
</basis_specs>

atom: Called for B                     (Z =   5)

read_vps: Pseudopotential generation method:
read_vps: ATM3      Troullier-Martins                       
Total valence charge:    3.00000

read_vps: Pseudopotential includes a core correction:
read_vps: Pseudo-core for xc-correction

xc_check: Exchange-correlation functional:
xc_check: GGA Perdew, Burke & Ernzerhof 1996
V l=0 = -2*Zval/r beyond r=  1.7165
V l=1 = -2*Zval/r beyond r=  1.7165
V l=2 = -2*Zval/r beyond r=  1.7165
V l=3 = -2*Zval/r beyond r=  1.6951
All V_l potentials equal beyond r=  1.7165
This should be close to max(r_c) in ps generation
All pots = -2*Zval/r beyond r=  1.7165

VLOCAL1: 99.0% of the norm of Vloc inside     14.733 Ry
VLOCAL1: 99.9% of the norm of Vloc inside     33.577 Ry
atom: Maximum radius for 4*pi*r*r*local-pseudopot. charge    2.04484
atom: Maximum radius for r*vlocal+2*Zval:    1.75994
GHOST: No ghost state for L =  0
GHOST: No ghost state for L =  1
GHOST: No ghost state for L =  2
GHOST: No ghost state for L =  3

KBgen: Kleinman-Bylander projectors: 
   l= 0   rc=  1.897051   el= -0.693730   Ekb=  4.595746   kbcos=  0.286105
   l= 1   rc=  1.920920   el= -0.265236   Ekb= -2.350715   kbcos= -0.315747
   l= 2   rc=  2.044840   el=  0.002055   Ekb= -0.690767   kbcos= -0.013822
   l= 3   rc=  2.149707   el=  0.003188   Ekb= -0.315358   kbcos= -0.002055

KBgen: Total number of  Kleinman-Bylander projectors:   16
atom: -------------------------------------------------------------------------

atom: SANKEY-TYPE ORBITALS:
atom: Selected multiple-zeta basis: split     

SPLIT: Orbitals with angular momentum L= 0

SPLIT: Basis orbitals for state 2s

SPLIT: PAO cut-off radius determined from an
SPLIT: energy shift=  0.007350 Ry

   izeta = 1
                 lambda =    1.000000
                     rc =    5.422032
                 energy =   -0.686029
                kinetic =    0.576707
    potential(screened) =   -1.262736
       potential(ionic) =   -3.271094

   izeta = 2
                 rmatch =    4.222573
              splitnorm =    0.150000
                 energy =   -0.602132
                kinetic =    0.858975
    potential(screened) =   -1.461107
       potential(ionic) =   -3.582536

SPLIT: Orbitals with angular momentum L= 1

SPLIT: Basis orbitals for state 2p

SPLIT: PAO cut-off radius determined from an
SPLIT: energy shift=  0.007350 Ry

   izeta = 1
                 lambda =    1.000000
                     rc =    6.790259
                 energy =   -0.258578
                kinetic =    1.481412
    potential(screened) =   -1.739989
       potential(ionic) =   -3.657461

   izeta = 2
                 rmatch =    4.608740
              splitnorm =    0.150000
                 energy =   -0.173757
                kinetic =    2.186690
    potential(screened) =   -2.360447
       potential(ionic) =   -4.464260

POLgen: Perturbative polarization orbital with L=  2

POLgen: Polarization orbital for state 2p

   izeta = 1
                     rc =    6.790259
                 energy =    0.684082
                kinetic =    1.471481
    potential(screened) =   -0.787399
       potential(ionic) =   -2.406985
atom: Total number of Sankey-type orbitals: 13

atm_pop: Valence configuration (for local Pseudopot. screening):
 2s( 2.00)                                                            
 2p( 1.00)                                                            
Vna: chval, zval:    3.00000   3.00000

Vna:  Cut-off radius for the neutral-atom potential:   6.790259
comcore: Pseudo-core radius Rcore=  2.122997

atom: _________________________________________________________________________

<basis_specs>
===============================================================================
C                    Z=   6    Mass=  12.010        Charge= 0.17977+309
Lmxo=1 Lmxkb= 3    BasisType=split      Semic=F
L=0  Nsemic=0  Cnfigmx=2
          n=1  nzeta=2  polorb=0
            splnorm:   0.15000    
               vcte:    0.0000    
               rinn:    0.0000    
                rcs:    0.0000      0.0000    
            lambdas:    1.0000      1.0000    
L=1  Nsemic=0  Cnfigmx=2
          n=1  nzeta=2  polorb=1
            splnorm:   0.15000    
               vcte:    0.0000    
               rinn:    0.0000    
                rcs:    0.0000      0.0000    
            lambdas:    1.0000      1.0000    
-------------------------------------------------------------------------------
L=0  Nkbl=1  erefs: 0.17977+309
L=1  Nkbl=1  erefs: 0.17977+309
L=2  Nkbl=1  erefs: 0.17977+309
L=3  Nkbl=1  erefs: 0.17977+309
===============================================================================
</basis_specs>

atom: Called for C                     (Z =   6)

read_vps: Pseudopotential generation method:
read_vps: ATM3      Troullier-Martins                       
Total valence charge:    4.00000

read_vps: Pseudopotential includes a core correction:
read_vps: Pseudo-core for xc-correction

xc_check: Exchange-correlation functional:
xc_check: GGA Perdew, Burke & Ernzerhof 1996
V l=0 = -2*Zval/r beyond r=  1.5227
V l=1 = -2*Zval/r beyond r=  1.5227
V l=2 = -2*Zval/r beyond r=  1.5227
V l=3 = -2*Zval/r beyond r=  1.5038
All V_l potentials equal beyond r=  1.5227
This should be close to max(r_c) in ps generation
All pots = -2*Zval/r beyond r=  1.5227

VLOCAL1: 99.0% of the norm of Vloc inside     18.722 Ry
VLOCAL1: 99.9% of the norm of Vloc inside     42.668 Ry
atom: Maximum radius for 4*pi*r*r*local-pseudopot. charge    1.83678
atom: Maximum radius for r*vlocal+2*Zval:    1.58088
GHOST: No ghost state for L =  0
GHOST: No ghost state for L =  1
GHOST: No ghost state for L =  2
GHOST: No ghost state for L =  3

KBgen: Kleinman-Bylander projectors: 
   l= 0   rc=  1.704034   el= -1.009801   Ekb=  5.335044   kbcos=  0.316824
   l= 1   rc=  1.704034   el= -0.388707   Ekb= -3.785862   kbcos= -0.366464
   l= 2   rc=  1.791422   el=  0.001971   Ekb= -0.970471   kbcos= -0.009212
   l= 3   rc=  1.859892   el=  0.003065   Ekb= -0.399525   kbcos= -0.001223

KBgen: Total number of  Kleinman-Bylander projectors:   16
atom: -------------------------------------------------------------------------

atom: SANKEY-TYPE ORBITALS:
atom: Selected multiple-zeta basis: split     

SPLIT: Orbitals with angular momentum L= 0

SPLIT: Basis orbitals for state 2s

SPLIT: PAO cut-off radius determined from an
SPLIT: energy shift=  0.007350 Ry

   izeta = 1
                 lambda =    1.000000
                     rc =    4.632753
                 energy =   -1.002270
                kinetic =    0.855760
    potential(screened) =   -1.858031
       potential(ionic) =   -5.417575

   izeta = 2
                 rmatch =    3.431921
              splitnorm =    0.150000
                 energy =   -0.867111
                kinetic =    1.300804
    potential(screened) =   -2.167915
       potential(ionic) =   -5.962684

SPLIT: Orbitals with angular momentum L= 1

SPLIT: Basis orbitals for state 2p

SPLIT: PAO cut-off radius determined from an
SPLIT: energy shift=  0.007350 Ry

   izeta = 1
                 lambda =    1.000000
                     rc =    5.658549
                 energy =   -0.381140
                kinetic =    2.399701
    potential(screened) =   -2.780841
       potential(ionic) =   -6.206085

   izeta = 2
                 rmatch =    3.653288
              splitnorm =    0.150000
                 energy =   -0.249149
                kinetic =    3.542762
    potential(screened) =   -3.791911
       potential(ionic) =   -7.581078

POLgen: Perturbative polarization orbital with L=  2

POLgen: Polarization orbital for state 2p

   izeta = 1
                     rc =    5.658549
                 energy =    1.109913
                kinetic =    2.304789
    potential(screened) =   -1.194876
       potential(ionic) =   -4.013592
atom: Total number of Sankey-type orbitals: 13

atm_pop: Valence configuration (for local Pseudopot. screening):
 2s( 2.00)                                                            
 2p( 2.00)                                                            
Vna: chval, zval:    4.00000   4.00000

Vna:  Cut-off radius for the neutral-atom potential:   5.658549
comcore: Pseudo-core radius Rcore=  1.791422

atom: _________________________________________________________________________

prinput: Basis input ----------------------------------------------------------

PAO.BasisType split     

%block ChemicalSpeciesLabel
    1    5 B                       # Species index, atomic number, species label
    2    6 C                       # Species index, atomic number, species label
%endblock ChemicalSpeciesLabel

%block PAO.Basis                 # Define Basis set
B                     2                    # Species label, number of l-shells
 n=2   0   2                         # n, l, Nzeta 
   5.422      4.223   
   1.000      1.000   
 n=2   1   2 P   1                   # n, l, Nzeta, Polarization, NzetaPol
   6.790      4.609   
   1.000      1.000   
C                     2                    # Species label, number of l-shells
 n=2   0   2                         # n, l, Nzeta 
   4.633      3.432   
   1.000      1.000   
 n=2   1   2 P   1                   # n, l, Nzeta, Polarization, NzetaPol
   5.659      3.653   
   1.000      1.000   
%endblock PAO.Basis

prinput: ----------------------------------------------------------------------

coor:   Atomic-coordinates input format  =     Fractional

siesta: Atomic coordinates (Bohr) and species
siesta:     -0.02582   2.59549   0.00000  1        1
siesta:     -0.02582   5.28395   0.00000  1        2
siesta:     -2.35420  38.89134   0.00000  1        3
siesta:     -2.35420  41.57980   0.00000  1        4
siesta:      2.30256  38.89134   0.00000  1        5
siesta:      2.30256  41.57980   0.00000  1        6
siesta:     -4.68258  34.85847   0.00000  1        7
siesta:     -4.68258  37.54693   0.00000  1        8
siesta:      2.30256   6.62836   0.00000  1        9
siesta:      2.30256   9.31683   0.00000  1       10
siesta:     -2.35420   6.62836   0.00000  1       11
siesta:     -2.35420   9.31683   0.00000  1       12
siesta:     -0.02582  10.66124   0.00000  1       13
siesta:     -0.02582  13.34970   0.00000  1       14
siesta:     -0.02582  18.72698   0.00000  1       15
siesta:     -0.02582  21.41544   0.00000  1       16
siesta:      2.30256  22.75985   0.00000  1       17
siesta:      2.30256  25.44831   0.00000  1       18
siesta:     -2.35420  22.75985   0.00000  1       19
siesta:     -2.35420  25.44831   0.00000  1       20
siesta:     -0.02582  26.79272   0.00000  1       21
siesta:     -0.02582  29.48119   0.00000  1       22
siesta:     -0.02582  34.85847   0.00000  1       23
siesta:     -0.02582  37.54693   0.00000  1       24
siesta:     -0.02582  42.92421   0.00000  1       25
siesta:     -0.02582  45.61267   0.00000  1       26
siesta:      4.63094  34.85847   0.00000  2       27
siesta:      4.63094  37.54693   0.00000  2       28
siesta:      6.95932  30.82560   0.00000  2       29
siesta:      6.95932  33.51406   0.00000  2       30
siesta:      9.28770  26.79272   0.00000  2       31
siesta:      9.28770  29.48119   0.00000  2       32
siesta:      4.63094  10.66124   0.00000  2       33
siesta:      4.63094  13.34970   0.00000  2       34
siesta:      6.95932  14.69411   0.00000  2       35
siesta:      6.95932  17.38257   0.00000  2       36
siesta:      9.28770  18.72698   0.00000  2       37
siesta:      9.28770  21.41544   0.00000  2       38
siesta:     11.61608  22.75985   0.00000  2       39
siesta:     11.61608  25.44831   0.00000  2       40
siesta:      2.30256  14.69411   0.00000  2       41
siesta:      2.30256  17.38257   0.00000  2       42
siesta:      4.63094  18.72698   0.00000  2       43
siesta:      4.63094  21.41544   0.00000  2       44
siesta:      6.95932  22.75985   0.00000  2       45
siesta:      6.95932  25.44831   0.00000  2       46
siesta:     -4.68258  10.66124   0.00000  2       47
siesta:     -4.68258  13.34970   0.00000  2       48
siesta:     -2.35420  14.69411   0.00000  2       49
siesta:     -2.35420  17.38257   0.00000  2       50
siesta:     -7.01096  14.69411   0.00000  2       51
siesta:     -7.01096  17.38257   0.00000  2       52
siesta:     -4.68258  18.72698   0.00000  2       53
siesta:     -4.68258  21.41544   0.00000  2       54
siesta:     -9.33934  18.72698   0.00000  2       55
siesta:     -9.33934  21.41544   0.00000  2       56
siesta:     -7.01096  22.75985   0.00000  2       57
siesta:     -7.01096  25.44831   0.00000  2       58
siesta:    -11.66772  22.75985   0.00000  2       59
siesta:    -11.66772  25.44831   0.00000  2       60
siesta:     -9.33934  26.79272   0.00000  2       61
siesta:     -9.33934  29.48119   0.00000  2       62
siesta:      4.63094  26.79272   0.00000  2       63
siesta:      4.63094  29.48119   0.00000  2       64
siesta:     -4.68258  26.79272   0.00000  2       65
siesta:     -4.68258  29.48119   0.00000  2       66
siesta:      2.30256  30.82560   0.00000  2       67
siesta:      2.30256  33.51406   0.00000  2       68
siesta:     -2.35420  30.82560   0.00000  2       69
siesta:     -2.35420  33.51406   0.00000  2       70
siesta:     -7.01096  30.82560   0.00000  2       71
siesta:     -7.01096  33.51406   0.00000  2       72

siesta: System type = slab      

initatomlists: Number of atoms, orbitals, and projectors:     72   936  1152

siesta: ******************** Simulation parameters ****************************
siesta:
siesta: The following are some of the parameters of the simulation.
siesta: A complete list of the parameters used, including default values,
siesta: can be found in file out.fdf
siesta:
redata: Non-Collinear-spin run           =     F
redata: SpinPolarized (Up/Down) run      =     F
redata: Number of spin components        =     1
redata: Long output                      =     F
redata: Number of Atomic Species         =        2
redata: Charge density info will appear in .RHO file
redata: Write Mulliken Pop.              =     NO
redata: Mesh Cutoff                      =   200.0000  Ry
redata: Net charge of the system         =     0.0000 |e|
redata: Max. number of SCF Iter          =      500
redata: SCF convergence failure will abort job
redata: Performing Pulay mixing using    =    10 iterations
redata: Mix DM in first SCF step ?       =     F
redata: Write Pulay info on disk?        =     F
redata: Discard 1st Pulay DM after  kick =     F
redata: New DM Mixing Weight             =     0.0500
redata: New DM Occupancy tolerance       = 0.000000000001
redata: No kicks to SCF
redata: DM Mixing Weight for Kicks       =     0.5000
redata: DM Tolerance for SCF             =     0.000100
redata: Require Energy convergence for SCF =     F
redata: DM Energy tolerance for SCF      =     0.000100 eV
redata: Require Harris convergence for SCF =     F
redata: DM Harris energy tolerance for SCF =     0.000100 eV
redata: Using Saved Data (generic)   =     F
redata: Use continuation files for DM    =     T
redata: Neglect nonoverlap interactions  =     F
redata: Method of Calculation            =     Diagonalization
redata: Divide and Conquer               =     T
redata: Electronic Temperature           =     0.0019  Ry
redata: Fix the spin of the system       =     F
redata: Dynamics option                  =     Verlet MD run
redata: Initial MD time step             =        1
redata:   Final MD time step             =        1
redata: Length of MD time step           =     1.0000  fs
redata: Initial Temperature of MD run    =     0.0000  K
redata: Perform a MD quench              =     F
redata: ***********************************************************************
Total number of electrons:   262.000000
Total ionic charge:   262.000000

* ProcessorY, Blocksize:    2  24

k-point displ. along   1 input, could be:     0.50    0.00
k-point displ. along   2 input, could be:     0.50    0.00
 Kpoints in:          231 . Kpoints trimmed:          231

siesta: k-grid: Number of k-points =   231
siesta: k-grid: Cutoff (effective) =     5.000 Ang
siesta: k-grid: Supercell and displacements
siesta: k-grid:   21   0   0      0.500
siesta: k-grid:    0  21   0      0.500
siesta: k-grid:    0   0   1      0.000
Naive supercell factors:     2    2    2

superc: Internal auxiliary supercell:     2 x     2 x     2  =       8
superc: Number of atoms, orbitals, and projectors:    576   7488   9216

* Maximum dynamic memory allocated =     4 MB

siesta:                 ==============================
                            Begin MD step =      1
                        ==============================

superc: Internal auxiliary supercell:     2 x     2 x     2  =       8
superc: Number of atoms, orbitals, and projectors:    576   7488   9216

outcell: Unit cell vectors (Ang):
       12.804619    7.392750    0.000000
        0.000000   14.785500    0.000000
        0.000000    0.000000   10.000000

outcell: Cell vector modules (Ang)   :   14.785500   14.785500   10.000000
outcell: Cell angles (23,13,12) (deg):     90.0000     90.0000     60.0000
outcell: Cell volume (Ang**3)        :   1893.2269
New_DM. Step:     1
Initializing Density Matrix...

InitMesh: MESH =   120 x   120 x    90 =     1296000
InitMesh: Mesh cutoff (required, used) =   200.000   223.865 Ry

* Maximum dynamic memory allocated =   235 MB

stepf: Fermi-Dirac step function

siesta: Program's energy decomposition (eV):
siesta: Ebs     =     -5300.985264
siesta: Eions   =     15073.536580
siesta: Ena     =      4081.685901
siesta: Ekin    =      5006.990805
siesta: Enl     =       871.933602
siesta: DEna    =        -0.000006
siesta: DUscf   =         0.000000
siesta: DUext   =         0.000000
siesta: Exc     =     -4182.131662
siesta: eta*DQ  =         0.000000
siesta: Emadel  =         0.000000
siesta: Emeta   =         0.000000
siesta: Emolmec =         0.000000
siesta: Ekinion =         0.000000
siesta: Eharris =     -9218.574317
siesta: Etot    =     -9295.057940
siesta: FreeEng =     -9295.057940

siesta: iscf   Eharris(eV)      E_KS(eV)   FreeEng(eV)   dDmax  Ef(eV)
siesta:    1    -9218.5743    -9295.0579    -9295.0579  6.1374 -8.4439
timer: Routine,Calls,Time,% = IterSCF        1    4470.874  99.72
elaps: Routine,Calls,Wall,% = IterSCF        1     559.618  99.72
siesta:    2   -17273.5625    -7936.2235    -7936.2804 15.7974-11.6022
siesta:    3    -9462.5928    -9107.5329    -9107.5874  1.4529 -5.1740
siesta:    4    -9327.3599    -9070.0077    -9070.0823  1.2717 -5.0835
siesta:    5    -9211.8012    -9028.4145    -9028.4774  1.1434 -4.9941
siesta:    6    -9157.4174    -9008.3629    -9008.4200  1.0650 -5.4037
siesta:    7    -9121.6882    -8999.4666    -8999.4906  0.9763 -5.6792
siesta:    8    -9082.6682    -8985.2147    -8985.2821  0.7731 -5.5128
siesta:    9    -9070.7286    -8981.2601    -8981.2782  0.6811 -5.3112
siesta:   10    -9067.7897    -8984.6094    -8984.6311  0.6217 -5.3211
siesta:   11    -9063.2761    -9003.6323    -9003.6941  0.3736 -5.0939
siesta:   12    -9061.6878    -9006.5754    -9006.6532  0.3379 -5.0930
siesta:   13    -9059.9104    -9015.2735    -9015.3347  0.2683 -5.2445
siesta:   14    -9059.7820    -9030.7970    -9030.8346  0.2144 -5.3191
siesta:   15    -9059.2835    -9040.5996    -9040.6526  0.1939 -5.3951
siesta:   16    -9059.0679    -9048.6876    -9048.7330  0.1996 -5.4474
siesta:   17    -9058.5576    -9052.2559    -9052.2855  0.1726 -5.4439
siesta:   18    -9058.3753    -9057.3942    -9057.4379  0.1171 -5.4754
siesta:   19    -9058.3569    -9056.9723    -9057.0525  0.0857 -5.4796
siesta:   20    -9058.5451    -9056.9391    -9056.9966  0.0897 -5.4650
siesta:   21    -9058.4006    -9056.2013    -9056.2465  0.0636 -5.4586
siesta:   22    -9058.2851    -9056.3840    -9056.4360  0.0392 -5.4559
siesta:   23    -9058.2464    -9055.9192    -9055.9814  0.0329 -5.4510
siesta:   24    -9058.2096    -9056.3234    -9056.3835  0.0347 -5.4536
siesta:   25    -9058.2008    -9056.1677    -9056.2237  0.0310 -5.4465
siesta:   26    -9058.1965    -9056.1551    -9056.2099  0.0292 -5.4462
siesta:   27    -9058.1887    -9056.5745    -9056.6305  0.0295 -5.4483
siesta:   28    -9058.1879    -9057.0306    -9057.0901  0.0222 -5.4493
siesta:   29    -9058.1863    -9057.8980    -9057.9585  0.0068 -5.4415
siesta:   30    -9058.1857    -9057.7969    -9057.8574  0.0033 -5.4376
siesta:   31    -9058.1861    -9057.8882    -9057.9486  0.0034 -5.4380
siesta:   32    -9058.1854    -9057.9697    -9058.0293  0.0020 -5.4380
siesta:   33    -9058.1854    -9058.0608    -9058.1209  0.0014 -5.4387
siesta:   34    -9058.1853    -9058.1205    -9058.1806  0.0011 -5.4391
siesta:   35    -9058.1853    -9058.1407    -9058.2008  0.0009 -5.4393
siesta:   36    -9058.1853    -9058.1587    -9058.2188  0.0006 -5.4392
siesta:   37    -9058.1853    -9058.1709    -9058.2310  0.0004 -5.4392
siesta:   38    -9058.1852    -9058.1746    -9058.2347  0.0002 -5.4393
siesta:   39    -9058.1852    -9058.1745    -9058.2346  0.0002 -5.4393
siesta:   40    -9058.1852    -9058.1751    -9058.2353  0.0002 -5.4393
siesta:   41    -9058.1852    -9058.1771    -9058.2372  0.0001 -5.4392
siesta:   42    -9058.1852    -9058.1817    -9058.2418  0.0001 -5.4393

siesta: E_KS(eV) =            -9058.1842

siesta: E_KS - E_eggbox =     -9058.1842

siesta: Atomic forces (eV/Ang):
----------------------------------------
   Tot   -0.260829   -0.010751    0.000000
----------------------------------------
   Max  548.561671
   Res  115.703683    sqrt( Sum f_i^2 / 3N )
----------------------------------------
   Max  548.561671    constrained

Stress-tensor-Voigt (kbar):     -580.21    -2099.14       -0.73       -2.95        0.00        0.00
(Free)E + p*V (eV/cell)    -8002.6099
Target enthalpy (eV/cell)    -9058.2444

siesta: Stress tensor (static) (eV/Ang**3):
        -0.362136   -0.001843    0.000000
        -0.001843   -1.310163    0.000000
         0.000000    0.000000   -0.000455

siesta: Pressure (static):        893.35896090  kBar

siesta: Stress tensor (total) (eV/Ang**3):
        -0.362136   -0.001843    0.000000
        -0.001843   -1.310163    0.000000
         0.000000    0.000000   -0.000455

siesta: Pressure (total):        893.35896090  kBar

siesta: Temp_ion =       0.000 K

* Maximum dynamic memory allocated =   252 MB
Computing bands...

siesta: Program's energy decomposition (eV):
siesta: Ebs     =     -3987.676517
siesta: Eions   =     15073.536580
siesta: Ena     =      4081.685901
siesta: Ekin    =      7545.177740
siesta: Enl     =      -732.261209
siesta: DEna    =      -639.086296
siesta: DUscf   =        82.483346
siesta: DUext   =         0.000000
siesta: Exc     =     -4322.647118
siesta: eta*DQ  =         0.000000
siesta: Emadel  =         0.000000
siesta: Emeta   =         0.000000
siesta: Emolmec =         0.000000
siesta: Ekinion =         0.000000
siesta: Eharris =     -9058.185239
siesta: Etot    =     -9058.184216
siesta: FreeEng =     -9058.244354

siesta: Final energy (eV):
siesta:  Band Struct. =   -3987.676517
siesta:       Kinetic =    7545.177740
siesta:       Hartree =   23276.634620
siesta:    Ext. field =       0.000000
siesta:   Exch.-corr. =   -4322.647118
siesta:  Ion-electron =  -53850.652741
siesta:       Ion-ion =   18293.303283
siesta:       Ekinion =       0.000000
siesta:         Total =   -9058.184216

siesta: Atomic forces (eV/Ang):
siesta:      1    0.531750  303.790582    0.000000
siesta:      2   -0.679746  -92.998435    0.000000
siesta:      3   -1.594481   98.351317    0.000000
siesta:      4    0.827046 -405.177978    0.000000
siesta:      5    1.362000  101.954836    0.000000
siesta:      6    0.007786 -404.673026    0.000000
siesta:      7  -20.932355   -3.885422    0.000000
siesta:      8  -17.771805 -395.473860    0.000000
siesta:      9   -0.223467  403.571687    0.000000
siesta:     10    0.711887 -101.361925    0.000000
siesta:     11    4.258407  405.687093    0.000000
siesta:     12   -0.946215  -99.066191    0.000000
siesta:     13    0.652319  295.286755    0.000000
siesta:     14   -0.484159 -103.316899    0.000000
siesta:     15   -0.168767  307.104474    0.000000
siesta:     16    0.003114    2.084834    0.000000
siesta:     17    3.283965   -5.339838    0.000000
siesta:     18    3.167798    5.325037    0.000000
siesta:     19   -3.291374   -5.319367    0.000000
siesta:     20   -3.332542    5.346125    0.000000
siesta:     21    0.163852   -2.201418    0.000000
siesta:     22   -0.588405 -306.693314    0.000000
siesta:     23   -0.835950  103.129275    0.000000
siesta:     24   -0.692371 -295.605864    0.000000
siesta:     25   -0.336245   92.680872    0.000000
siesta:     26    0.192548 -303.924782    0.000000
siesta:     27   23.647388    2.861821    0.000000
siesta:     28   20.612940 -548.342286    0.000000
siesta:     29    2.732289    0.740167    0.000000
siesta:     30   -1.333572    2.041278    0.000000
siesta:     31    2.566063    1.526752    0.000000
siesta:     32   -1.378078    0.451471    0.000000
siesta:     33   20.979162  548.561671    0.000000
siesta:     34   23.970889   -2.786973    0.000000
siesta:     35   -1.602527   -2.060429    0.000000
siesta:     36    2.806131   -0.712967    0.000000
siesta:     37   -1.364003   -0.360991    0.000000
siesta:     38    2.500866   -1.481661    0.000000
siesta:     39    0.129913    6.531543    0.000000
siesta:     40   -0.095606   -6.658795    0.000000
siesta:     41   19.937202  413.439865    0.000000
siesta:     42   21.112100   -1.348435    0.000000
siesta:     43   -0.580966    1.898589    0.000000
siesta:     44    3.171413   -1.220425    0.000000
siesta:     45    0.122945    0.377804    0.000000
siesta:     46    0.164400   -0.391924    0.000000
siesta:     47  -23.589496  399.554538    0.000000
siesta:     48  -23.645198    2.284131    0.000000
siesta:     49  -21.128626  414.023398    0.000000
siesta:     50  -20.975882   -1.267550    0.000000
siesta:     51    2.153738   -2.583059    0.000000
siesta:     52   -2.583622   -0.611253    0.000000
siesta:     53    0.547638    1.710562    0.000000
siesta:     54   -3.163105   -1.150167    0.000000
siesta:     55    1.279515   -0.410284    0.000000
siesta:     56   -2.701738   -1.657783    0.000000
siesta:     57   -0.083925    0.463469    0.000000
siesta:     58   -0.021907   -0.490129    0.000000
siesta:     59    0.140949    7.187034    0.000000
siesta:     60    0.089463   -7.196145    0.000000
siesta:     61   -2.782177    1.791843    0.000000
siesta:     62    1.030664   -0.016226    0.000000
siesta:     63    3.176120    1.256778    0.000000
siesta:     64   -0.702947   -1.935067    0.000000
siesta:     65   -3.225724    1.182622    0.000000
siesta:     66    0.814569   -1.719253    0.000000
siesta:     67   21.351723    1.424133    0.000000
siesta:     68   19.854154 -412.888326    0.000000
siesta:     69  -20.805543    0.885286    0.000000
siesta:     70  -23.543254 -414.093086    0.000000
siesta:     71   -3.199287    1.500262    0.000000
siesta:     72    0.069532    0.402876    0.000000
siesta: ----------------------------------------
siesta:    Tot   -0.260829   -0.010751    0.000000

siesta: Stress tensor (static) (eV/Ang**3):
siesta:    -0.362136   -0.001843    0.000000
siesta:    -0.001843   -1.310163    0.000000
siesta:     0.000000    0.000000   -0.000455

siesta: Cell volume =       1893.226884 Ang**3

siesta: Pressure (static):
siesta:                Solid            Molecule  Units
siesta:           0.00607281          0.08775762  Ry/Bohr**3
siesta:           0.55758478          8.05760596  eV/Ang**3
siesta:         893.35896090      12909.84754166  kBar
(Free)E+ p_basis*V_orbitals  =       -9019.291949
(Free)Eharris+ p_basis*V_orbitals  =       -9019.295531

siesta: Electric dipole (a.u.)  =    0.000000    0.000000    0.000000
siesta: Electric dipole (Debye) =    0.000000    0.000000    0.000000

* Maximum dynamic memory allocated : Node    0 =   252 MB
* Maximum dynamic memory allocated : Node    1 =    88 MB
* Maximum dynamic memory allocated : Node    2 =    92 MB
* Maximum dynamic memory allocated : Node    3 =   239 MB
* Maximum dynamic memory allocated : Node    4 =   230 MB
* Maximum dynamic memory allocated : Node    5 =    84 MB
* Maximum dynamic memory allocated : Node    6 =    86 MB
* Maximum dynamic memory allocated : Node    7 =   212 MB

* Maximum memory occured during matrixMtoO                    

timer: CPU execution times:
timer:  Routine       Calls   Time/call    Tot.time        %
timer:  siesta            1  184723.268  184723.268   100.00
timer:  Setup             1       3.773       3.773     0.00
timer:  bands             3     269.351     808.054     0.44
timer:  writewave         1       0.041       0.041     0.00
timer:  KSV_init          1       0.006       0.006     0.00
timer:  IterMD            1  183905.749  183905.749    99.56
timer:  hsparse           1       0.395       0.395     0.00
timer:  overlap           1       7.798       7.798     0.00
timer:  IterSCF          42    4372.361  183639.164    99.41
timer:  kinefsm           2       4.046       8.091     0.00
timer:  nlefsm            2      22.229      44.457     0.02
timer:  DHSCF            43     138.421    5952.107     3.22
timer:  DHSCF1            1       0.996       0.996     0.00
timer:  DHSCF2            1      46.863      46.863     0.03
timer:  REORD           346       0.010       3.490     0.00
timer:  POISON           44       2.242      98.642     0.05
timer:  DHSCF3           43     136.169    5855.276     3.17
timer:  rhoofd           43      28.676    1233.060     0.67
timer:  cellXC           43       3.527     151.663     0.08
timer:  vmat             43      66.117    2843.019     1.54
timer:  MolMec            2       0.001       0.002     0.00
timer:  diagon           42    4230.793  177693.289    96.19
timer:  c-eigval       9823       6.671   65532.781    35.48
timer:  c-buildHS      9823       0.124    1213.272     0.66
timer:  cdiag         19525       6.885  134432.059    72.77
timer:  cdiag1        19525       0.426    8320.558     4.50
timer:  cdiag2        19525       1.904   37167.563    20.12
timer:  cdiag3        19525       3.941   76945.883    41.65
timer:  cdiag4        19525       0.221    4305.878     2.33
timer:  c-eigvec       9702       7.284   70668.479    38.26
timer:  c-buildD       9702       4.354   42246.185    22.87
timer:  DHSCF4            1      46.664      46.664     0.03
timer:  dfscf             1      43.949      43.949     0.02
timer:  overfsm           1       0.484       0.484     0.00
timer:  optical           1       4.994       4.994     0.00
  

elaps: ELAPSED times:
elaps:  Routine       Calls   Time/call    Tot.time        %
elaps:  siesta            1   23122.100   23122.100   100.00
elaps:  Setup             1       0.488       0.488     0.00
elaps:  bands             3      33.722     101.165     0.44
elaps:  writewave         1       0.005       0.005     0.00
elaps:  KSV_init          1       0.001       0.001     0.00
elaps:  IterMD            1   23019.787   23019.787    99.56
elaps:  hsparse           1       0.048       0.048     0.00
elaps:  overlap           1       0.982       0.982     0.00
elaps:  IterSCF          42     547.299   22986.575    99.41
elaps:  kinefsm           2       0.504       1.007     0.00
elaps:  nlefsm            2       2.716       5.433     0.02
elaps:  DHSCF            43      17.461     750.809     3.25
elaps:  DHSCF1            1       0.127       0.127     0.00
elaps:  DHSCF2            1       5.856       5.856     0.03
elaps:  REORD           346       0.001       0.457     0.00
elaps:  POISON           44       0.281      12.344     0.05
elaps:  DHSCF3           43      17.035     732.494     3.17
elaps:  rhoofd           43       7.963     342.404     1.48
elaps:  cellXC           43       0.440      18.940     0.08
elaps:  vmat             43       8.271     355.647     1.54
elaps:  MolMec            2       0.000       0.000     0.00
elaps:  diagon           42     529.580   22242.360    96.20
elaps:  c-eigval       9823       0.835    8199.455    35.46
elaps:  c-buildHS      9823       0.017     164.653     0.71
elaps:  cdiag         19525       0.853   16647.627    72.00
elaps:  cdiag1        19525       0.053    1033.784     4.47
elaps:  cdiag2        19525       0.238    4650.637    20.11
elaps:  cdiag3        19525       0.494    9640.137    41.69
elaps:  cdiag4        19525       0.028     540.724     2.34
elaps:  c-eigvec       9702       0.898    8713.795    37.69
elaps:  c-buildD       9702       0.556    5392.561    23.32
elaps:  DHSCF4            1      12.019      12.019     0.05
elaps:  dfscf             1      11.477      11.477     0.05
elaps:  overfsm           1       0.059       0.059     0.00
elaps:  optical           1       0.001       0.001     0.00
  
>> End of run:  18-APR-2016  18:40:42
