Siesta Version:                                        siesta-3.2-pl-3
Architecture  : x86_64-unknown-linux-gnu--unknown
Compiler flags: mpiifort -g -O2 -fPIC -xSSE4.1 -fp-model source -shared-intel 
PARALLEL version

* Running on    8 nodes in parallel
>> Start of run:  25-APR-2016   5:41:17

                           ***********************       
                           *  WELCOME TO SIESTA  *       
                           ***********************       

reinit: Reading from standard input
************************** Dump of input data file ****************************
#(1) General system descriptors
SystemName            GRP_doping    # Descriptive name of the system
SystemLabel           GRP_doping    # Short name for naming files
%include STRUCT.fdf
%include KPT.fdf
%include BASIS.fdf
#%include TS.fdf # for transiesta calculation
#(4) DFT, Grid, SCF
XC.functional         GGA           # LDA or GGA (default = LDA)
XC.authors            PBE           # CA (Ceperley-Aldr) = PZ
                                    #    (Perdew-Zunger) - LDA - Default
                                    # PW92 (Perdew-Wang-92) - LDA
                                    # PBE (Perdew-Burke-Ernzerhof) - GGA
MeshCutoff            200.000000    Ry      # Default: 50.0 Ry ~ 0.444 Bohr
                                    #         100.0 Ry ~ 0.314 Bohr
MaxSCFIterations      500           # Default: 50
DM.MixingWeight       0.05          # Default: 0.25
DM.NumberPulay        10            # Default: 0
DM.PulayOnFile        F             # SystemLabel.P1, SystemLabel.P2
DM.Tolerance          1.d-4         # Default: 1.d-4
DM.UseSaveDM          .true.        # because of the bug
SCFMustConverge       .true.
NeglNonOverlapInt     F             # Default: F
#(5) Eigenvalue problem: order-N or diagonalization
SolutionMethod        Diagon        # or Transiesta
ElectronicTemperature 300.0 K       # Default: 300.0 K
#(6) Molecular dynamics and relaxations
#MD.TypeOfRun          CG            # Type of dynamics:
#MD.VariableCell       F
#MD.NumCGsteps         0           # 0 for single-point / 100 for gopt
#MD.MaxCGDispl         0.2 Bohr      # Default: 0.2 Bohr
#MD.MaxForceTol        0.02 eV/Ang   # Default: 0.04 eV/Ang
#MD.MaxStressTol       1.0 GPa       # Default: 1.0 GPa
# Geometry Constraints
#%block GeometryConstraints
#	position from 1 to 44
#%endblock GeometryConstraints
BandLinesScale   pi/a
%block BandLines
 1   0.00000000  0.00000000  0.00000000
50   0.00000000  0.07809418  0.00000000
50   0.04509075  0.07809242  0.00000000
20   0.00000000  0.00000000  0.00000000
%endblock BandLines
************************** End of input data file *****************************

reinit: -----------------------------------------------------------------------
reinit: System Name: GRP_doping
reinit: -----------------------------------------------------------------------
reinit: System Label: GRP_doping                                                  
reinit: -----------------------------------------------------------------------

initatom: Reading input for the pseudopotentials and atomic orbitals ----------
 Species number:            1  Label: B Atomic number:           5
 Species number:            2  Label: C Atomic number:           6
Ground state valence configuration:   2s02  2p01
Reading pseudopotential information in formatted form from B.psf

Valence configuration for pseudopotential generation:
2s( 2.00) rc: 1.74
2p( 1.00) rc: 1.74
3d( 0.00) rc: 1.74
4f( 0.00) rc: 1.74
Ground state valence configuration:   2s02  2p02
Reading pseudopotential information in formatted form from C.psf

Valence configuration for pseudopotential generation:
2s( 2.00) rc: 1.54
2p( 2.00) rc: 1.54
3d( 0.00) rc: 1.54
4f( 0.00) rc: 1.54
For B, standard SIESTA heuristics set lmxkb to 3
 (one more than the basis l, including polarization orbitals).
Use PS.lmax or PS.KBprojectors blocks to override.
For C, standard SIESTA heuristics set lmxkb to 3
 (one more than the basis l, including polarization orbitals).
Use PS.lmax or PS.KBprojectors blocks to override.

<basis_specs>
===============================================================================
B                    Z=   5    Mass=  10.810        Charge= 0.17977+309
Lmxo=1 Lmxkb= 3    BasisType=split      Semic=F
L=0  Nsemic=0  Cnfigmx=2
          n=1  nzeta=2  polorb=0
            splnorm:   0.15000    
               vcte:    0.0000    
               rinn:    0.0000    
                rcs:    0.0000      0.0000    
            lambdas:    1.0000      1.0000    
L=1  Nsemic=0  Cnfigmx=2
          n=1  nzeta=2  polorb=1
            splnorm:   0.15000    
               vcte:    0.0000    
               rinn:    0.0000    
                rcs:    0.0000      0.0000    
            lambdas:    1.0000      1.0000    
-------------------------------------------------------------------------------
L=0  Nkbl=1  erefs: 0.17977+309
L=1  Nkbl=1  erefs: 0.17977+309
L=2  Nkbl=1  erefs: 0.17977+309
L=3  Nkbl=1  erefs: 0.17977+309
===============================================================================
</basis_specs>

atom: Called for B                     (Z =   5)

read_vps: Pseudopotential generation method:
read_vps: ATM3      Troullier-Martins                       
Total valence charge:    3.00000

read_vps: Pseudopotential includes a core correction:
read_vps: Pseudo-core for xc-correction

xc_check: Exchange-correlation functional:
xc_check: GGA Perdew, Burke & Ernzerhof 1996
V l=0 = -2*Zval/r beyond r=  1.7165
V l=1 = -2*Zval/r beyond r=  1.7165
V l=2 = -2*Zval/r beyond r=  1.7165
V l=3 = -2*Zval/r beyond r=  1.6951
All V_l potentials equal beyond r=  1.7165
This should be close to max(r_c) in ps generation
All pots = -2*Zval/r beyond r=  1.7165

VLOCAL1: 99.0% of the norm of Vloc inside     14.733 Ry
VLOCAL1: 99.9% of the norm of Vloc inside     33.577 Ry
atom: Maximum radius for 4*pi*r*r*local-pseudopot. charge    2.04484
atom: Maximum radius for r*vlocal+2*Zval:    1.75994
GHOST: No ghost state for L =  0
GHOST: No ghost state for L =  1
GHOST: No ghost state for L =  2
GHOST: No ghost state for L =  3

KBgen: Kleinman-Bylander projectors: 
   l= 0   rc=  1.897051   el= -0.693730   Ekb=  4.595746   kbcos=  0.286105
   l= 1   rc=  1.920920   el= -0.265236   Ekb= -2.350715   kbcos= -0.315747
   l= 2   rc=  2.044840   el=  0.002055   Ekb= -0.690767   kbcos= -0.013822
   l= 3   rc=  2.149707   el=  0.003188   Ekb= -0.315358   kbcos= -0.002055

KBgen: Total number of  Kleinman-Bylander projectors:   16
atom: -------------------------------------------------------------------------

atom: SANKEY-TYPE ORBITALS:
atom: Selected multiple-zeta basis: split     

SPLIT: Orbitals with angular momentum L= 0

SPLIT: Basis orbitals for state 2s

SPLIT: PAO cut-off radius determined from an
SPLIT: energy shift=  0.007350 Ry

   izeta = 1
                 lambda =    1.000000
                     rc =    5.422032
                 energy =   -0.686029
                kinetic =    0.576707
    potential(screened) =   -1.262736
       potential(ionic) =   -3.271094

   izeta = 2
                 rmatch =    4.222573
              splitnorm =    0.150000
                 energy =   -0.602132
                kinetic =    0.858975
    potential(screened) =   -1.461107
       potential(ionic) =   -3.582536

SPLIT: Orbitals with angular momentum L= 1

SPLIT: Basis orbitals for state 2p

SPLIT: PAO cut-off radius determined from an
SPLIT: energy shift=  0.007350 Ry

   izeta = 1
                 lambda =    1.000000
                     rc =    6.790259
                 energy =   -0.258578
                kinetic =    1.481412
    potential(screened) =   -1.739989
       potential(ionic) =   -3.657461

   izeta = 2
                 rmatch =    4.608740
              splitnorm =    0.150000
                 energy =   -0.173757
                kinetic =    2.186690
    potential(screened) =   -2.360447
       potential(ionic) =   -4.464260

POLgen: Perturbative polarization orbital with L=  2

POLgen: Polarization orbital for state 2p

   izeta = 1
                     rc =    6.790259
                 energy =    0.684082
                kinetic =    1.471481
    potential(screened) =   -0.787399
       potential(ionic) =   -2.406985
atom: Total number of Sankey-type orbitals: 13

atm_pop: Valence configuration (for local Pseudopot. screening):
 2s( 2.00)                                                            
 2p( 1.00)                                                            
Vna: chval, zval:    3.00000   3.00000

Vna:  Cut-off radius for the neutral-atom potential:   6.790259
comcore: Pseudo-core radius Rcore=  2.122997

atom: _________________________________________________________________________

<basis_specs>
===============================================================================
C                    Z=   6    Mass=  12.010        Charge= 0.17977+309
Lmxo=1 Lmxkb= 3    BasisType=split      Semic=F
L=0  Nsemic=0  Cnfigmx=2
          n=1  nzeta=2  polorb=0
            splnorm:   0.15000    
               vcte:    0.0000    
               rinn:    0.0000    
                rcs:    0.0000      0.0000    
            lambdas:    1.0000      1.0000    
L=1  Nsemic=0  Cnfigmx=2
          n=1  nzeta=2  polorb=1
            splnorm:   0.15000    
               vcte:    0.0000    
               rinn:    0.0000    
                rcs:    0.0000      0.0000    
            lambdas:    1.0000      1.0000    
-------------------------------------------------------------------------------
L=0  Nkbl=1  erefs: 0.17977+309
L=1  Nkbl=1  erefs: 0.17977+309
L=2  Nkbl=1  erefs: 0.17977+309
L=3  Nkbl=1  erefs: 0.17977+309
===============================================================================
</basis_specs>

atom: Called for C                     (Z =   6)

read_vps: Pseudopotential generation method:
read_vps: ATM3      Troullier-Martins                       
Total valence charge:    4.00000

read_vps: Pseudopotential includes a core correction:
read_vps: Pseudo-core for xc-correction

xc_check: Exchange-correlation functional:
xc_check: GGA Perdew, Burke & Ernzerhof 1996
V l=0 = -2*Zval/r beyond r=  1.5227
V l=1 = -2*Zval/r beyond r=  1.5227
V l=2 = -2*Zval/r beyond r=  1.5227
V l=3 = -2*Zval/r beyond r=  1.5038
All V_l potentials equal beyond r=  1.5227
This should be close to max(r_c) in ps generation
All pots = -2*Zval/r beyond r=  1.5227

VLOCAL1: 99.0% of the norm of Vloc inside     18.722 Ry
VLOCAL1: 99.9% of the norm of Vloc inside     42.668 Ry
atom: Maximum radius for 4*pi*r*r*local-pseudopot. charge    1.83678
atom: Maximum radius for r*vlocal+2*Zval:    1.58088
GHOST: No ghost state for L =  0
GHOST: No ghost state for L =  1
GHOST: No ghost state for L =  2
GHOST: No ghost state for L =  3

KBgen: Kleinman-Bylander projectors: 
   l= 0   rc=  1.704034   el= -1.009801   Ekb=  5.335044   kbcos=  0.316824
   l= 1   rc=  1.704034   el= -0.388707   Ekb= -3.785862   kbcos= -0.366464
   l= 2   rc=  1.791422   el=  0.001971   Ekb= -0.970471   kbcos= -0.009212
   l= 3   rc=  1.859892   el=  0.003065   Ekb= -0.399525   kbcos= -0.001223

KBgen: Total number of  Kleinman-Bylander projectors:   16
atom: -------------------------------------------------------------------------

atom: SANKEY-TYPE ORBITALS:
atom: Selected multiple-zeta basis: split     

SPLIT: Orbitals with angular momentum L= 0

SPLIT: Basis orbitals for state 2s

SPLIT: PAO cut-off radius determined from an
SPLIT: energy shift=  0.007350 Ry

   izeta = 1
                 lambda =    1.000000
                     rc =    4.632753
                 energy =   -1.002270
                kinetic =    0.855760
    potential(screened) =   -1.858031
       potential(ionic) =   -5.417575

   izeta = 2
                 rmatch =    3.431921
              splitnorm =    0.150000
                 energy =   -0.867111
                kinetic =    1.300804
    potential(screened) =   -2.167915
       potential(ionic) =   -5.962684

SPLIT: Orbitals with angular momentum L= 1

SPLIT: Basis orbitals for state 2p

SPLIT: PAO cut-off radius determined from an
SPLIT: energy shift=  0.007350 Ry

   izeta = 1
                 lambda =    1.000000
                     rc =    5.658549
                 energy =   -0.381140
                kinetic =    2.399701
    potential(screened) =   -2.780841
       potential(ionic) =   -6.206085

   izeta = 2
                 rmatch =    3.653288
              splitnorm =    0.150000
                 energy =   -0.249149
                kinetic =    3.542762
    potential(screened) =   -3.791911
       potential(ionic) =   -7.581078

POLgen: Perturbative polarization orbital with L=  2

POLgen: Polarization orbital for state 2p

   izeta = 1
                     rc =    5.658549
                 energy =    1.109913
                kinetic =    2.304789
    potential(screened) =   -1.194876
       potential(ionic) =   -4.013592
atom: Total number of Sankey-type orbitals: 13

atm_pop: Valence configuration (for local Pseudopot. screening):
 2s( 2.00)                                                            
 2p( 2.00)                                                            
Vna: chval, zval:    4.00000   4.00000

Vna:  Cut-off radius for the neutral-atom potential:   5.658549
comcore: Pseudo-core radius Rcore=  1.791422

atom: _________________________________________________________________________

prinput: Basis input ----------------------------------------------------------

PAO.BasisType split     

%block ChemicalSpeciesLabel
    1    5 B                       # Species index, atomic number, species label
    2    6 C                       # Species index, atomic number, species label
%endblock ChemicalSpeciesLabel

%block PAO.Basis                 # Define Basis set
B                     2                    # Species label, number of l-shells
 n=2   0   2                         # n, l, Nzeta 
   5.422      4.223   
   1.000      1.000   
 n=2   1   2 P   1                   # n, l, Nzeta, Polarization, NzetaPol
   6.790      4.609   
   1.000      1.000   
C                     2                    # Species label, number of l-shells
 n=2   0   2                         # n, l, Nzeta 
   4.633      3.432   
   1.000      1.000   
 n=2   1   2 P   1                   # n, l, Nzeta, Polarization, NzetaPol
   5.659      3.653   
   1.000      1.000   
%endblock PAO.Basis

prinput: ----------------------------------------------------------------------

coor:   Atomic-coordinates input format  =     Fractional

siesta: Atomic coordinates (Bohr) and species
siesta:      2.30256  38.89134   0.00000  1        1
siesta:      4.63094  34.85847   0.00000  1        2
siesta:      4.63094  37.54693   0.00000  1        3
siesta:      6.95932  30.82560   0.00000  1        4
siesta:      6.95932  33.51406   0.00000  1        5
siesta:      2.30256  14.69411   0.00000  1        6
siesta:      2.30256  17.38257   0.00000  1        7
siesta:      4.63094  18.72698   0.00000  1        8
siesta:      4.63094  21.41544   0.00000  1        9
siesta:     -0.02582  18.72698   0.00000  1       10
siesta:     -0.02582  21.41544   0.00000  1       11
siesta:      2.30256  22.75985   0.00000  1       12
siesta:     -4.68258  21.41544   0.00000  1       13
siesta:     -2.35420  22.75985   0.00000  1       14
siesta:     -7.01096  22.75985   0.00000  1       15
siesta:     -7.01096  25.44831   0.00000  1       16
siesta:     -4.68258  26.79272   0.00000  1       17
siesta:     -4.68258  29.48119   0.00000  1       18
siesta:     -2.35420  30.82560   0.00000  1       19
siesta:     -2.35420  33.51406   0.00000  1       20
siesta:     -0.02582  34.85847   0.00000  1       21
siesta:     -0.02582  37.54693   0.00000  1       22
siesta:     -0.02582   2.59549   0.00000  2       23
siesta:     -0.02582   5.28395   0.00000  2       24
siesta:     -2.35420  38.89134   0.00000  2       25
siesta:     -2.35420  41.57980   0.00000  2       26
siesta:      2.30256  41.57980   0.00000  2       27
siesta:      9.28770  26.79272   0.00000  2       28
siesta:      9.28770  29.48119   0.00000  2       29
siesta:     -4.68258  34.85847   0.00000  2       30
siesta:     -4.68258  37.54693   0.00000  2       31
siesta:      2.30256   6.62836   0.00000  2       32
siesta:      2.30256   9.31683   0.00000  2       33
siesta:      4.63094  10.66124   0.00000  2       34
siesta:      4.63094  13.34970   0.00000  2       35
siesta:      6.95932  14.69411   0.00000  2       36
siesta:      6.95932  17.38257   0.00000  2       37
siesta:      9.28770  18.72698   0.00000  2       38
siesta:      9.28770  21.41544   0.00000  2       39
siesta:     11.61608  22.75985   0.00000  2       40
siesta:     11.61608  25.44831   0.00000  2       41
siesta:     -2.35420   6.62836   0.00000  2       42
siesta:     -2.35420   9.31683   0.00000  2       43
siesta:     -0.02582  10.66124   0.00000  2       44
siesta:     -0.02582  13.34970   0.00000  2       45
siesta:      6.95932  22.75985   0.00000  2       46
siesta:      6.95932  25.44831   0.00000  2       47
siesta:     -4.68258  10.66124   0.00000  2       48
siesta:     -4.68258  13.34970   0.00000  2       49
siesta:     -2.35420  14.69411   0.00000  2       50
siesta:     -2.35420  17.38257   0.00000  2       51
siesta:      2.30256  25.44831   0.00000  2       52
siesta:     -7.01096  14.69411   0.00000  2       53
siesta:     -7.01096  17.38257   0.00000  2       54
siesta:     -4.68258  18.72698   0.00000  2       55
siesta:     -2.35420  25.44831   0.00000  2       56
siesta:     -9.33934  18.72698   0.00000  2       57
siesta:     -9.33934  21.41544   0.00000  2       58
siesta:    -11.66772  22.75985   0.00000  2       59
siesta:    -11.66772  25.44831   0.00000  2       60
siesta:     -9.33934  26.79272   0.00000  2       61
siesta:     -9.33934  29.48119   0.00000  2       62
siesta:      4.63094  26.79272   0.00000  2       63
siesta:      4.63094  29.48119   0.00000  2       64
siesta:     -0.02582  26.79272   0.00000  2       65
siesta:     -0.02582  29.48119   0.00000  2       66
siesta:      2.30256  30.82560   0.00000  2       67
siesta:      2.30256  33.51406   0.00000  2       68
siesta:     -7.01096  30.82560   0.00000  2       69
siesta:     -7.01096  33.51406   0.00000  2       70
siesta:     -0.02582  42.92421   0.00000  2       71
siesta:     -0.02582  45.61267   0.00000  2       72

siesta: System type = slab      

initatomlists: Number of atoms, orbitals, and projectors:     72   936  1152

siesta: ******************** Simulation parameters ****************************
siesta:
siesta: The following are some of the parameters of the simulation.
siesta: A complete list of the parameters used, including default values,
siesta: can be found in file out.fdf
siesta:
redata: Non-Collinear-spin run           =     F
redata: SpinPolarized (Up/Down) run      =     F
redata: Number of spin components        =     1
redata: Long output                      =     F
redata: Number of Atomic Species         =        2
redata: Charge density info will appear in .RHO file
redata: Write Mulliken Pop.              =     NO
redata: Mesh Cutoff                      =   200.0000  Ry
redata: Net charge of the system         =     0.0000 |e|
redata: Max. number of SCF Iter          =      500
redata: SCF convergence failure will abort job
redata: Performing Pulay mixing using    =    10 iterations
redata: Mix DM in first SCF step ?       =     F
redata: Write Pulay info on disk?        =     F
redata: Discard 1st Pulay DM after  kick =     F
redata: New DM Mixing Weight             =     0.0500
redata: New DM Occupancy tolerance       = 0.000000000001
redata: No kicks to SCF
redata: DM Mixing Weight for Kicks       =     0.5000
redata: DM Tolerance for SCF             =     0.000100
redata: Require Energy convergence for SCF =     F
redata: DM Energy tolerance for SCF      =     0.000100 eV
redata: Require Harris convergence for SCF =     F
redata: DM Harris energy tolerance for SCF =     0.000100 eV
redata: Using Saved Data (generic)   =     F
redata: Use continuation files for DM    =     T
redata: Neglect nonoverlap interactions  =     F
redata: Method of Calculation            =     Diagonalization
redata: Divide and Conquer               =     T
redata: Electronic Temperature           =     0.0019  Ry
redata: Fix the spin of the system       =     F
redata: Dynamics option                  =     Verlet MD run
redata: Initial MD time step             =        1
redata:   Final MD time step             =        1
redata: Length of MD time step           =     1.0000  fs
redata: Initial Temperature of MD run    =     0.0000  K
redata: Perform a MD quench              =     F
redata: ***********************************************************************
Total number of electrons:   266.000000
Total ionic charge:   266.000000

* ProcessorY, Blocksize:    2  24

k-point displ. along   1 input, could be:     0.50    0.00
k-point displ. along   2 input, could be:     0.50    0.00
 Kpoints in:          231 . Kpoints trimmed:          231

siesta: k-grid: Number of k-points =   231
siesta: k-grid: Cutoff (effective) =     5.000 Ang
siesta: k-grid: Supercell and displacements
siesta: k-grid:   21   0   0      0.500
siesta: k-grid:    0  21   0      0.500
siesta: k-grid:    0   0   1      0.000
Naive supercell factors:     2    2    2

superc: Internal auxiliary supercell:     2 x     2 x     2  =       8
superc: Number of atoms, orbitals, and projectors:    576   7488   9216

* Maximum dynamic memory allocated =     4 MB

siesta:                 ==============================
                            Begin MD step =      1
                        ==============================

superc: Internal auxiliary supercell:     2 x     2 x     2  =       8
superc: Number of atoms, orbitals, and projectors:    576   7488   9216

outcell: Unit cell vectors (Ang):
       12.804619    7.392750    0.000000
        0.000000   14.785500    0.000000
        0.000000    0.000000   10.000000

outcell: Cell vector modules (Ang)   :   14.785500   14.785500   10.000000
outcell: Cell angles (23,13,12) (deg):     90.0000     90.0000     60.0000
outcell: Cell volume (Ang**3)        :   1893.2269
New_DM. Step:     1
Initializing Density Matrix...

InitMesh: MESH =   120 x   120 x    90 =     1296000
InitMesh: Mesh cutoff (required, used) =   200.000   223.865 Ry

* Maximum dynamic memory allocated =   228 MB

stepf: Fermi-Dirac step function

siesta: Program's energy decomposition (eV):
siesta: Ebs     =     -5486.273269
siesta: Eions   =     15585.763425
siesta: Ena     =      4188.280975
siesta: Ekin    =      5217.942150
siesta: Enl     =       828.640031
siesta: DEna    =        -0.000007
siesta: DUscf   =         0.000000
siesta: DUext   =         0.000000
siesta: Exc     =     -4199.672279
siesta: eta*DQ  =         0.000000
siesta: Emadel  =         0.000000
siesta: Emeta   =         0.000000
siesta: Emolmec =         0.000000
siesta: Ekinion =         0.000000
siesta: Eharris =     -9332.564340
siesta: Etot    =     -9550.572555
siesta: FreeEng =     -9550.572555

siesta: iscf   Eharris(eV)      E_KS(eV)   FreeEng(eV)   dDmax  Ef(eV)
siesta:    1    -9332.5643    -9550.5726    -9550.5726  7.2517 -8.4900
timer: Routine,Calls,Time,% = IterSCF        1    4476.299  99.74
elaps: Routine,Calls,Wall,% = IterSCF        1     560.213  99.74
siesta:    2   -15581.0268    -8377.5469    -8377.5711 20.0498 -5.3627
siesta:    3    -9318.6989    -9407.2342    -9407.2347  2.9209 -6.6509
siesta:    4    -9281.4702    -9309.4302    -9309.4676  1.5494 -5.8904
siesta:    5    -9208.5579    -9227.6988    -9227.7208  1.1335 -5.6957
siesta:    6    -9190.0469    -9184.7060    -9184.7471  1.1225 -5.3998
siesta:    7    -9179.3943    -9164.7995    -9164.8159  0.9821 -5.3710
siesta:    8    -9176.5910    -9158.7840    -9158.8510  0.9118 -5.4407
siesta:    9    -9173.7768    -9148.3768    -9148.4413  0.6312 -5.4457
siesta:   10    -9172.8698    -9143.2322    -9143.3165  0.4731 -5.3100
siesta:   11    -9172.8033    -9141.1176    -9141.1880  0.3744 -5.2817
siesta:   12    -9172.4188    -9142.0133    -9142.1020  0.7239 -5.2207
siesta:   13    -9172.4046    -9141.1318    -9141.2191  0.2439 -5.2273
siesta:   14    -9171.6913    -9145.2623    -9145.3398  0.2024 -5.2127
siesta:   15    -9171.4180    -9147.6890    -9147.7647  0.1965 -5.2252
siesta:   16    -9171.0135    -9155.2202    -9155.3001  0.1368 -5.2791
siesta:   17    -9170.9125    -9160.0552    -9160.1370  0.1181 -5.2964
siesta:   18    -9170.8546    -9163.8235    -9163.9084  0.0714 -5.3105
siesta:   19    -9170.8325    -9166.3412    -9166.4255  0.0391 -5.3137
siesta:   20    -9170.8229    -9167.1161    -9167.1959  0.0361 -5.3089
siesta:   21    -9170.8158    -9168.7827    -9168.8618  0.0317 -5.3076
siesta:   22    -9170.8093    -9169.8320    -9169.9115  0.0236 -5.3062
siesta:   23    -9170.8051    -9170.5819    -9170.6611  0.0207 -5.3056
siesta:   24    -9170.8004    -9171.1270    -9171.2073  0.0091 -5.2990
siesta:   25    -9170.7999    -9171.1780    -9171.2597  0.0061 -5.2975
siesta:   26    -9170.7994    -9171.1578    -9171.2390  0.0054 -5.2975
siesta:   27    -9170.7994    -9171.0961    -9171.1770  0.0041 -5.2974
siesta:   28    -9170.7995    -9171.0910    -9171.1715  0.0038 -5.2978
siesta:   29    -9170.7995    -9171.0280    -9171.1084  0.0034 -5.2979
siesta:   30    -9170.7993    -9170.9540    -9171.0345  0.0019 -5.2981
siesta:   31    -9170.7993    -9170.8986    -9170.9792  0.0014 -5.2982
siesta:   32    -9170.7993    -9170.8597    -9170.9403  0.0006 -5.2981
siesta:   33    -9170.7993    -9170.8301    -9170.9106  0.0005 -5.2982
siesta:   34    -9170.7993    -9170.8087    -9170.8893  0.0003 -5.2982
siesta:   35    -9170.7993    -9170.8064    -9170.8870  0.0002 -5.2982
siesta:   36    -9170.7993    -9170.8065    -9170.8871  0.0002 -5.2982
siesta:   37    -9170.7993    -9170.8066    -9170.8872  0.0001 -5.2982
siesta:   38    -9170.7993    -9170.8074    -9170.8880  0.0001 -5.2982
siesta:   39    -9170.7993    -9170.8066    -9170.8872  0.0001 -5.2982

siesta: E_KS(eV) =            -9170.8042

siesta: E_KS - E_eggbox =     -9170.8042

siesta: Atomic forces (eV/Ang):
----------------------------------------
   Tot   -0.019570    0.028878    0.000000
----------------------------------------
   Max  560.233177
   Res  139.114528    sqrt( Sum f_i^2 / 3N )
----------------------------------------
   Max  560.233177    constrained

Stress-tensor-Voigt (kbar):     -751.83    -2569.61       -0.66       -6.77        0.00        0.00
(Free)E + p*V (eV/cell)    -7862.3681
Target enthalpy (eV/cell)    -9170.8848

siesta: Stress tensor (static) (eV/Ang**3):
        -0.469250   -0.004223    0.000000
        -0.004223   -1.603808    0.000000
         0.000000    0.000000   -0.000413

siesta: Pressure (static):       1107.36733606  kBar

siesta: Stress tensor (total) (eV/Ang**3):
        -0.469250   -0.004223    0.000000
        -0.004223   -1.603808    0.000000
         0.000000    0.000000   -0.000413

siesta: Pressure (total):       1107.36733606  kBar

siesta: Temp_ion =       0.000 K

* Maximum dynamic memory allocated =   245 MB
Computing bands...

siesta: Program's energy decomposition (eV):
siesta: Ebs     =     -4103.490546
siesta: Eions   =     15585.763425
siesta: Ena     =      4188.280975
siesta: Ekin    =      8033.976980
siesta: Enl     =      -783.216523
siesta: DEna    =      -762.203466
siesta: DUscf   =       102.698625
siesta: DUext   =         0.000000
siesta: Exc     =     -4364.577411
siesta: eta*DQ  =         0.000000
siesta: Emadel  =         0.000000
siesta: Emeta   =         0.000000
siesta: Emolmec =         0.000000
siesta: Ekinion =         0.000000
siesta: Eharris =     -9170.799275
siesta: Etot    =     -9170.804245
siesta: FreeEng =     -9170.884821

siesta: Final energy (eV):
siesta:  Band Struct. =   -4103.490546
siesta:       Kinetic =    8033.976980
siesta:       Hartree =   25802.172089
siesta:    Ext. field =       0.000000
siesta:   Exch.-corr. =   -4364.577411
siesta:  Ion-electron =  -59349.855608
siesta:       Ion-ion =   20707.479705
siesta:       Ekinion =       0.000000
siesta:         Total =   -9170.804245

siesta: Atomic forces (eV/Ang):
siesta:      1   -0.842112  102.700202    0.000000
siesta:      2   17.008235    1.987171    0.000000
siesta:      3   17.057741 -396.653847    0.000000
siesta:      4    3.969020   -2.135569    0.000000
siesta:      5    2.680908    4.616958    0.000000
siesta:      6   24.148887  403.894706    0.000000
siesta:      7   15.007559   -0.683264    0.000000
siesta:      8    2.334385   -2.864146    0.000000
siesta:      9    3.474019    1.027343    0.000000
siesta:     10    0.871458  409.321150    0.000000
siesta:     11    0.148844   -3.870260    0.000000
siesta:     12   -1.822052    5.939020    0.000000
siesta:     13    1.075345   -5.816375    0.000000
siesta:     14   -0.023797    6.786619    0.000000
siesta:     15   -2.223795   -1.369633    0.000000
siesta:     16   -4.112829    2.741697    0.000000
siesta:     17    4.341822   -3.351071    0.000000
siesta:     18   -1.159519    3.782592    0.000000
siesta:     19  -15.568941    2.130960    0.000000
siesta:     20  -17.576707 -396.446230    0.000000
siesta:     21   -3.242508  107.490302    0.000000
siesta:     22    4.749370 -388.397871    0.000000
siesta:     23    6.594320  549.592774    0.000000
siesta:     24   -8.596230 -131.891256    0.000000
siesta:     25    6.894682  115.890926    0.000000
siesta:     26  -16.342595 -551.706280    0.000000
siesta:     27   15.206599 -403.940232    0.000000
siesta:     28    3.475179    2.641736    0.000000
siesta:     29    0.858827   -2.651011    0.000000
siesta:     30  -24.767713    0.146053    0.000000
siesta:     31  -31.928913 -549.728237    0.000000
siesta:     32   19.414142  549.719736    0.000000
siesta:     33    2.101645 -126.891776    0.000000
siesta:     34   31.118706  406.422371    0.000000
siesta:     35   22.019505    3.108125    0.000000
siesta:     36   -2.686163   -2.177647    0.000000
siesta:     37    5.904908   -2.319994    0.000000
siesta:     38   -1.150446    0.026438    0.000000
siesta:     39    2.672989   -2.207988    0.000000
siesta:     40   -0.112197    7.039254    0.000000
siesta:     41   -0.010632   -7.324790    0.000000
siesta:     42  -19.550246  403.279309    0.000000
siesta:     43    1.968441 -123.403769    0.000000
siesta:     44    5.274797  405.970102    0.000000
siesta:     45    6.362388 -117.581869    0.000000
siesta:     46    1.773086    3.404245    0.000000
siesta:     47    0.032601   -1.191258    0.000000
siesta:     48  -35.542063  549.912838    0.000000
siesta:     49  -25.517518   -4.089495    0.000000
siesta:     50  -26.050484  560.233177    0.000000
siesta:     51  -23.355794   -2.954560    0.000000
siesta:     52    0.421389    3.790334    0.000000
siesta:     53    2.378764   -1.885909    0.000000
siesta:     54   -2.169876   -1.213905    0.000000
siesta:     55    1.744244   -2.634496    0.000000
siesta:     56    3.925274    3.703245    0.000000
siesta:     57    1.310953   -0.039070    0.000000
siesta:     58   -5.811578   -3.626254    0.000000
siesta:     59   -0.651319    5.111772    0.000000
siesta:     60    0.677065   -5.488281    0.000000
siesta:     61   -6.830445    3.484475    0.000000
siesta:     62    2.077294    0.231002    0.000000
siesta:     63   -0.473290    0.915045    0.000000
siesta:     64   -3.960932   -3.469557    0.000000
siesta:     65    0.107157   -1.421877    0.000000
siesta:     66   -6.255962 -559.334736    0.000000
siesta:     67   21.991391    7.258670    0.000000
siesta:     68   26.019880 -546.158290    0.000000
siesta:     69   -6.859628    1.961477    0.000000
siesta:     70    2.699700    1.965666    0.000000
siesta:     71    6.981381  124.529589    0.000000
siesta:     72   -3.698182 -405.807393    0.000000
siesta: ----------------------------------------
siesta:    Tot   -0.019570    0.028878    0.000000

siesta: Stress tensor (static) (eV/Ang**3):
siesta:    -0.469250   -0.004223    0.000000
siesta:    -0.004223   -1.603808    0.000000
siesta:     0.000000    0.000000   -0.000413

siesta: Cell volume =       1893.226884 Ang**3

siesta: Pressure (static):
siesta:                Solid            Molecule  Units
siesta:           0.00752758          0.10607038  Ry/Bohr**3
siesta:           0.69115686          9.73902158  eV/Ang**3
siesta:        1107.36733606      15603.80148078  kBar
(Free)E+ p_basis*V_orbitals  =       -9133.196229
(Free)Eharris+ p_basis*V_orbitals  =       -9133.188880

siesta: Electric dipole (a.u.)  =    0.000000    0.000000    0.000000
siesta: Electric dipole (Debye) =    0.000000    0.000000    0.000000

* Maximum dynamic memory allocated : Node    0 =   245 MB
* Maximum dynamic memory allocated : Node    1 =    85 MB
* Maximum dynamic memory allocated : Node    2 =    89 MB
* Maximum dynamic memory allocated : Node    3 =   233 MB
* Maximum dynamic memory allocated : Node    4 =   227 MB
* Maximum dynamic memory allocated : Node    5 =    82 MB
* Maximum dynamic memory allocated : Node    6 =    85 MB
* Maximum dynamic memory allocated : Node    7 =   208 MB

* Maximum memory occured during matrixMtoO                    

timer: CPU execution times:
timer:  Routine       Calls   Time/call    Tot.time        %
timer:  siesta            1  172367.392  172367.392   100.00
timer:  Setup             1       3.071       3.071     0.00
timer:  bands             3     269.236     807.708     0.47
timer:  writewave         1       0.020       0.020     0.00
timer:  KSV_init          1       0.001       0.001     0.00
timer:  IterMD            1  171550.764  171550.764    99.53
timer:  hsparse           1       0.394       0.394     0.00
timer:  overlap           1       7.795       7.795     0.00
timer:  IterSCF          39    4392.733  171316.595    99.39
timer:  kinefsm           2       4.037       8.074     0.00
timer:  nlefsm            2      21.436      42.872     0.02
timer:  DHSCF            40     125.563    5022.506     2.91
timer:  DHSCF1            1       0.996       0.996     0.00
timer:  DHSCF2            1      45.805      45.805     0.03
timer:  REORD           322       0.010       3.210     0.00
timer:  POISON           41       2.238      91.777     0.05
timer:  DHSCF3           40     123.241    4929.642     2.86
timer:  rhoofd           40      26.307    1052.294     0.61
timer:  cellXC           40       3.483     139.325     0.08
timer:  vmat             40      60.123    2404.913     1.40
timer:  MolMec            2       0.000       0.000     0.00
timer:  diagon           39    4265.936  166371.520    96.52
timer:  c-eigval       9130       6.679   60983.242    35.38
timer:  c-buildHS      9130       0.122    1113.630     0.65
timer:  cdiag         18139       6.922  125563.419    72.85
timer:  cdiag1        18139       0.427    7748.549     4.50
timer:  cdiag2        18139       1.915   34731.319    20.15
timer:  cdiag3        18139       3.938   71433.257    41.44
timer:  cdiag4        18139       0.224    4056.872     2.35
timer:  c-eigvec       9009       7.352   66231.490    38.42
timer:  c-buildD       9009       4.431   39914.762    23.16
timer:  DHSCF4            1      44.025      44.025     0.03
timer:  dfscf             1      41.316      41.316     0.02
timer:  overfsm           1       0.488       0.488     0.00
timer:  optical           1       5.104       5.104     0.00
  

elaps: ELAPSED times:
elaps:  Routine       Calls   Time/call    Tot.time        %
elaps:  siesta            1   21570.515   21570.515   100.00
elaps:  Setup             1       0.385       0.385     0.00
elaps:  bands             3      33.705     101.115     0.47
elaps:  writewave         1       0.002       0.002     0.00
elaps:  KSV_init          1       0.000       0.000     0.00
elaps:  IterMD            1   21468.341   21468.341    99.53
elaps:  hsparse           1       0.051       0.051     0.00
elaps:  overlap           1       0.979       0.979     0.00
elaps:  IterSCF          39     549.719   21439.050    99.39
elaps:  kinefsm           2       0.506       1.012     0.00
elaps:  nlefsm            2       2.697       5.395     0.03
elaps:  DHSCF            40      15.847     633.889     2.94
elaps:  DHSCF1            1       0.126       0.126     0.00
elaps:  DHSCF2            1       5.731       5.731     0.03
elaps:  REORD           322       0.001       0.423     0.00
elaps:  POISON           41       0.280      11.497     0.05
elaps:  DHSCF3           40      15.418     616.730     2.86
elaps:  rhoofd           40       7.106     284.241     1.32
elaps:  cellXC           40       0.435      17.402     0.08
elaps:  vmat             40       7.521     300.849     1.39
elaps:  MolMec            2       0.000       0.000     0.00
elaps:  diagon           39     533.877   20821.187    96.53
elaps:  c-eigval       9130       0.836    7629.911    35.37
elaps:  c-buildHS      9130       0.017     152.021     0.70
elaps:  cdiag         18139       0.854   15497.231    71.84
elaps:  cdiag1        18139       0.053     961.111     4.46
elaps:  cdiag2        18139       0.240    4345.761    20.15
elaps:  cdiag3        18139       0.493    8949.484    41.49
elaps:  cdiag4        18139       0.028     511.450     2.37
elaps:  c-eigvec       9009       0.901    8115.963    37.63
elaps:  c-buildD       9009       0.574    5169.050    23.96
elaps:  DHSCF4            1      11.015      11.015     0.05
elaps:  dfscf             1      10.474      10.474     0.05
elaps:  overfsm           1       0.060       0.060     0.00
elaps:  optical           1       0.000       0.000     0.00
  
>> End of run:  25-APR-2016  11:40:47
