Siesta Version:                                        siesta-3.2-pl-3
Architecture  : x86_64-unknown-linux-gnu--unknown
Compiler flags: mpiifort -g -O2 -fPIC -xSSE4.1 -fp-model source -shared-intel 
PARALLEL version

* Running on   12 nodes in parallel
>> Start of run:   3-MAY-2016  14:01:31

                           ***********************       
                           *  WELCOME TO SIESTA  *       
                           ***********************       

reinit: Reading from standard input
************************** Dump of input data file ****************************
#(1) General system descriptors
SystemName            GRP_doping    # Descriptive name of the system
SystemLabel           GRP_doping    # Short name for naming files
%include STRUCT.fdf
%include KPT.fdf
%include BASIS.fdf
#%include TS.fdf # for transiesta calculation
#(4) DFT, Grid, SCF
XC.functional         GGA           # LDA or GGA (default = LDA)
XC.authors            PBE           # CA (Ceperley-Aldr) = PZ
                                    #    (Perdew-Zunger) - LDA - Default
                                    # PW92 (Perdew-Wang-92) - LDA
                                    # PBE (Perdew-Burke-Ernzerhof) - GGA
MeshCutoff            200.000000    Ry      # Default: 50.0 Ry ~ 0.444 Bohr
                                    #         100.0 Ry ~ 0.314 Bohr
MaxSCFIterations      500           # Default: 50
DM.MixingWeight       0.05          # Default: 0.25
DM.NumberPulay        10            # Default: 0
DM.PulayOnFile        F             # SystemLabel.P1, SystemLabel.P2
DM.Tolerance          1.d-4         # Default: 1.d-4
DM.UseSaveDM          .true.        # because of the bug
SCFMustConverge       .true.
NeglNonOverlapInt     F             # Default: F
#(5) Eigenvalue problem: order-N or diagonalization
SolutionMethod        Diagon        # or Transiesta
ElectronicTemperature 300.0 K       # Default: 300.0 K
#(6) Molecular dynamics and relaxations
#MD.TypeOfRun          CG            # Type of dynamics:
#MD.VariableCell       F
#MD.NumCGsteps         0           # 0 for single-point / 100 for gopt
#MD.MaxCGDispl         0.2 Bohr      # Default: 0.2 Bohr
#MD.MaxForceTol        0.02 eV/Ang   # Default: 0.04 eV/Ang
#MD.MaxStressTol       1.0 GPa       # Default: 1.0 GPa
# Geometry Constraints
#%block GeometryConstraints
#	position from 1 to 44
#%endblock GeometryConstraints
BandLinesScale   pi/a
%block BandLines
 1   0.00000000  0.00000000  0.00000000
50   0.00000000  0.07809418  0.00000000
50   0.04509075  0.07809242  0.00000000
20   0.00000000  0.00000000  0.00000000
%endblock BandLines
************************** End of input data file *****************************

reinit: -----------------------------------------------------------------------
reinit: System Name: GRP_doping
reinit: -----------------------------------------------------------------------
reinit: System Label: GRP_doping                                                  
reinit: -----------------------------------------------------------------------

initatom: Reading input for the pseudopotentials and atomic orbitals ----------
 Species number:            1  Label: B Atomic number:           5
 Species number:            2  Label: C Atomic number:           6
Ground state valence configuration:   2s02  2p01
Reading pseudopotential information in formatted form from B.psf

Valence configuration for pseudopotential generation:
2s( 2.00) rc: 1.74
2p( 1.00) rc: 1.74
3d( 0.00) rc: 1.74
4f( 0.00) rc: 1.74
Ground state valence configuration:   2s02  2p02
Reading pseudopotential information in formatted form from C.psf

Valence configuration for pseudopotential generation:
2s( 2.00) rc: 1.54
2p( 2.00) rc: 1.54
3d( 0.00) rc: 1.54
4f( 0.00) rc: 1.54
For B, standard SIESTA heuristics set lmxkb to 3
 (one more than the basis l, including polarization orbitals).
Use PS.lmax or PS.KBprojectors blocks to override.
For C, standard SIESTA heuristics set lmxkb to 3
 (one more than the basis l, including polarization orbitals).
Use PS.lmax or PS.KBprojectors blocks to override.

<basis_specs>
===============================================================================
B                    Z=   5    Mass=  10.810        Charge= 0.17977+309
Lmxo=1 Lmxkb= 3    BasisType=split      Semic=F
L=0  Nsemic=0  Cnfigmx=2
          n=1  nzeta=2  polorb=0
            splnorm:   0.15000    
               vcte:    0.0000    
               rinn:    0.0000    
                rcs:    0.0000      0.0000    
            lambdas:    1.0000      1.0000    
L=1  Nsemic=0  Cnfigmx=2
          n=1  nzeta=2  polorb=1
            splnorm:   0.15000    
               vcte:    0.0000    
               rinn:    0.0000    
                rcs:    0.0000      0.0000    
            lambdas:    1.0000      1.0000    
-------------------------------------------------------------------------------
L=0  Nkbl=1  erefs: 0.17977+309
L=1  Nkbl=1  erefs: 0.17977+309
L=2  Nkbl=1  erefs: 0.17977+309
L=3  Nkbl=1  erefs: 0.17977+309
===============================================================================
</basis_specs>

atom: Called for B                     (Z =   5)

read_vps: Pseudopotential generation method:
read_vps: ATM3      Troullier-Martins                       
Total valence charge:    3.00000

read_vps: Pseudopotential includes a core correction:
read_vps: Pseudo-core for xc-correction

xc_check: Exchange-correlation functional:
xc_check: GGA Perdew, Burke & Ernzerhof 1996
V l=0 = -2*Zval/r beyond r=  1.7165
V l=1 = -2*Zval/r beyond r=  1.7165
V l=2 = -2*Zval/r beyond r=  1.7165
V l=3 = -2*Zval/r beyond r=  1.6951
All V_l potentials equal beyond r=  1.7165
This should be close to max(r_c) in ps generation
All pots = -2*Zval/r beyond r=  1.7165

VLOCAL1: 99.0% of the norm of Vloc inside     14.733 Ry
VLOCAL1: 99.9% of the norm of Vloc inside     33.577 Ry
atom: Maximum radius for 4*pi*r*r*local-pseudopot. charge    2.04484
atom: Maximum radius for r*vlocal+2*Zval:    1.75994
GHOST: No ghost state for L =  0
GHOST: No ghost state for L =  1
GHOST: No ghost state for L =  2
GHOST: No ghost state for L =  3

KBgen: Kleinman-Bylander projectors: 
   l= 0   rc=  1.897051   el= -0.693730   Ekb=  4.595746   kbcos=  0.286105
   l= 1   rc=  1.920920   el= -0.265236   Ekb= -2.350715   kbcos= -0.315747
   l= 2   rc=  2.044840   el=  0.002055   Ekb= -0.690767   kbcos= -0.013822
   l= 3   rc=  2.149707   el=  0.003188   Ekb= -0.315358   kbcos= -0.002055

KBgen: Total number of  Kleinman-Bylander projectors:   16
atom: -------------------------------------------------------------------------

atom: SANKEY-TYPE ORBITALS:
atom: Selected multiple-zeta basis: split     

SPLIT: Orbitals with angular momentum L= 0

SPLIT: Basis orbitals for state 2s

SPLIT: PAO cut-off radius determined from an
SPLIT: energy shift=  0.007350 Ry

   izeta = 1
                 lambda =    1.000000
                     rc =    5.422032
                 energy =   -0.686029
                kinetic =    0.576707
    potential(screened) =   -1.262736
       potential(ionic) =   -3.271094

   izeta = 2
                 rmatch =    4.222573
              splitnorm =    0.150000
                 energy =   -0.602132
                kinetic =    0.858975
    potential(screened) =   -1.461107
       potential(ionic) =   -3.582536

SPLIT: Orbitals with angular momentum L= 1

SPLIT: Basis orbitals for state 2p

SPLIT: PAO cut-off radius determined from an
SPLIT: energy shift=  0.007350 Ry

   izeta = 1
                 lambda =    1.000000
                     rc =    6.790259
                 energy =   -0.258578
                kinetic =    1.481412
    potential(screened) =   -1.739989
       potential(ionic) =   -3.657461

   izeta = 2
                 rmatch =    4.608740
              splitnorm =    0.150000
                 energy =   -0.173757
                kinetic =    2.186690
    potential(screened) =   -2.360447
       potential(ionic) =   -4.464260

POLgen: Perturbative polarization orbital with L=  2

POLgen: Polarization orbital for state 2p

   izeta = 1
                     rc =    6.790259
                 energy =    0.684082
                kinetic =    1.471481
    potential(screened) =   -0.787399
       potential(ionic) =   -2.406985
atom: Total number of Sankey-type orbitals: 13

atm_pop: Valence configuration (for local Pseudopot. screening):
 2s( 2.00)                                                            
 2p( 1.00)                                                            
Vna: chval, zval:    3.00000   3.00000

Vna:  Cut-off radius for the neutral-atom potential:   6.790259
comcore: Pseudo-core radius Rcore=  2.122997

atom: _________________________________________________________________________

<basis_specs>
===============================================================================
C                    Z=   6    Mass=  12.010        Charge= 0.17977+309
Lmxo=1 Lmxkb= 3    BasisType=split      Semic=F
L=0  Nsemic=0  Cnfigmx=2
          n=1  nzeta=2  polorb=0
            splnorm:   0.15000    
               vcte:    0.0000    
               rinn:    0.0000    
                rcs:    0.0000      0.0000    
            lambdas:    1.0000      1.0000    
L=1  Nsemic=0  Cnfigmx=2
          n=1  nzeta=2  polorb=1
            splnorm:   0.15000    
               vcte:    0.0000    
               rinn:    0.0000    
                rcs:    0.0000      0.0000    
            lambdas:    1.0000      1.0000    
-------------------------------------------------------------------------------
L=0  Nkbl=1  erefs: 0.17977+309
L=1  Nkbl=1  erefs: 0.17977+309
L=2  Nkbl=1  erefs: 0.17977+309
L=3  Nkbl=1  erefs: 0.17977+309
===============================================================================
</basis_specs>

atom: Called for C                     (Z =   6)

read_vps: Pseudopotential generation method:
read_vps: ATM3      Troullier-Martins                       
Total valence charge:    4.00000

read_vps: Pseudopotential includes a core correction:
read_vps: Pseudo-core for xc-correction

xc_check: Exchange-correlation functional:
xc_check: GGA Perdew, Burke & Ernzerhof 1996
V l=0 = -2*Zval/r beyond r=  1.5227
V l=1 = -2*Zval/r beyond r=  1.5227
V l=2 = -2*Zval/r beyond r=  1.5227
V l=3 = -2*Zval/r beyond r=  1.5038
All V_l potentials equal beyond r=  1.5227
This should be close to max(r_c) in ps generation
All pots = -2*Zval/r beyond r=  1.5227

VLOCAL1: 99.0% of the norm of Vloc inside     18.722 Ry
VLOCAL1: 99.9% of the norm of Vloc inside     42.668 Ry
atom: Maximum radius for 4*pi*r*r*local-pseudopot. charge    1.83678
atom: Maximum radius for r*vlocal+2*Zval:    1.58088
GHOST: No ghost state for L =  0
GHOST: No ghost state for L =  1
GHOST: No ghost state for L =  2
GHOST: No ghost state for L =  3

KBgen: Kleinman-Bylander projectors: 
   l= 0   rc=  1.704034   el= -1.009801   Ekb=  5.335044   kbcos=  0.316824
   l= 1   rc=  1.704034   el= -0.388707   Ekb= -3.785862   kbcos= -0.366464
   l= 2   rc=  1.791422   el=  0.001971   Ekb= -0.970471   kbcos= -0.009212
   l= 3   rc=  1.859892   el=  0.003065   Ekb= -0.399525   kbcos= -0.001223

KBgen: Total number of  Kleinman-Bylander projectors:   16
atom: -------------------------------------------------------------------------

atom: SANKEY-TYPE ORBITALS:
atom: Selected multiple-zeta basis: split     

SPLIT: Orbitals with angular momentum L= 0

SPLIT: Basis orbitals for state 2s

SPLIT: PAO cut-off radius determined from an
SPLIT: energy shift=  0.007350 Ry

   izeta = 1
                 lambda =    1.000000
                     rc =    4.632753
                 energy =   -1.002270
                kinetic =    0.855760
    potential(screened) =   -1.858031
       potential(ionic) =   -5.417575

   izeta = 2
                 rmatch =    3.431921
              splitnorm =    0.150000
                 energy =   -0.867111
                kinetic =    1.300804
    potential(screened) =   -2.167915
       potential(ionic) =   -5.962684

SPLIT: Orbitals with angular momentum L= 1

SPLIT: Basis orbitals for state 2p

SPLIT: PAO cut-off radius determined from an
SPLIT: energy shift=  0.007350 Ry

   izeta = 1
                 lambda =    1.000000
                     rc =    5.658549
                 energy =   -0.381140
                kinetic =    2.399701
    potential(screened) =   -2.780841
       potential(ionic) =   -6.206085

   izeta = 2
                 rmatch =    3.653288
              splitnorm =    0.150000
                 energy =   -0.249149
                kinetic =    3.542762
    potential(screened) =   -3.791911
       potential(ionic) =   -7.581078

POLgen: Perturbative polarization orbital with L=  2

POLgen: Polarization orbital for state 2p

   izeta = 1
                     rc =    5.658549
                 energy =    1.109913
                kinetic =    2.304789
    potential(screened) =   -1.194876
       potential(ionic) =   -4.013592
atom: Total number of Sankey-type orbitals: 13

atm_pop: Valence configuration (for local Pseudopot. screening):
 2s( 2.00)                                                            
 2p( 2.00)                                                            
Vna: chval, zval:    4.00000   4.00000

Vna:  Cut-off radius for the neutral-atom potential:   5.658549
comcore: Pseudo-core radius Rcore=  1.791422

atom: _________________________________________________________________________

prinput: Basis input ----------------------------------------------------------

PAO.BasisType split     

%block ChemicalSpeciesLabel
    1    5 B                       # Species index, atomic number, species label
    2    6 C                       # Species index, atomic number, species label
%endblock ChemicalSpeciesLabel

%block PAO.Basis                 # Define Basis set
B                     2                    # Species label, number of l-shells
 n=2   0   2                         # n, l, Nzeta 
   5.422      4.223   
   1.000      1.000   
 n=2   1   2 P   1                   # n, l, Nzeta, Polarization, NzetaPol
   6.790      4.609   
   1.000      1.000   
C                     2                    # Species label, number of l-shells
 n=2   0   2                         # n, l, Nzeta 
   4.633      3.432   
   1.000      1.000   
 n=2   1   2 P   1                   # n, l, Nzeta, Polarization, NzetaPol
   5.659      3.653   
   1.000      1.000   
%endblock PAO.Basis

prinput: ----------------------------------------------------------------------

coor:   Atomic-coordinates input format  =     Fractional

siesta: Atomic coordinates (Bohr) and species
siesta:      4.63094  13.34970   0.00000  1        1
siesta:     -0.02582  13.34970   0.00000  1        2
siesta:      2.30256  14.69411   0.00000  1        3
siesta:      6.95932  25.44831   0.00000  1        4
siesta:     -2.35420  14.69411   0.00000  1        5
siesta:     -2.35420  17.38257   0.00000  1        6
siesta:     -0.02582  21.41544   0.00000  1        7
siesta:     -2.35420  22.75985   0.00000  1        8
siesta:     -2.35420  25.44831   0.00000  1        9
siesta:     -7.01096  25.44831   0.00000  1       10
siesta:      4.63094  26.79272   0.00000  1       11
siesta:      4.63094  29.48119   0.00000  1       12
siesta:     -0.02582  29.48119   0.00000  1       13
siesta:     -4.68258  26.79272   0.00000  1       14
siesta:      2.30256  30.82560   0.00000  1       15
siesta:     -0.02582   2.59549   0.00000  2       16
siesta:     -0.02582   5.28395   0.00000  2       17
siesta:     -2.35420  38.89134   0.00000  2       18
siesta:     -2.35420  41.57980   0.00000  2       19
siesta:      2.30256  38.89134   0.00000  2       20
siesta:      2.30256  41.57980   0.00000  2       21
siesta:      4.63094  34.85847   0.00000  2       22
siesta:      4.63094  37.54693   0.00000  2       23
siesta:      6.95932  30.82560   0.00000  2       24
siesta:      6.95932  33.51406   0.00000  2       25
siesta:      9.28770  26.79272   0.00000  2       26
siesta:      9.28770  29.48119   0.00000  2       27
siesta:     -4.68258  34.85847   0.00000  2       28
siesta:     -4.68258  37.54693   0.00000  2       29
siesta:      2.30256   6.62836   0.00000  2       30
siesta:      2.30256   9.31683   0.00000  2       31
siesta:      4.63094  10.66124   0.00000  2       32
siesta:      6.95932  14.69411   0.00000  2       33
siesta:      6.95932  17.38257   0.00000  2       34
siesta:      9.28770  18.72698   0.00000  2       35
siesta:      9.28770  21.41544   0.00000  2       36
siesta:     11.61608  22.75985   0.00000  2       37
siesta:     11.61608  25.44831   0.00000  2       38
siesta:     -2.35420   6.62836   0.00000  2       39
siesta:     -2.35420   9.31683   0.00000  2       40
siesta:     -0.02582  10.66124   0.00000  2       41
siesta:      2.30256  17.38257   0.00000  2       42
siesta:      4.63094  18.72698   0.00000  2       43
siesta:      4.63094  21.41544   0.00000  2       44
siesta:      6.95932  22.75985   0.00000  2       45
siesta:     -4.68258  10.66124   0.00000  2       46
siesta:     -4.68258  13.34970   0.00000  2       47
siesta:     -0.02582  18.72698   0.00000  2       48
siesta:      2.30256  22.75985   0.00000  2       49
siesta:      2.30256  25.44831   0.00000  2       50
siesta:     -7.01096  14.69411   0.00000  2       51
siesta:     -7.01096  17.38257   0.00000  2       52
siesta:     -4.68258  18.72698   0.00000  2       53
siesta:     -4.68258  21.41544   0.00000  2       54
siesta:     -9.33934  18.72698   0.00000  2       55
siesta:     -9.33934  21.41544   0.00000  2       56
siesta:     -7.01096  22.75985   0.00000  2       57
siesta:    -11.66772  22.75985   0.00000  2       58
siesta:    -11.66772  25.44831   0.00000  2       59
siesta:     -9.33934  26.79272   0.00000  2       60
siesta:     -9.33934  29.48119   0.00000  2       61
siesta:     -0.02582  26.79272   0.00000  2       62
siesta:     -4.68258  29.48119   0.00000  2       63
siesta:      2.30256  33.51406   0.00000  2       64
siesta:     -2.35420  30.82560   0.00000  2       65
siesta:     -2.35420  33.51406   0.00000  2       66
siesta:     -7.01096  30.82560   0.00000  2       67
siesta:     -7.01096  33.51406   0.00000  2       68
siesta:     -0.02582  34.85847   0.00000  2       69
siesta:     -0.02582  37.54693   0.00000  2       70
siesta:     -0.02582  42.92421   0.00000  2       71
siesta:     -0.02582  45.61267   0.00000  2       72

siesta: System type = slab      

initatomlists: Number of atoms, orbitals, and projectors:     72   936  1152

siesta: ******************** Simulation parameters ****************************
siesta:
siesta: The following are some of the parameters of the simulation.
siesta: A complete list of the parameters used, including default values,
siesta: can be found in file out.fdf
siesta:
redata: Non-Collinear-spin run           =     F
redata: SpinPolarized (Up/Down) run      =     F
redata: Number of spin components        =     1
redata: Long output                      =     F
redata: Number of Atomic Species         =        2
redata: Charge density info will appear in .RHO file
redata: Write Mulliken Pop.              =     NO
redata: Mesh Cutoff                      =   200.0000  Ry
redata: Net charge of the system         =     0.0000 |e|
redata: Max. number of SCF Iter          =      500
redata: SCF convergence failure will abort job
redata: Performing Pulay mixing using    =    10 iterations
redata: Mix DM in first SCF step ?       =     F
redata: Write Pulay info on disk?        =     F
redata: Discard 1st Pulay DM after  kick =     F
redata: New DM Mixing Weight             =     0.0500
redata: New DM Occupancy tolerance       = 0.000000000001
redata: No kicks to SCF
redata: DM Mixing Weight for Kicks       =     0.5000
redata: DM Tolerance for SCF             =     0.000100
redata: Require Energy convergence for SCF =     F
redata: DM Energy tolerance for SCF      =     0.000100 eV
redata: Require Harris convergence for SCF =     F
redata: DM Harris energy tolerance for SCF =     0.000100 eV
redata: Using Saved Data (generic)   =     F
redata: Use continuation files for DM    =     T
redata: Neglect nonoverlap interactions  =     F
redata: Method of Calculation            =     Diagonalization
redata: Divide and Conquer               =     T
redata: Electronic Temperature           =     0.0019  Ry
redata: Fix the spin of the system       =     F
redata: Dynamics option                  =     Verlet MD run
redata: Initial MD time step             =        1
redata:   Final MD time step             =        1
redata: Length of MD time step           =     1.0000  fs
redata: Initial Temperature of MD run    =     0.0000  K
redata: Perform a MD quench              =     F
redata: ***********************************************************************
Total number of electrons:   273.000000
Total ionic charge:   273.000000

* ProcessorY, Blocksize:    3  24

k-point displ. along   1 input, could be:     0.50    0.00
k-point displ. along   2 input, could be:     0.50    0.00
 Kpoints in:          231 . Kpoints trimmed:          231

siesta: k-grid: Number of k-points =   231
siesta: k-grid: Cutoff (effective) =     5.000 Ang
siesta: k-grid: Supercell and displacements
siesta: k-grid:   21   0   0      0.500
siesta: k-grid:    0  21   0      0.500
siesta: k-grid:    0   0   1      0.000
Naive supercell factors:     2    2    2

superc: Internal auxiliary supercell:     2 x     2 x     2  =       8
superc: Number of atoms, orbitals, and projectors:    576   7488   9216

* Maximum dynamic memory allocated =     4 MB

siesta:                 ==============================
                            Begin MD step =      1
                        ==============================

superc: Internal auxiliary supercell:     2 x     2 x     2  =       8
superc: Number of atoms, orbitals, and projectors:    576   7488   9216

outcell: Unit cell vectors (Ang):
       12.804619    7.392750    0.000000
        0.000000   14.785500    0.000000
        0.000000    0.000000   10.000000

outcell: Cell vector modules (Ang)   :   14.785500   14.785500   10.000000
outcell: Cell angles (23,13,12) (deg):     90.0000     90.0000     60.0000
outcell: Cell volume (Ang**3)        :   1893.2269
New_DM. Step:     1
Initializing Density Matrix...

InitMesh: MESH =   120 x   120 x    90 =     1296000
InitMesh: Mesh cutoff (required, used) =   200.000   223.865 Ry

* Maximum dynamic memory allocated =   155 MB

stepf: Fermi-Dirac step function

siesta: Program's energy decomposition (eV):
siesta: Ebs     =     -5628.084543
siesta: Eions   =     16482.160403
siesta: Ena     =      4356.408197
siesta: Ekin    =      5587.107004
siesta: Enl     =       762.398209
siesta: DEna    =        -0.000010
siesta: DUscf   =         0.000000
siesta: DUext   =         0.000000
siesta: Exc     =     -4190.608658
siesta: eta*DQ  =         0.000000
siesta: Emadel  =         0.000000
siesta: Emeta   =         0.000000
siesta: Emolmec =         0.000000
siesta: Ekinion =         0.000000
siesta: Eharris =     -9712.100383
siesta: Etot    =     -9966.855661
siesta: FreeEng =     -9966.855661

siesta: iscf   Eharris(eV)      E_KS(eV)   FreeEng(eV)   dDmax  Ef(eV)
siesta:    1    -9712.1004    -9966.8557    -9966.8557  6.3493 -8.2449
timer: Routine,Calls,Time,% = IterSCF        1    3041.319  99.59
elaps: Routine,Calls,Wall,% = IterSCF        1     254.044  99.59
siesta:    2   -14157.9609    -8993.2628    -8993.3208 18.4764 -2.8738
siesta:    3    -9653.6533    -9828.8881    -9828.9411  3.1971 -7.2892
siesta:    4    -9625.7603    -9708.0598    -9708.0976  1.4945 -6.0265
siesta:    5    -9591.0494    -9605.1556    -9605.2022  1.2622 -5.5023
siesta:    6    -9569.4170    -9577.9275    -9577.9684  1.0727 -5.2353
siesta:    7    -9563.9094    -9567.4190    -9567.4752  0.7929 -5.2479
siesta:    8    -9562.0129    -9563.9721    -9564.0509  0.7655 -5.3134
siesta:    9    -9561.2183    -9558.5582    -9558.6197  0.6863 -5.3030
siesta:   10    -9560.0952    -9546.8788    -9546.9214  0.5171 -5.1913
siesta:   11    -9559.4705    -9540.6816    -9540.7308  0.3591 -5.2143
siesta:   12    -9560.3586    -9532.0408    -9532.1096  0.1834 -5.2005
siesta:   13    -9559.2735    -9532.7283    -9532.7915  0.1446 -5.1995
siesta:   14    -9558.8222    -9535.4482    -9535.5108  0.2059 -5.2085
siesta:   15    -9558.4200    -9539.7329    -9539.8082  0.1092 -5.2232
siesta:   16    -9558.2838    -9544.8224    -9544.8925  0.0941 -5.2372
siesta:   17    -9558.2250    -9548.9654    -9549.0323  0.0816 -5.2593
siesta:   18    -9558.1922    -9551.5426    -9551.6120  0.0399 -5.2715
siesta:   19    -9558.1713    -9552.8194    -9552.8821  0.0192 -5.2776
siesta:   20    -9558.1587    -9554.5543    -9554.6175  0.0187 -5.2823
siesta:   21    -9558.1552    -9555.3115    -9555.3743  0.0160 -5.2811
siesta:   22    -9558.1542    -9556.3035    -9556.3682  0.0082 -5.2793
siesta:   23    -9558.1538    -9557.0313    -9557.0949  0.0064 -5.2753
siesta:   24    -9558.1521    -9557.5118    -9557.5758  0.0046 -5.2722
siesta:   25    -9558.1520    -9557.6992    -9557.7632  0.0046 -5.2709
siesta:   26    -9558.1521    -9557.8674    -9557.9313  0.0029 -5.2715
siesta:   27    -9558.1518    -9557.9522    -9558.0157  0.0023 -5.2714
siesta:   28    -9558.1518    -9557.9933    -9558.0570  0.0020 -5.2716
siesta:   29    -9558.1517    -9558.0741    -9558.1378  0.0011 -5.2719
siesta:   30    -9558.1517    -9558.1213    -9558.1851  0.0006 -5.2723
siesta:   31    -9558.1517    -9558.1366    -9558.2003  0.0004 -5.2724
siesta:   32    -9558.1517    -9558.1436    -9558.2074  0.0004 -5.2725
siesta:   33    -9558.1517    -9558.1518    -9558.2156  0.0002 -5.2726
siesta:   34    -9558.1517    -9558.1561    -9558.2199  0.0002 -5.2726
siesta:   35    -9558.1517    -9558.1572    -9558.2210  0.0001 -5.2725
siesta:   36    -9558.1517    -9558.1566    -9558.2204  0.0001 -5.2725
siesta:   37    -9558.1517    -9558.1562    -9558.2200  0.0001 -5.2725

siesta: E_KS(eV) =            -9558.1562

siesta: E_KS - E_eggbox =     -9558.1562

siesta: Atomic forces (eV/Ang):
----------------------------------------
   Tot   -0.169461    0.046439    0.000000
----------------------------------------
   Max  557.411080
   Res  148.506484    sqrt( Sum f_i^2 / 3N )
----------------------------------------
   Max  557.411080    constrained

Stress-tensor-Voigt (kbar):     -761.55    -2678.58       -0.54       -6.13        0.00        0.00
(Free)E + p*V (eV/cell)    -8203.0007
Target enthalpy (eV/cell)    -9558.2200

siesta: Stress tensor (static) (eV/Ang**3):
        -0.475316   -0.003825    0.000000
        -0.003824   -1.671820    0.000000
         0.000000    0.000000   -0.000339

siesta: Pressure (static):       1146.89056649  kBar

siesta: Stress tensor (total) (eV/Ang**3):
        -0.475316   -0.003825    0.000000
        -0.003824   -1.671820    0.000000
         0.000000    0.000000   -0.000339

siesta: Pressure (total):       1146.89056649  kBar

siesta: Temp_ion =       0.000 K

* Maximum dynamic memory allocated =   168 MB
Computing bands...

siesta: Program's energy decomposition (eV):
siesta: Ebs     =     -4266.601735
siesta: Eions   =     16482.160403
siesta: Ena     =      4356.408197
siesta: Ekin    =      8460.595565
siesta: Enl     =      -857.606403
siesta: DEna    =      -779.790046
siesta: DUscf   =       103.916653
siesta: DUext   =         0.000000
siesta: Exc     =     -4359.519738
siesta: eta*DQ  =         0.000000
siesta: Emadel  =         0.000000
siesta: Emeta   =         0.000000
siesta: Emolmec =         0.000000
siesta: Ekinion =         0.000000
siesta: Eharris =     -9558.151687
siesta: Etot    =     -9558.156175
siesta: FreeEng =     -9558.219962

siesta: Final energy (eV):
siesta:  Band Struct. =   -4266.601735
siesta:       Kinetic =    8460.595565
siesta:       Hartree =   27394.435819
siesta:    Ext. field =       0.000000
siesta:   Exch.-corr. =   -4359.519738
siesta:  Ion-electron =  -62952.525178
siesta:       Ion-ion =   21898.857357
siesta:       Ekinion =       0.000000
siesta:         Total =   -9558.156175

siesta: Atomic forces (eV/Ang):
siesta:      1   21.606772   -0.061158    0.000000
siesta:      2    0.619057 -102.304894   -0.000002
siesta:      3   18.151639  398.219051   -0.000005
siesta:      4    3.429487   -2.654294    0.000000
siesta:      5  -17.656305  397.263567   -0.000007
siesta:      6  -19.235104   -1.050412    0.000002
siesta:      7    4.244186   -0.767636    0.000000
siesta:      8   -4.891686   -3.373316   -0.000001
siesta:      9    5.518915    3.436344    0.000000
siesta:     10   -3.116412   -2.511188    0.000000
siesta:     11   -5.176164   -2.478191   -0.000001
siesta:     12    2.794406    3.852024    0.000002
siesta:     13    0.557101 -413.733240   -0.000004
siesta:     14   -0.911613    3.638241    0.000000
siesta:     15   16.023581    2.712821   -0.000005
siesta:     16   -2.945151  405.512274    0.000007
siesta:     17    3.632334 -127.841821   -0.000007
siesta:     18    1.543681  125.543330    0.000002
siesta:     19  -16.016193 -406.762769    0.000012
siesta:     20    0.372639  126.439796    0.000016
siesta:     21   14.773973 -399.661952    0.000009
siesta:     22   26.787114    4.268384    0.000001
siesta:     23   36.223200 -555.734910   -0.000002
siesta:     24    6.727326    2.395039    0.000000
siesta:     25   -3.317506    1.871652   -0.000001
siesta:     26    6.665169    4.118577    0.000000
siesta:     27   -1.801020    0.245228    0.000000
siesta:     28  -27.240977    5.051191   -0.000002
siesta:     29  -34.119343 -552.093419    0.000005
siesta:     30   18.078950  553.088057   -0.000021
siesta:     31   -0.381696 -124.201843   -0.000007
siesta:     32   27.249610  549.003051   -0.000002
siesta:     33   -0.169217   -0.449959    0.000002
siesta:     34    2.618058   -0.468486    0.000001
siesta:     35   -1.375394    0.089260    0.000000
siesta:     36    2.669156   -1.854874    0.000000
siesta:     37    0.144562    6.509530    0.000000
siesta:     38   -0.816695   -6.917325    0.000000
siesta:     39  -16.680739  549.260351   -0.000006
siesta:     40   -0.058180 -124.865390    0.000000
siesta:     41    1.041628  539.521605    0.000011
siesta:     42   21.955502   -4.650378    0.000003
siesta:     43   -1.116972    2.116723    0.000000
siesta:     44    0.898633    0.158475    0.000000
siesta:     45   -0.570601   -2.850044    0.000000
siesta:     46  -29.119121  551.239622   -0.000006
siesta:     47  -25.468090    0.620222    0.000002
siesta:     48   -1.390262  555.646721   -0.000001
siesta:     49    1.626196    0.295847    0.000001
siesta:     50   -1.872290   -0.857908   -0.000001
siesta:     51    2.299595   -2.056883   -0.000001
siesta:     52   -3.354007   -0.184702    0.000000
siesta:     53   -0.358835    1.934972    0.000000
siesta:     54   -2.936409   -1.407153    0.000000
siesta:     55    1.543593   -0.759681    0.000000
siesta:     56   -2.744099   -1.689831    0.000000
siesta:     57   -0.029421   -3.095916    0.000000
siesta:     58   -0.050298    5.727203    0.000000
siesta:     59    0.442081   -6.307961    0.000000
siesta:     60   -6.229488    4.166674    0.000000
siesta:     61    1.394491   -0.017917    0.000000
siesta:     62    1.645599   -0.675922    0.000001
siesta:     63    2.657483    1.998497   -0.000001
siesta:     64   22.173254 -555.463539    0.000013
siesta:     65  -23.283660    3.318530    0.000002
siesta:     66  -24.199247 -557.411080    0.000002
siesta:     67   -3.133150    1.318960    0.000000
siesta:     68    2.963101    1.164456    0.000000
siesta:     69    0.940014  125.433131    0.000010
siesta:     70    0.684192 -550.799585   -0.000014
siesta:     71   -4.199403  131.380281   -0.000005
siesta:     72    3.099009 -550.497670    0.000000
siesta: ----------------------------------------
siesta:    Tot   -0.169461    0.046439    0.000000

siesta: Stress tensor (static) (eV/Ang**3):
siesta:    -0.475316   -0.003825    0.000000
siesta:    -0.003824   -1.671820    0.000000
siesta:     0.000000    0.000000   -0.000339

siesta: Cell volume =       1893.226884 Ang**3

siesta: Pressure (static):
siesta:                Solid            Molecule  Units
siesta:           0.00779625          0.11397485  Ry/Bohr**3
siesta:           0.71582505         10.46478273  eV/Ang**3
siesta:        1146.89056649      16766.61159880  kBar
(Free)E+ p_basis*V_orbitals  =       -9522.743043
(Free)Eharris+ p_basis*V_orbitals  =       -9522.738533

siesta: Electric dipole (a.u.)  =    0.000000    0.000000    0.000000
siesta: Electric dipole (Debye) =    0.000000    0.000000    0.000000

* Maximum dynamic memory allocated : Node    0 =   168 MB
* Maximum dynamic memory allocated : Node    1 =    66 MB
* Maximum dynamic memory allocated : Node    2 =    68 MB
* Maximum dynamic memory allocated : Node    3 =   155 MB
* Maximum dynamic memory allocated : Node    4 =   163 MB
* Maximum dynamic memory allocated : Node    5 =    60 MB
* Maximum dynamic memory allocated : Node    6 =    62 MB
* Maximum dynamic memory allocated : Node    7 =   153 MB
* Maximum dynamic memory allocated : Node    8 =   152 MB
* Maximum dynamic memory allocated : Node    9 =    61 MB
* Maximum dynamic memory allocated : Node   10 =    63 MB
* Maximum dynamic memory allocated : Node   11 =   145 MB

* Maximum memory occured during matrixMtoO                    

timer: CPU execution times:
timer:  Routine       Calls   Time/call    Tot.time        %
timer:  siesta            1  109561.565  109561.565   100.00
timer:  Setup             1       3.292       3.292     0.00
timer:  bands             3     225.768     677.303     0.62
timer:  writewave         1       0.022       0.022     0.00
timer:  KSV_init          1       0.006       0.006     0.00
timer:  IterMD            1  108874.049  108874.049    99.37
timer:  hsparse           1       0.283       0.283     0.00
timer:  overlap           1       7.207       7.207     0.01
timer:  IterSCF          37    2938.482  108723.848    99.24
timer:  kinefsm           2       3.669       7.337     0.01
timer:  nlefsm            2      19.945      39.889     0.04
timer:  DHSCF            38      77.037    2927.399     2.67
timer:  DHSCF1            1       1.193       1.193     0.00
timer:  DHSCF2            1      32.377      32.377     0.03
timer:  REORD           306       0.003       0.796     0.00
timer:  POISON           39       0.452      17.616     0.02
timer:  DHSCF3           38      75.422    2866.020     2.62
timer:  rhoofd           38      16.957     644.383     0.59
timer:  cellXC           38       2.404      91.369     0.08
timer:  vmat             38      35.715    1357.156     1.24
timer:  MolMec            2       0.000       0.001     0.00
timer:  diagon           37    2860.322  105831.920    96.60
timer:  c-eigval       8668       5.580   48370.097    44.15
timer:  c-buildHS      8668       0.036     310.025     0.28
timer:  cdiag         17215       5.676   97712.241    89.18
timer:  cdiag1        17215       0.258    4445.363     4.06
timer:  cdiag2        17215       1.831   31522.464    28.77
timer:  cdiag3        17215       3.379   58169.190    53.09
timer:  cdiag4        17215       0.087    1501.105     1.37
timer:  c-eigvec       8547       5.840   49910.678    45.55
timer:  c-buildD       8547       0.957    8181.922     7.47
timer:  DHSCF4            1      27.588      27.588     0.03
timer:  dfscf             1      25.496      25.496     0.02
timer:  overfsm           1       0.324       0.324     0.00
timer:  optical           1       6.315       6.315     0.01
  

elaps: ELAPSED times:
elaps:  Routine       Calls   Time/call    Tot.time        %
elaps:  siesta            1    9151.622    9151.622   100.00
elaps:  Setup             1       0.275       0.275     0.00
elaps:  bands             3      18.873      56.619     0.62
elaps:  writewave         1       0.002       0.002     0.00
elaps:  KSV_init          1       0.000       0.000     0.00
elaps:  IterMD            1    9094.194    9094.194    99.37
elaps:  hsparse           1       0.029       0.029     0.00
elaps:  overlap           1       0.715       0.715     0.01
elaps:  IterSCF          37     245.450    9081.648    99.24
elaps:  kinefsm           2       0.366       0.733     0.01
elaps:  nlefsm            2       1.775       3.549     0.04
elaps:  DHSCF            38       6.492     246.695     2.70
elaps:  DHSCF1            1       0.101       0.101     0.00
elaps:  DHSCF2            1       2.703       2.703     0.03
elaps:  REORD           306       0.000       0.089     0.00
elaps:  POISON           39       0.038       1.486     0.02
elaps:  DHSCF3           38       6.301     239.436     2.62
elaps:  rhoofd           38       2.950     112.115     1.23
elaps:  cellXC           38       0.200       7.616     0.08
elaps:  vmat             38       2.984     113.404     1.24
elaps:  MolMec            2       0.000       0.000     0.00
elaps:  diagon           37     238.927    8840.315    96.60
elaps:  c-eigval       8668       0.466    4040.274    44.15
elaps:  c-buildHS      8668       0.004      33.255     0.36
elaps:  cdiag         17215       0.469    8080.710    88.30
elaps:  cdiag1        17215       0.021     365.513     3.99
elaps:  cdiag2        17215       0.153    2635.464    28.80
elaps:  cdiag3        17215       0.283    4865.722    53.17
elaps:  cdiag4        17215       0.007     120.514     1.32
elaps:  c-eigvec       8547       0.480    4101.355    44.82
elaps:  c-buildD       8547       0.088     750.921     8.21
elaps:  DHSCF4            1       4.415       4.415     0.05
elaps:  dfscf             1       4.157       4.157     0.05
elaps:  overfsm           1       0.034       0.034     0.00
elaps:  optical           1       0.000       0.000     0.00
  
>> End of run:   3-MAY-2016  16:34:03
