Siesta Version:                                        siesta-3.2-pl-3
Architecture  : x86_64-unknown-linux-gnu--unknown
Compiler flags: mpiifort -g -O2 -fPIC -xSSE4.1 -fp-model source -shared-intel 
PARALLEL version

* Running on   12 nodes in parallel
>> Start of run:   6-APR-2016  14:48:58

                           ***********************       
                           *  WELCOME TO SIESTA  *       
                           ***********************       

reinit: Reading from standard input
************************** Dump of input data file ****************************
#(1) General system descriptors
SystemName            GRP_doping    # Descriptive name of the system
SystemLabel           GRP_doping    # Short name for naming files
%include STRUCT.fdf
%include KPT.fdf
%include BASIS.fdf
#%include TS.fdf # for transiesta calculation
#(4) DFT, Grid, SCF
XC.functional         GGA           # LDA or GGA (default = LDA)
XC.authors            PBE           # CA (Ceperley-Aldr) = PZ
                                    #    (Perdew-Zunger) - LDA - Default
                                    # PW92 (Perdew-Wang-92) - LDA
                                    # PBE (Perdew-Burke-Ernzerhof) - GGA
MeshCutoff            200.000000    Ry      # Default: 50.0 Ry ~ 0.444 Bohr
                                    #         100.0 Ry ~ 0.314 Bohr
MaxSCFIterations      500           # Default: 50
DM.MixingWeight       0.05          # Default: 0.25
DM.NumberPulay        10            # Default: 0
DM.PulayOnFile        F             # SystemLabel.P1, SystemLabel.P2
DM.Tolerance          1.d-4         # Default: 1.d-4
DM.UseSaveDM          .true.        # because of the bug
SCFMustConverge       .true.
NeglNonOverlapInt     F             # Default: F
Diag.ParallelOverK    .true.
#(5) Eigenvalue problem: order-N or diagonalization
SolutionMethod        Diagon        # or Transiesta
ElectronicTemperature 300.0 K       # Default: 300.0 K
#(6) Molecular dynamics and relaxations
#MD.TypeOfRun          CG            # Type of dynamics:
#MD.VariableCell       F
#MD.NumCGsteps         0           # 0 for single-point / 100 for gopt
#MD.MaxCGDispl         0.2 Bohr      # Default: 0.2 Bohr
#MD.MaxForceTol        0.02 eV/Ang   # Default: 0.04 eV/Ang
#MD.MaxStressTol       1.0 GPa       # Default: 1.0 GPa
************************** End of input data file *****************************

reinit: -----------------------------------------------------------------------
reinit: System Name: GRP_doping
reinit: -----------------------------------------------------------------------
reinit: System Label: GRP_doping                                                  
reinit: -----------------------------------------------------------------------

initatom: Reading input for the pseudopotentials and atomic orbitals ----------
 Species number:            1  Label: C Atomic number:           6
 Species number:            2  Label: N Atomic number:           7
Ground state valence configuration:   2s02  2p02
Reading pseudopotential information in formatted form from C.psf

Valence configuration for pseudopotential generation:
2s( 2.00) rc: 1.54
2p( 2.00) rc: 1.54
3d( 0.00) rc: 1.54
4f( 0.00) rc: 1.54
Ground state valence configuration:   2s02  2p03
Reading pseudopotential information in formatted form from N.psf

Valence configuration for pseudopotential generation:
2s( 2.00) rc: 1.48
2p( 3.00) rc: 1.48
3d( 0.00) rc: 1.48
4f( 0.00) rc: 1.48
For C, standard SIESTA heuristics set lmxkb to 3
 (one more than the basis l, including polarization orbitals).
Use PS.lmax or PS.KBprojectors blocks to override.
For N, standard SIESTA heuristics set lmxkb to 3
 (one more than the basis l, including polarization orbitals).
Use PS.lmax or PS.KBprojectors blocks to override.

<basis_specs>
===============================================================================
C                    Z=   6    Mass=  12.010        Charge= 0.17977+309
Lmxo=1 Lmxkb= 3    BasisType=split      Semic=F
L=0  Nsemic=0  Cnfigmx=2
          n=1  nzeta=2  polorb=0
            splnorm:   0.15000    
               vcte:    0.0000    
               rinn:    0.0000    
                rcs:    0.0000      0.0000    
            lambdas:    1.0000      1.0000    
L=1  Nsemic=0  Cnfigmx=2
          n=1  nzeta=2  polorb=1
            splnorm:   0.15000    
               vcte:    0.0000    
               rinn:    0.0000    
                rcs:    0.0000      0.0000    
            lambdas:    1.0000      1.0000    
-------------------------------------------------------------------------------
L=0  Nkbl=1  erefs: 0.17977+309
L=1  Nkbl=1  erefs: 0.17977+309
L=2  Nkbl=1  erefs: 0.17977+309
L=3  Nkbl=1  erefs: 0.17977+309
===============================================================================
</basis_specs>

atom: Called for C                     (Z =   6)

read_vps: Pseudopotential generation method:
read_vps: ATM3      Troullier-Martins                       
Total valence charge:    4.00000

read_vps: Pseudopotential includes a core correction:
read_vps: Pseudo-core for xc-correction

xc_check: Exchange-correlation functional:
xc_check: GGA Perdew, Burke & Ernzerhof 1996
V l=0 = -2*Zval/r beyond r=  1.5227
V l=1 = -2*Zval/r beyond r=  1.5227
V l=2 = -2*Zval/r beyond r=  1.5227
V l=3 = -2*Zval/r beyond r=  1.5038
All V_l potentials equal beyond r=  1.5227
This should be close to max(r_c) in ps generation
All pots = -2*Zval/r beyond r=  1.5227

VLOCAL1: 99.0% of the norm of Vloc inside     18.722 Ry
VLOCAL1: 99.9% of the norm of Vloc inside     42.668 Ry
atom: Maximum radius for 4*pi*r*r*local-pseudopot. charge    1.83678
atom: Maximum radius for r*vlocal+2*Zval:    1.58088
GHOST: No ghost state for L =  0
GHOST: No ghost state for L =  1
GHOST: No ghost state for L =  2
GHOST: No ghost state for L =  3

KBgen: Kleinman-Bylander projectors: 
   l= 0   rc=  1.704034   el= -1.009801   Ekb=  5.335044   kbcos=  0.316824
   l= 1   rc=  1.704034   el= -0.388707   Ekb= -3.785862   kbcos= -0.366464
   l= 2   rc=  1.791422   el=  0.001971   Ekb= -0.970471   kbcos= -0.009212
   l= 3   rc=  1.859892   el=  0.003065   Ekb= -0.399525   kbcos= -0.001223

KBgen: Total number of  Kleinman-Bylander projectors:   16
atom: -------------------------------------------------------------------------

atom: SANKEY-TYPE ORBITALS:
atom: Selected multiple-zeta basis: split     

SPLIT: Orbitals with angular momentum L= 0

SPLIT: Basis orbitals for state 2s

SPLIT: PAO cut-off radius determined from an
SPLIT: energy shift=  0.007350 Ry

   izeta = 1
                 lambda =    1.000000
                     rc =    4.632753
                 energy =   -1.002270
                kinetic =    0.855760
    potential(screened) =   -1.858031
       potential(ionic) =   -5.417575

   izeta = 2
                 rmatch =    3.431921
              splitnorm =    0.150000
                 energy =   -0.867111
                kinetic =    1.300804
    potential(screened) =   -2.167915
       potential(ionic) =   -5.962684

SPLIT: Orbitals with angular momentum L= 1

SPLIT: Basis orbitals for state 2p

SPLIT: PAO cut-off radius determined from an
SPLIT: energy shift=  0.007350 Ry

   izeta = 1
                 lambda =    1.000000
                     rc =    5.658549
                 energy =   -0.381140
                kinetic =    2.399701
    potential(screened) =   -2.780841
       potential(ionic) =   -6.206085

   izeta = 2
                 rmatch =    3.653288
              splitnorm =    0.150000
                 energy =   -0.249149
                kinetic =    3.542762
    potential(screened) =   -3.791911
       potential(ionic) =   -7.581078

POLgen: Perturbative polarization orbital with L=  2

POLgen: Polarization orbital for state 2p

   izeta = 1
                     rc =    5.658549
                 energy =    1.109913
                kinetic =    2.304789
    potential(screened) =   -1.194876
       potential(ionic) =   -4.013592
atom: Total number of Sankey-type orbitals: 13

atm_pop: Valence configuration (for local Pseudopot. screening):
 2s( 2.00)                                                            
 2p( 2.00)                                                            
Vna: chval, zval:    4.00000   4.00000

Vna:  Cut-off radius for the neutral-atom potential:   5.658549
comcore: Pseudo-core radius Rcore=  1.791422

atom: _________________________________________________________________________

<basis_specs>
===============================================================================
N                    Z=   7    Mass=  14.010        Charge= 0.17977+309
Lmxo=1 Lmxkb= 3    BasisType=split      Semic=F
L=0  Nsemic=0  Cnfigmx=2
          n=1  nzeta=2  polorb=0
            splnorm:   0.15000    
               vcte:    0.0000    
               rinn:    0.0000    
                rcs:    0.0000      0.0000    
            lambdas:    1.0000      1.0000    
L=1  Nsemic=0  Cnfigmx=2
          n=1  nzeta=2  polorb=1
            splnorm:   0.15000    
               vcte:    0.0000    
               rinn:    0.0000    
                rcs:    0.0000      0.0000    
            lambdas:    1.0000      1.0000    
-------------------------------------------------------------------------------
L=0  Nkbl=1  erefs: 0.17977+309
L=1  Nkbl=1  erefs: 0.17977+309
L=2  Nkbl=1  erefs: 0.17977+309
L=3  Nkbl=1  erefs: 0.17977+309
===============================================================================
</basis_specs>

atom: Called for N                     (Z =   7)

read_vps: Pseudopotential generation method:
read_vps: ATM3      Troullier-Martins                       
Total valence charge:    5.00000

read_vps: Pseudopotential includes a core correction:
read_vps: Pseudo-core for xc-correction

xc_check: Exchange-correlation functional:
xc_check: GGA Perdew, Burke & Ernzerhof 1996
V l=0 = -2*Zval/r beyond r=  1.4606
V l=1 = -2*Zval/r beyond r=  1.4606
V l=2 = -2*Zval/r beyond r=  1.4606
V l=3 = -2*Zval/r beyond r=  1.4606
All V_l potentials equal beyond r=  1.4606
This should be close to max(r_c) in ps generation
All pots = -2*Zval/r beyond r=  1.4606

VLOCAL1: 99.0% of the norm of Vloc inside     20.347 Ry
VLOCAL1: 99.9% of the norm of Vloc inside     46.372 Ry
atom: Maximum radius for 4*pi*r*r*local-pseudopot. charge    1.76189
atom: Maximum radius for r*vlocal+2*Zval:    1.53550
GHOST: No ghost state for L =  0
GHOST: No ghost state for L =  1
GHOST: No ghost state for L =  2
GHOST: No ghost state for L =  3

KBgen: Kleinman-Bylander projectors: 
   l= 0   rc=  1.634559   el= -1.363963   Ekb=  5.296955   kbcos=  0.335621
   l= 1   rc=  1.614250   el= -0.521451   Ekb= -5.259161   kbcos= -0.433408
   l= 2   rc=  1.718383   el=  0.001991   Ekb= -1.271464   kbcos= -0.007566
   l= 3   rc=  1.761893   el=  0.003093   Ekb= -0.494769   kbcos= -0.001015

KBgen: Total number of  Kleinman-Bylander projectors:   16
atom: -------------------------------------------------------------------------

atom: SANKEY-TYPE ORBITALS:
atom: Selected multiple-zeta basis: split     

SPLIT: Orbitals with angular momentum L= 0

SPLIT: Basis orbitals for state 2s

SPLIT: PAO cut-off radius determined from an
SPLIT: energy shift=  0.007350 Ry

   izeta = 1
                 lambda =    1.000000
                     rc =    4.071465
                 energy =   -1.356470
                kinetic =    1.176977
    potential(screened) =   -2.533447
       potential(ionic) =   -8.057990

   izeta = 2
                 rmatch =    2.905100
              splitnorm =    0.150000
                 energy =   -1.158343
                kinetic =    1.813009
    potential(screened) =   -2.971352
       potential(ionic) =   -8.901931

SPLIT: Orbitals with angular momentum L= 1

SPLIT: Basis orbitals for state 2p

SPLIT: PAO cut-off radius determined from an
SPLIT: energy shift=  0.007350 Ry

   izeta = 1
                 lambda =    1.000000
                     rc =    4.972977
                 energy =   -0.513884
                kinetic =    3.441732
    potential(screened) =   -3.955616
       potential(ionic) =   -9.287901

   izeta = 2
                 rmatch =    3.054066
              splitnorm =    0.150000
                 energy =   -0.318226
                kinetic =    5.125348
    potential(screened) =   -5.443573
       potential(ionic) =  -11.380999

POLgen: Perturbative polarization orbital with L=  2

POLgen: Polarization orbital for state 2p

   izeta = 1
                     rc =    4.972977
                 energy =    1.607437
                kinetic =    3.268125
    potential(screened) =   -1.660688
       potential(ionic) =   -5.973652
atom: Total number of Sankey-type orbitals: 13

atm_pop: Valence configuration (for local Pseudopot. screening):
 2s( 2.00)                                                            
 2p( 3.00)                                                            
Vna: chval, zval:    5.00000   5.00000

Vna:  Cut-off radius for the neutral-atom potential:   4.972977
comcore: Pseudo-core radius Rcore=  1.554824

atom: _________________________________________________________________________

prinput: Basis input ----------------------------------------------------------

PAO.BasisType split     

%block ChemicalSpeciesLabel
    1    6 C                       # Species index, atomic number, species label
    2    7 N                       # Species index, atomic number, species label
%endblock ChemicalSpeciesLabel

%block PAO.Basis                 # Define Basis set
C                     2                    # Species label, number of l-shells
 n=2   0   2                         # n, l, Nzeta 
   4.633      3.432   
   1.000      1.000   
 n=2   1   2 P   1                   # n, l, Nzeta, Polarization, NzetaPol
   5.659      3.653   
   1.000      1.000   
N                     2                    # Species label, number of l-shells
 n=2   0   2                         # n, l, Nzeta 
   4.071      2.905   
   1.000      1.000   
 n=2   1   2 P   1                   # n, l, Nzeta, Polarization, NzetaPol
   4.973      3.054   
   1.000      1.000   
%endblock PAO.Basis

prinput: ----------------------------------------------------------------------

coor:   Atomic-coordinates input format  =     Cartesian coordinates
coor:                                          (in Angstroms)

siesta: Atomic coordinates (Bohr) and species
siesta:      2.23554   1.32097   0.00000  1        1
siesta:      4.56367   2.66461   0.00000  1        2
siesta:     32.50328  21.48508   0.00000  1        3
siesta:     34.83141  22.82873   0.00000  1        4
siesta:     34.83116  17.45226   0.00000  1        5
siesta:     37.15930  18.79590   0.00000  1        6
siesta:     32.50291  13.41944   0.00000  1        7
siesta:     34.83104  14.76308   0.00000  1        8
siesta:     30.17465   9.38661   0.00000  1        9
siesta:     32.50278  10.73026   0.00000  1       10
siesta:     27.84639   5.35379   0.00000  1       11
siesta:     30.17453   6.69743   0.00000  1       12
siesta:     27.84714  21.48508   0.00000  1       13
siesta:     30.17527  22.82873   0.00000  1       14
siesta:      6.89168   1.32097   0.00000  1       15
siesta:      9.21981   2.66461   0.00000  1       16
siesta:     11.54782   1.32097   0.00000  1       17
siesta:     13.87595   2.66461   0.00000  1       18
siesta:     16.20396   1.32097   0.00000  1       19
siesta:     18.53210   2.66461   0.00000  1       20
siesta:     23.19013   2.66461   0.00000  1       21
siesta:     25.51813   1.32097   0.00000  1       22
siesta:     27.84627   2.66461   0.00000  1       23
siesta:      6.89193   6.69743   0.00000  1       24
siesta:      9.21994   5.35379   0.00000  1       25
siesta:     11.54807   6.69743   0.00000  1       26
siesta:     13.87608   5.35379   0.00000  1       27
siesta:     16.20421   6.69743   0.00000  1       28
siesta:     18.53411   5.35379   0.00000  1       29
siesta:     23.19025   5.35379   0.00000  1       30
siesta:     25.51838   6.69743   0.00000  1       31
siesta:      9.22019  10.73026   0.00000  1       32
siesta:     11.54820   9.38661   0.00000  1       33
siesta:     13.87633  10.73026   0.00000  1       34
siesta:     18.53247  10.73026   0.00000  1       35
siesta:     20.86237   9.38661   0.00000  1       36
siesta:     23.19050  10.73026   0.00000  1       37
siesta:      9.22031  13.41944   0.00000  1       38
siesta:     11.54845  14.76308   0.00000  1       39
siesta:     13.87645  13.41944   0.00000  1       40
siesta:     16.20459  14.76308   0.00000  1       41
siesta:     18.53448  13.41944   0.00000  1       42
siesta:     20.86262  14.76308   0.00000  1       43
siesta:     13.87670  18.79590   0.00000  1       44
siesta:     16.20471  17.45226   0.00000  1       45
siesta:     18.53284  18.79590   0.00000  1       46
siesta:     13.87683  21.48508   0.00000  1       47
siesta:     16.20496  22.82873   0.00000  1       48
siesta:     18.53486  21.48508   0.00000  1       49
siesta:     20.86299  22.82873   0.00000  1       50
siesta:     27.84664  10.73026   0.00000  1       51
siesta:     23.19063  13.41944   0.00000  1       52
siesta:     25.51876  14.76308   0.00000  1       53
siesta:     23.19088  18.79590   0.00000  1       54
siesta:     27.84677  13.41944   0.00000  1       55
siesta:     30.17490  14.76308   0.00000  1       56
siesta:     25.51888  17.45226   0.00000  1       57
siesta:     27.84702  18.79590   0.00000  1       58
siesta:     23.19100  21.48508   0.00000  1       59
siesta:     25.51913  22.82873   0.00000  1       60
siesta:     32.50316  18.79590   0.00000  1       61
siesta:     37.16131  21.48508   0.00000  1       62
siesta:     39.48945  22.82873   0.00000  1       63
siesta:     20.86199   1.32097   0.00000  2       64
siesta:      4.56380   5.35379   0.00000  2       65
siesta:     20.86224   6.69743   0.00000  2       66
siesta:      6.89205   9.38661   0.00000  2       67
siesta:     16.20434   9.38661   0.00000  2       68
siesta:     11.54857  17.45226   0.00000  2       69
siesta:     25.51851   9.38661   0.00000  2       70
siesta:     20.86274  17.45226   0.00000  2       71
siesta:     30.17503  17.45226   0.00000  2       72

siesta: System type = slab      

initatomlists: Number of atoms, orbitals, and projectors:     72   936  1152

siesta: ******************** Simulation parameters ****************************
siesta:
siesta: The following are some of the parameters of the simulation.
siesta: A complete list of the parameters used, including default values,
siesta: can be found in file out.fdf
siesta:
redata: Non-Collinear-spin run           =     F
redata: SpinPolarized (Up/Down) run      =     F
redata: Number of spin components        =     1
redata: Long output                      =     F
redata: Number of Atomic Species         =        2
redata: Charge density info will appear in .RHO file
redata: Write Mulliken Pop.              =     NO
redata: Mesh Cutoff                      =   200.0000  Ry
redata: Net charge of the system         =     0.0000 |e|
redata: Max. number of SCF Iter          =      500
redata: SCF convergence failure will abort job
redata: Performing Pulay mixing using    =    10 iterations
redata: Mix DM in first SCF step ?       =     F
redata: Write Pulay info on disk?        =     F
redata: Discard 1st Pulay DM after  kick =     F
redata: New DM Mixing Weight             =     0.0500
redata: New DM Occupancy tolerance       = 0.000000000001
redata: No kicks to SCF
redata: DM Mixing Weight for Kicks       =     0.5000
redata: DM Tolerance for SCF             =     0.000100
redata: Require Energy convergence for SCF =     F
redata: DM Energy tolerance for SCF      =     0.000100 eV
redata: Require Harris convergence for SCF =     F
redata: DM Harris energy tolerance for SCF =     0.000100 eV
redata: Using Saved Data (generic)   =     F
redata: Use continuation files for DM    =     T
redata: Neglect nonoverlap interactions  =     F
redata: Method of Calculation            =     Diagonalization
redata: Divide and Conquer               =     T
redata: Electronic Temperature           =     0.0019  Ry
redata: Fix the spin of the system       =     F
redata: Dynamics option                  =     Verlet MD run
redata: Initial MD time step             =        1
redata:   Final MD time step             =        1
redata: Length of MD time step           =     1.0000  fs
redata: Initial Temperature of MD run    =     0.0000  K
redata: Perform a MD quench              =     F
redata: ***********************************************************************
Total number of electrons:   297.000000
Total ionic charge:   297.000000

* ProcessorY, Blocksize:    3  24

k-point displ. along   1 input, could be:     0.50    0.00
k-point displ. along   2 input, could be:     0.50    0.00
 Kpoints in:          231 . Kpoints trimmed:          231

siesta: k-grid: Number of k-points =   231
siesta: k-grid: Cutoff (effective) =     5.000 Ang
siesta: k-grid: Supercell and displacements
siesta: k-grid:   21   0   0      0.500
siesta: k-grid:    0  21   0      0.500
siesta: k-grid:    0   0   1      0.000
Naive supercell factors:     2    2    2

superc: Internal auxiliary supercell:     2 x     2 x     2  =       8
superc: Number of atoms, orbitals, and projectors:    576   7488   9216

* Maximum dynamic memory allocated =     4 MB

siesta:                 ==============================
                            Begin MD step =      1
                        ==============================

superc: Internal auxiliary supercell:     2 x     2 x     2  =       8
superc: Number of atoms, orbitals, and projectors:    576   7488   9216

outcell: Unit cell vectors (Ang):
       14.785000    0.000000    0.000000
        7.393000   12.805052    0.000000
        0.000000    0.000000   10.000000

outcell: Cell vector modules (Ang)   :   14.785000   14.786000   10.000000
outcell: Cell angles (23,13,12) (deg):     90.0000     90.0000     60.0000
outcell: Cell volume (Ang**3)        :   1893.2269
New_DM. Step:     1
Initializing Density Matrix...

iodm: Reading Density Matrix from files

InitMesh: MESH =   120 x   120 x    90 =     1296000
InitMesh: Mesh cutoff (required, used) =   200.000   223.865 Ry

* Maximum dynamic memory allocated =   134 MB

stepf: Fermi-Dirac step function

siesta: Program's energy decomposition (eV):
siesta: Ebs     =     -4184.994669
siesta: Eions   =     19849.732669
siesta: Ena     =      4064.192889
siesta: Ekin    =      8580.201860
siesta: Enl     =     -1059.116314
siesta: DEna    =      -247.531731
siesta: DUscf   =        22.414732
siesta: DUext   =         0.000000
siesta: Exc     =     -4250.545241
siesta: eta*DQ  =         0.000000
siesta: Emadel  =         0.000000
siesta: Emeta   =         0.000000
siesta: Emolmec =         0.000000
siesta: Ekinion =         0.000000
siesta: Eharris =    -12740.116228
siesta: Etot    =    -12740.116474
siesta: FreeEng =    -12740.116474

siesta: iscf   Eharris(eV)      E_KS(eV)   FreeEng(eV)   dDmax  Ef(eV)
siesta:    1   -12740.1162   -12740.1165   -12740.1165  0.0001 -3.4430
timer: Routine,Calls,Time,% = IterSCF        1    1190.827  98.97
elaps: Routine,Calls,Wall,% = IterSCF        1      99.478  98.97

siesta: E_KS(eV) =           -12740.1162

siesta: E_KS - E_eggbox =    -12740.1162

siesta: Atomic forces (eV/Ang):
----------------------------------------
   Tot    0.213755   -0.297657    0.000000
----------------------------------------
   Max    1.071287
   Res    0.277104    sqrt( Sum f_i^2 / 3N )
----------------------------------------
   Max    1.071287    constrained

Stress-tensor-Voigt (kbar):        0.60        0.35        0.14        0.11        0.00        0.00
(Free)E + p*V (eV/cell)   -12740.5805
Target enthalpy (eV/cell)   -12740.1519

siesta: Stress tensor (static) (eV/Ang**3):
         0.000373    0.000067    0.000000
         0.000067    0.000216    0.000000
         0.000000    0.000000    0.000090

siesta: Pressure (static):         -0.36271006  kBar

siesta: Stress tensor (total) (eV/Ang**3):
         0.000373    0.000067    0.000000
         0.000067    0.000216    0.000000
         0.000000    0.000000    0.000090

siesta: Pressure (total):         -0.36271006  kBar

siesta: Temp_ion =       0.000 K

* Maximum dynamic memory allocated =   228 MB

siesta: Program's energy decomposition (eV):
siesta: Ebs     =     -4184.994669
siesta: Eions   =     19849.732669
siesta: Ena     =      4064.192889
siesta: Ekin    =      8580.195483
siesta: Enl     =     -1059.120020
siesta: DEna    =      -247.522715
siesta: DUscf   =        22.413679
siesta: DUext   =         0.000000
siesta: Exc     =     -4250.542874
siesta: eta*DQ  =         0.000000
siesta: Emadel  =         0.000000
siesta: Emeta   =         0.000000
siesta: Emolmec =         0.000000
siesta: Ekinion =         0.000000
siesta: Eharris =    -12740.116228
siesta: Etot    =    -12740.116227
siesta: FreeEng =    -12740.151897

siesta: Final energy (eV):
siesta:  Band Struct. =   -4184.994669
siesta:       Kinetic =    8580.195483
siesta:       Hartree =   24803.762863
siesta:    Ext. field =       0.000000
siesta:   Exch.-corr. =   -4250.542874
siesta:  Ion-electron =  -57583.712874
siesta:       Ion-ion =   15710.181176
siesta:       Ekinion =       0.000000
siesta:         Total =  -12740.116227

siesta: Atomic forces (eV/Ang):
siesta:      1    0.206160    0.516410    0.000000
siesta:      2   -0.026778    0.413605    0.000000
siesta:      3    0.094168   -0.127483    0.000000
siesta:      4   -0.033509    0.324751    0.000000
siesta:      5    0.010049   -0.513595    0.000000
siesta:      6    0.332473    0.046521    0.000000
siesta:      7    0.323071   -0.090656    0.000000
siesta:      8   -0.004660    0.177091    0.000000
siesta:      9    0.219061    0.071148    0.000000
siesta:     10    0.017594    0.190912    0.000000
siesta:     11    0.657004    0.464854    0.000000
siesta:     12    0.228364   -1.071287    0.000000
siesta:     13    0.615306   -0.256881    0.000000
siesta:     14   -0.381119    0.333485    0.000000
siesta:     15   -0.135471    0.046437    0.000000
siesta:     16    0.263740   -0.227948    0.000000
siesta:     17   -0.230955    0.219854    0.000000
siesta:     18    0.257535    0.135219    0.000000
siesta:     19    0.320148   -0.340061    0.000000
siesta:     20    0.665997    0.316285    0.000000
siesta:     21   -0.830919    0.301644    0.000000
siesta:     22   -0.008532   -0.142778    0.000000
siesta:     23   -0.573574   -0.146216    0.000000
siesta:     24   -0.661972    0.122754    0.000000
siesta:     25   -0.235224    0.501859    0.000000
siesta:     26   -0.114714   -0.542219    0.000000
siesta:     27   -0.100409    0.323798    0.000000
siesta:     28    0.610886    0.426548    0.000000
siesta:     29    0.422237    0.198158    0.000000
siesta:     30   -0.433073    0.191141    0.000000
siesta:     31   -0.514169    0.397028    0.000000
siesta:     32   -0.069295   -0.415732    0.000000
siesta:     33    0.089738    0.351721    0.000000
siesta:     34    0.105915   -0.372376    0.000000
siesta:     35    0.106166   -0.730839    0.000000
siesta:     36   -0.041473   -0.578397    0.000000
siesta:     37   -0.042762   -0.738708    0.000000
siesta:     38   -0.274255    0.233770    0.000000
siesta:     39   -0.026482    0.180617    0.000000
siesta:     40    0.209908    0.235183    0.000000
siesta:     41    0.110416   -0.080991    0.000000
siesta:     42   -0.205075    0.285250    0.000000
siesta:     43    0.037234    0.343255    0.000000
siesta:     44   -0.262993   -0.121550    0.000000
siesta:     45   -0.102637   -0.318054    0.000000
siesta:     46    0.603862   -0.042658    0.000000
siesta:     47   -0.694017   -0.204078    0.000000
siesta:     48    0.379037   -0.215435    0.000000
siesta:     49    0.218393   -0.431196    0.000000
siesta:     50   -0.223166    0.449540    0.000000
siesta:     51   -0.126419   -0.756587    0.000000
siesta:     52    0.130530    0.317192    0.000000
siesta:     53   -0.041902   -0.244806    0.000000
siesta:     54   -0.577423   -0.091869    0.000000
siesta:     55   -0.164633    0.412042    0.000000
siesta:     56   -0.073828    0.357669    0.000000
siesta:     57    0.129232   -0.187857    0.000000
siesta:     58    0.247811   -0.093820    0.000000
siesta:     59   -0.122625   -0.311632    0.000000
siesta:     60   -0.176071   -0.371346    0.000000
siesta:     61   -0.342004    0.107268    0.000000
siesta:     62   -0.093969   -0.118827    0.000000
siesta:     63    0.399482    0.205563    0.000000
siesta:     64    0.063336   -0.277234    0.000000
siesta:     65    0.252274    0.887486    0.000000
siesta:     66    0.057300    0.062459    0.000000
siesta:     67   -0.251577   -0.496786    0.000000
siesta:     68   -0.176037    0.185701    0.000000
siesta:     69   -0.117619   -0.069315    0.000000
siesta:     70    0.203269    0.395864    0.000000
siesta:     71   -0.018819   -0.095174    0.000000
siesta:     72    0.136216   -0.203346    0.000000
siesta: ----------------------------------------
siesta:    Tot    0.213755   -0.297657    0.000000

siesta: Stress tensor (static) (eV/Ang**3):
siesta:     0.000373    0.000067    0.000000
siesta:     0.000067    0.000216    0.000000
siesta:     0.000000    0.000000    0.000090

siesta: Cell volume =       1893.226895 Ang**3

siesta: Pressure (static):
siesta:                Solid            Molecule  Units
siesta:          -0.00000247          0.00000625  Ry/Bohr**3
siesta:          -0.00022638          0.00057364  eV/Ang**3
siesta:          -0.36271006          0.91907938  kBar
(Free)E+ p_basis*V_orbitals  =      -12710.700951
(Free)Eharris+ p_basis*V_orbitals  =      -12710.700705

siesta: Electric dipole (a.u.)  =    0.000000    0.000000    0.000000
siesta: Electric dipole (Debye) =    0.000000    0.000000    0.000000

* Maximum dynamic memory allocated : Node    0 =   228 MB
* Maximum dynamic memory allocated : Node    1 =   143 MB
* Maximum dynamic memory allocated : Node    2 =   144 MB
* Maximum dynamic memory allocated : Node    3 =   217 MB
* Maximum dynamic memory allocated : Node    4 =   223 MB
* Maximum dynamic memory allocated : Node    5 =   139 MB
* Maximum dynamic memory allocated : Node    6 =   140 MB
* Maximum dynamic memory allocated : Node    7 =   217 MB
* Maximum dynamic memory allocated : Node    8 =   225 MB
* Maximum dynamic memory allocated : Node    9 =   139 MB
* Maximum dynamic memory allocated : Node   10 =   140 MB
* Maximum dynamic memory allocated : Node   11 =   218 MB

* Maximum memory occured during cdiag                         

timer: CPU execution times:
timer:  Routine       Calls   Time/call    Tot.time        %
timer:  siesta            1    1319.548    1319.548   100.00
timer:  Setup             1       3.394       3.394     0.26
timer:  bands             1       0.018       0.018     0.00
timer:  writewave         1       0.021       0.021     0.00
timer:  KSV_init          1       0.007       0.007     0.00
timer:  IterMD            1    1309.765    1309.765    99.26
timer:  hsparse           1       0.187       0.187     0.01
timer:  overlap           1       6.035       6.035     0.46
timer:  IterSCF           1    1190.827    1190.827    90.25
timer:  kinefsm           2       3.053       6.105     0.46
timer:  nlefsm            2      18.748      37.495     2.84
timer:  DHSCF             2      82.557     165.115    12.51
timer:  DHSCF1            1       0.899       0.899     0.07
timer:  DHSCF2            1      23.809      23.809     1.80
timer:  REORD            18       0.003       0.045     0.00
timer:  POISON            3       0.477       1.432     0.11
timer:  DHSCF3            2      59.778     119.556     9.06
timer:  rhoofd            2      11.350      22.701     1.72
timer:  cellXC            2       2.483       4.965     0.38
timer:  vmat              2      31.461      62.921     4.77
timer:  MolMec            2       0.000       0.000     0.00
timer:  diagon            1    1066.252    1066.252    80.80
timer:  cdiag            40      17.896     688.744    52.20
timer:  cdiag1           40       0.881      33.921     2.57
timer:  cdiag2           40       3.051     117.423     8.90
timer:  cdiag3           40      13.754     529.319    40.11
timer:  cdiag4           40       0.207       7.957     0.60
timer:  DHSCF4            1      20.800      20.800     1.58
timer:  dfscf             1      19.357      19.357     1.47
timer:  overfsm           1       0.264       0.264     0.02
timer:  optical           1       5.849       5.849     0.44
  

elaps: ELAPSED times:
elaps:  Routine       Calls   Time/call    Tot.time        %
elaps:  siesta            1     110.230     110.230   100.00
elaps:  Setup             1       0.284       0.284     0.26
elaps:  bands             1       0.001       0.001     0.00
elaps:  writewave         1       0.002       0.002     0.00
elaps:  KSV_init          1       0.000       0.000     0.00
elaps:  IterMD            1     109.413     109.413    99.26
elaps:  hsparse           1       0.018       0.018     0.02
elaps:  overlap           1       0.703       0.703     0.64
elaps:  IterSCF           1      99.478      99.478    90.25
elaps:  kinefsm           2       0.357       0.714     0.65
elaps:  nlefsm            2       1.617       3.234     2.93
elaps:  DHSCF             2       7.620      15.239    13.82
elaps:  DHSCF1            1       0.077       0.077     0.07
elaps:  DHSCF2            1       1.988       1.988     1.80
elaps:  REORD            18       0.000       0.006     0.01
elaps:  POISON            3       0.041       0.122     0.11
elaps:  DHSCF3            2       4.993       9.986     9.06
elaps:  rhoofd            2       1.691       3.381     3.07
elaps:  cellXC            2       0.207       0.414     0.38
elaps:  vmat              2       2.628       5.255     4.77
elaps:  MolMec            2       0.000       0.000     0.00
elaps:  diagon            1      89.072      89.072    80.80
elaps:  cdiag            40       1.461      58.440    53.02
elaps:  cdiag1           40       0.071       2.823     2.56
elaps:  cdiag2           40       0.245       9.805     8.89
elaps:  cdiag3           40       1.126      45.047    40.87
elaps:  cdiag4           40       0.019       0.756     0.69
elaps:  DHSCF4            1       3.184       3.184     2.89
elaps:  dfscf             1       2.998       2.998     2.72
elaps:  overfsm           1       0.027       0.027     0.02
elaps:  optical           1       0.000       0.000     0.00
  
>> End of run:   6-APR-2016  14:50:48
