Siesta Version:                                        siesta-3.2-pl-3
Architecture  : x86_64-unknown-linux-gnu--unknown
Compiler flags: mpiifort -g -O2 -fPIC -xSSE4.1 -fp-model source -shared-intel 
PARALLEL version

* Running on   12 nodes in parallel
>> Start of run:   5-MAY-2016  19:53:04

                           ***********************       
                           *  WELCOME TO SIESTA  *       
                           ***********************       

reinit: Reading from standard input
************************** Dump of input data file ****************************
#(1) General system descriptors
SystemName            GRP_doping    # Descriptive name of the system
SystemLabel           GRP_doping    # Short name for naming files
%include STRUCT.fdf
%include KPT.fdf
%include BASIS.fdf
#%include TS.fdf # for transiesta calculation
#(4) DFT, Grid, SCF
XC.functional         GGA           # LDA or GGA (default = LDA)
XC.authors            PBE           # CA (Ceperley-Aldr) = PZ
                                    #    (Perdew-Zunger) - LDA - Default
                                    # PW92 (Perdew-Wang-92) - LDA
                                    # PBE (Perdew-Burke-Ernzerhof) - GGA
MeshCutoff            200.000000    Ry      # Default: 50.0 Ry ~ 0.444 Bohr
                                    #         100.0 Ry ~ 0.314 Bohr
MaxSCFIterations      500           # Default: 50
DM.MixingWeight       0.05          # Default: 0.25
DM.NumberPulay        10            # Default: 0
DM.PulayOnFile        F             # SystemLabel.P1, SystemLabel.P2
DM.Tolerance          1.d-4         # Default: 1.d-4
DM.UseSaveDM          .true.        # because of the bug
SCFMustConverge       .true.
NeglNonOverlapInt     F             # Default: F
#(5) Eigenvalue problem: order-N or diagonalization
SolutionMethod        Diagon        # or Transiesta
ElectronicTemperature 300.0 K       # Default: 300.0 K
#(6) Molecular dynamics and relaxations
#MD.TypeOfRun          CG            # Type of dynamics:
#MD.VariableCell       F
#MD.NumCGsteps         0           # 0 for single-point / 100 for gopt
#MD.MaxCGDispl         0.2 Bohr      # Default: 0.2 Bohr
#MD.MaxForceTol        0.02 eV/Ang   # Default: 0.04 eV/Ang
#MD.MaxStressTol       1.0 GPa       # Default: 1.0 GPa
# Geometry Constraints
#%block GeometryConstraints
#	position from 1 to 44
#%endblock GeometryConstraints
BandLinesScale   pi/a
%block BandLines
 1   0.00000000  0.00000000  0.00000000
50   0.00000000  0.07809418  0.00000000
50   0.04509075  0.07809242  0.00000000
20   0.00000000  0.00000000  0.00000000
%endblock BandLines
************************** End of input data file *****************************

reinit: -----------------------------------------------------------------------
reinit: System Name: GRP_doping
reinit: -----------------------------------------------------------------------
reinit: System Label: GRP_doping                                                  
reinit: -----------------------------------------------------------------------

initatom: Reading input for the pseudopotentials and atomic orbitals ----------
 Species number:            1  Label: N Atomic number:           7
 Species number:            2  Label: C Atomic number:           6
Ground state valence configuration:   2s02  2p03
Reading pseudopotential information in formatted form from N.psf

Valence configuration for pseudopotential generation:
2s( 2.00) rc: 1.48
2p( 3.00) rc: 1.48
3d( 0.00) rc: 1.48
4f( 0.00) rc: 1.48
Ground state valence configuration:   2s02  2p02
Reading pseudopotential information in formatted form from C.psf

Valence configuration for pseudopotential generation:
2s( 2.00) rc: 1.54
2p( 2.00) rc: 1.54
3d( 0.00) rc: 1.54
4f( 0.00) rc: 1.54
For N, standard SIESTA heuristics set lmxkb to 3
 (one more than the basis l, including polarization orbitals).
Use PS.lmax or PS.KBprojectors blocks to override.
For C, standard SIESTA heuristics set lmxkb to 3
 (one more than the basis l, including polarization orbitals).
Use PS.lmax or PS.KBprojectors blocks to override.

<basis_specs>
===============================================================================
N                    Z=   7    Mass=  14.010        Charge= 0.17977+309
Lmxo=1 Lmxkb= 3    BasisType=split      Semic=F
L=0  Nsemic=0  Cnfigmx=2
          n=1  nzeta=2  polorb=0
            splnorm:   0.15000    
               vcte:    0.0000    
               rinn:    0.0000    
                rcs:    0.0000      0.0000    
            lambdas:    1.0000      1.0000    
L=1  Nsemic=0  Cnfigmx=2
          n=1  nzeta=2  polorb=1
            splnorm:   0.15000    
               vcte:    0.0000    
               rinn:    0.0000    
                rcs:    0.0000      0.0000    
            lambdas:    1.0000      1.0000    
-------------------------------------------------------------------------------
L=0  Nkbl=1  erefs: 0.17977+309
L=1  Nkbl=1  erefs: 0.17977+309
L=2  Nkbl=1  erefs: 0.17977+309
L=3  Nkbl=1  erefs: 0.17977+309
===============================================================================
</basis_specs>

atom: Called for N                     (Z =   7)

read_vps: Pseudopotential generation method:
read_vps: ATM3      Troullier-Martins                       
Total valence charge:    5.00000

read_vps: Pseudopotential includes a core correction:
read_vps: Pseudo-core for xc-correction

xc_check: Exchange-correlation functional:
xc_check: GGA Perdew, Burke & Ernzerhof 1996
V l=0 = -2*Zval/r beyond r=  1.4606
V l=1 = -2*Zval/r beyond r=  1.4606
V l=2 = -2*Zval/r beyond r=  1.4606
V l=3 = -2*Zval/r beyond r=  1.4606
All V_l potentials equal beyond r=  1.4606
This should be close to max(r_c) in ps generation
All pots = -2*Zval/r beyond r=  1.4606

VLOCAL1: 99.0% of the norm of Vloc inside     20.347 Ry
VLOCAL1: 99.9% of the norm of Vloc inside     46.372 Ry
atom: Maximum radius for 4*pi*r*r*local-pseudopot. charge    1.76189
atom: Maximum radius for r*vlocal+2*Zval:    1.53550
GHOST: No ghost state for L =  0
GHOST: No ghost state for L =  1
GHOST: No ghost state for L =  2
GHOST: No ghost state for L =  3

KBgen: Kleinman-Bylander projectors: 
   l= 0   rc=  1.634559   el= -1.363963   Ekb=  5.296955   kbcos=  0.335621
   l= 1   rc=  1.614250   el= -0.521451   Ekb= -5.259161   kbcos= -0.433408
   l= 2   rc=  1.718383   el=  0.001991   Ekb= -1.271464   kbcos= -0.007566
   l= 3   rc=  1.761893   el=  0.003093   Ekb= -0.494769   kbcos= -0.001015

KBgen: Total number of  Kleinman-Bylander projectors:   16
atom: -------------------------------------------------------------------------

atom: SANKEY-TYPE ORBITALS:
atom: Selected multiple-zeta basis: split     

SPLIT: Orbitals with angular momentum L= 0

SPLIT: Basis orbitals for state 2s

SPLIT: PAO cut-off radius determined from an
SPLIT: energy shift=  0.007350 Ry

   izeta = 1
                 lambda =    1.000000
                     rc =    4.071465
                 energy =   -1.356470
                kinetic =    1.176977
    potential(screened) =   -2.533447
       potential(ionic) =   -8.057990

   izeta = 2
                 rmatch =    2.905100
              splitnorm =    0.150000
                 energy =   -1.158343
                kinetic =    1.813009
    potential(screened) =   -2.971352
       potential(ionic) =   -8.901931

SPLIT: Orbitals with angular momentum L= 1

SPLIT: Basis orbitals for state 2p

SPLIT: PAO cut-off radius determined from an
SPLIT: energy shift=  0.007350 Ry

   izeta = 1
                 lambda =    1.000000
                     rc =    4.972977
                 energy =   -0.513884
                kinetic =    3.441732
    potential(screened) =   -3.955616
       potential(ionic) =   -9.287901

   izeta = 2
                 rmatch =    3.054066
              splitnorm =    0.150000
                 energy =   -0.318226
                kinetic =    5.125348
    potential(screened) =   -5.443573
       potential(ionic) =  -11.380999

POLgen: Perturbative polarization orbital with L=  2

POLgen: Polarization orbital for state 2p

   izeta = 1
                     rc =    4.972977
                 energy =    1.607437
                kinetic =    3.268125
    potential(screened) =   -1.660688
       potential(ionic) =   -5.973652
atom: Total number of Sankey-type orbitals: 13

atm_pop: Valence configuration (for local Pseudopot. screening):
 2s( 2.00)                                                            
 2p( 3.00)                                                            
Vna: chval, zval:    5.00000   5.00000

Vna:  Cut-off radius for the neutral-atom potential:   4.972977
comcore: Pseudo-core radius Rcore=  1.554824

atom: _________________________________________________________________________

<basis_specs>
===============================================================================
C                    Z=   6    Mass=  12.010        Charge= 0.17977+309
Lmxo=1 Lmxkb= 3    BasisType=split      Semic=F
L=0  Nsemic=0  Cnfigmx=2
          n=1  nzeta=2  polorb=0
            splnorm:   0.15000    
               vcte:    0.0000    
               rinn:    0.0000    
                rcs:    0.0000      0.0000    
            lambdas:    1.0000      1.0000    
L=1  Nsemic=0  Cnfigmx=2
          n=1  nzeta=2  polorb=1
            splnorm:   0.15000    
               vcte:    0.0000    
               rinn:    0.0000    
                rcs:    0.0000      0.0000    
            lambdas:    1.0000      1.0000    
-------------------------------------------------------------------------------
L=0  Nkbl=1  erefs: 0.17977+309
L=1  Nkbl=1  erefs: 0.17977+309
L=2  Nkbl=1  erefs: 0.17977+309
L=3  Nkbl=1  erefs: 0.17977+309
===============================================================================
</basis_specs>

atom: Called for C                     (Z =   6)

read_vps: Pseudopotential generation method:
read_vps: ATM3      Troullier-Martins                       
Total valence charge:    4.00000

read_vps: Pseudopotential includes a core correction:
read_vps: Pseudo-core for xc-correction

xc_check: Exchange-correlation functional:
xc_check: GGA Perdew, Burke & Ernzerhof 1996
V l=0 = -2*Zval/r beyond r=  1.5227
V l=1 = -2*Zval/r beyond r=  1.5227
V l=2 = -2*Zval/r beyond r=  1.5227
V l=3 = -2*Zval/r beyond r=  1.5038
All V_l potentials equal beyond r=  1.5227
This should be close to max(r_c) in ps generation
All pots = -2*Zval/r beyond r=  1.5227

VLOCAL1: 99.0% of the norm of Vloc inside     18.722 Ry
VLOCAL1: 99.9% of the norm of Vloc inside     42.668 Ry
atom: Maximum radius for 4*pi*r*r*local-pseudopot. charge    1.83678
atom: Maximum radius for r*vlocal+2*Zval:    1.58088
GHOST: No ghost state for L =  0
GHOST: No ghost state for L =  1
GHOST: No ghost state for L =  2
GHOST: No ghost state for L =  3

KBgen: Kleinman-Bylander projectors: 
   l= 0   rc=  1.704034   el= -1.009801   Ekb=  5.335044   kbcos=  0.316824
   l= 1   rc=  1.704034   el= -0.388707   Ekb= -3.785862   kbcos= -0.366464
   l= 2   rc=  1.791422   el=  0.001971   Ekb= -0.970471   kbcos= -0.009212
   l= 3   rc=  1.859892   el=  0.003065   Ekb= -0.399525   kbcos= -0.001223

KBgen: Total number of  Kleinman-Bylander projectors:   16
atom: -------------------------------------------------------------------------

atom: SANKEY-TYPE ORBITALS:
atom: Selected multiple-zeta basis: split     

SPLIT: Orbitals with angular momentum L= 0

SPLIT: Basis orbitals for state 2s

SPLIT: PAO cut-off radius determined from an
SPLIT: energy shift=  0.007350 Ry

   izeta = 1
                 lambda =    1.000000
                     rc =    4.632753
                 energy =   -1.002270
                kinetic =    0.855760
    potential(screened) =   -1.858031
       potential(ionic) =   -5.417575

   izeta = 2
                 rmatch =    3.431921
              splitnorm =    0.150000
                 energy =   -0.867111
                kinetic =    1.300804
    potential(screened) =   -2.167915
       potential(ionic) =   -5.962684

SPLIT: Orbitals with angular momentum L= 1

SPLIT: Basis orbitals for state 2p

SPLIT: PAO cut-off radius determined from an
SPLIT: energy shift=  0.007350 Ry

   izeta = 1
                 lambda =    1.000000
                     rc =    5.658549
                 energy =   -0.381140
                kinetic =    2.399701
    potential(screened) =   -2.780841
       potential(ionic) =   -6.206085

   izeta = 2
                 rmatch =    3.653288
              splitnorm =    0.150000
                 energy =   -0.249149
                kinetic =    3.542762
    potential(screened) =   -3.791911
       potential(ionic) =   -7.581078

POLgen: Perturbative polarization orbital with L=  2

POLgen: Polarization orbital for state 2p

   izeta = 1
                     rc =    5.658549
                 energy =    1.109913
                kinetic =    2.304789
    potential(screened) =   -1.194876
       potential(ionic) =   -4.013592
atom: Total number of Sankey-type orbitals: 13

atm_pop: Valence configuration (for local Pseudopot. screening):
 2s( 2.00)                                                            
 2p( 2.00)                                                            
Vna: chval, zval:    4.00000   4.00000

Vna:  Cut-off radius for the neutral-atom potential:   5.658549
comcore: Pseudo-core radius Rcore=  1.791422

atom: _________________________________________________________________________

prinput: Basis input ----------------------------------------------------------

PAO.BasisType split     

%block ChemicalSpeciesLabel
    1    7 N                       # Species index, atomic number, species label
    2    6 C                       # Species index, atomic number, species label
%endblock ChemicalSpeciesLabel

%block PAO.Basis                 # Define Basis set
N                     2                    # Species label, number of l-shells
 n=2   0   2                         # n, l, Nzeta 
   4.071      2.905   
   1.000      1.000   
 n=2   1   2 P   1                   # n, l, Nzeta, Polarization, NzetaPol
   4.973      3.054   
   1.000      1.000   
C                     2                    # Species label, number of l-shells
 n=2   0   2                         # n, l, Nzeta 
   4.633      3.432   
   1.000      1.000   
 n=2   1   2 P   1                   # n, l, Nzeta, Polarization, NzetaPol
   5.659      3.653   
   1.000      1.000   
%endblock PAO.Basis

prinput: ----------------------------------------------------------------------

coor:   Atomic-coordinates input format  =     Fractional

siesta: Atomic coordinates (Bohr) and species
siesta:      6.95932  30.82560   0.00000  1        1
siesta:      6.95932  17.38257   0.00000  1        2
siesta:     -0.02582  10.66124   0.00000  1        3
siesta:     -0.02582  13.34970   0.00000  1        4
siesta:      4.63094  18.72698   0.00000  1        5
siesta:     -0.02582  21.41544   0.00000  1        6
siesta:      2.30256  22.75985   0.00000  1        7
siesta:     -7.01096  25.44831   0.00000  1        8
siesta:    -11.66772  22.75985   0.00000  1        9
siesta:    -11.66772  25.44831   0.00000  1       10
siesta:     -9.33934  26.79272   0.00000  1       11
siesta:     -9.33934  29.48119   0.00000  1       12
siesta:      4.63094  29.48119   0.00000  1       13
siesta:     -4.68258  26.79272   0.00000  1       14
siesta:     -4.68258  29.48119   0.00000  1       15
siesta:     -7.01096  30.82560   0.00000  1       16
siesta:     -0.02582   2.59549   0.00000  2       17
siesta:     -0.02582   5.28395   0.00000  2       18
siesta:     -2.35420  38.89134   0.00000  2       19
siesta:     -2.35420  41.57980   0.00000  2       20
siesta:      2.30256  38.89134   0.00000  2       21
siesta:      2.30256  41.57980   0.00000  2       22
siesta:      4.63094  34.85847   0.00000  2       23
siesta:      4.63094  37.54693   0.00000  2       24
siesta:      6.95932  33.51406   0.00000  2       25
siesta:      9.28770  26.79272   0.00000  2       26
siesta:      9.28770  29.48119   0.00000  2       27
siesta:     -4.68258  34.85847   0.00000  2       28
siesta:     -4.68258  37.54693   0.00000  2       29
siesta:      2.30256   6.62836   0.00000  2       30
siesta:      2.30256   9.31683   0.00000  2       31
siesta:      4.63094  10.66124   0.00000  2       32
siesta:      4.63094  13.34970   0.00000  2       33
siesta:      6.95932  14.69411   0.00000  2       34
siesta:      9.28770  18.72698   0.00000  2       35
siesta:      9.28770  21.41544   0.00000  2       36
siesta:     11.61608  22.75985   0.00000  2       37
siesta:     11.61608  25.44831   0.00000  2       38
siesta:     -2.35420   6.62836   0.00000  2       39
siesta:     -2.35420   9.31683   0.00000  2       40
siesta:      2.30256  14.69411   0.00000  2       41
siesta:      2.30256  17.38257   0.00000  2       42
siesta:      4.63094  21.41544   0.00000  2       43
siesta:      6.95932  22.75985   0.00000  2       44
siesta:      6.95932  25.44831   0.00000  2       45
siesta:     -4.68258  10.66124   0.00000  2       46
siesta:     -4.68258  13.34970   0.00000  2       47
siesta:     -2.35420  14.69411   0.00000  2       48
siesta:     -2.35420  17.38257   0.00000  2       49
siesta:     -0.02582  18.72698   0.00000  2       50
siesta:      2.30256  25.44831   0.00000  2       51
siesta:     -7.01096  14.69411   0.00000  2       52
siesta:     -7.01096  17.38257   0.00000  2       53
siesta:     -4.68258  18.72698   0.00000  2       54
siesta:     -4.68258  21.41544   0.00000  2       55
siesta:     -2.35420  22.75985   0.00000  2       56
siesta:     -2.35420  25.44831   0.00000  2       57
siesta:     -9.33934  18.72698   0.00000  2       58
siesta:     -9.33934  21.41544   0.00000  2       59
siesta:     -7.01096  22.75985   0.00000  2       60
siesta:      4.63094  26.79272   0.00000  2       61
siesta:     -0.02582  26.79272   0.00000  2       62
siesta:     -0.02582  29.48119   0.00000  2       63
siesta:      2.30256  30.82560   0.00000  2       64
siesta:      2.30256  33.51406   0.00000  2       65
siesta:     -2.35420  30.82560   0.00000  2       66
siesta:     -2.35420  33.51406   0.00000  2       67
siesta:     -7.01096  33.51406   0.00000  2       68
siesta:     -0.02582  34.85847   0.00000  2       69
siesta:     -0.02582  37.54693   0.00000  2       70
siesta:     -0.02582  42.92421   0.00000  2       71
siesta:     -0.02582  45.61267   0.00000  2       72

siesta: System type = slab      

initatomlists: Number of atoms, orbitals, and projectors:     72   936  1152

siesta: ******************** Simulation parameters ****************************
siesta:
siesta: The following are some of the parameters of the simulation.
siesta: A complete list of the parameters used, including default values,
siesta: can be found in file out.fdf
siesta:
redata: Non-Collinear-spin run           =     F
redata: SpinPolarized (Up/Down) run      =     F
redata: Number of spin components        =     1
redata: Long output                      =     F
redata: Number of Atomic Species         =        2
redata: Charge density info will appear in .RHO file
redata: Write Mulliken Pop.              =     NO
redata: Mesh Cutoff                      =   200.0000  Ry
redata: Net charge of the system         =     0.0000 |e|
redata: Max. number of SCF Iter          =      500
redata: SCF convergence failure will abort job
redata: Performing Pulay mixing using    =    10 iterations
redata: Mix DM in first SCF step ?       =     F
redata: Write Pulay info on disk?        =     F
redata: Discard 1st Pulay DM after  kick =     F
redata: New DM Mixing Weight             =     0.0500
redata: New DM Occupancy tolerance       = 0.000000000001
redata: No kicks to SCF
redata: DM Mixing Weight for Kicks       =     0.5000
redata: DM Tolerance for SCF             =     0.000100
redata: Require Energy convergence for SCF =     F
redata: DM Energy tolerance for SCF      =     0.000100 eV
redata: Require Harris convergence for SCF =     F
redata: DM Harris energy tolerance for SCF =     0.000100 eV
redata: Using Saved Data (generic)   =     F
redata: Use continuation files for DM    =     T
redata: Neglect nonoverlap interactions  =     F
redata: Method of Calculation            =     Diagonalization
redata: Divide and Conquer               =     T
redata: Electronic Temperature           =     0.0019  Ry
redata: Fix the spin of the system       =     F
redata: Dynamics option                  =     Verlet MD run
redata: Initial MD time step             =        1
redata:   Final MD time step             =        1
redata: Length of MD time step           =     1.0000  fs
redata: Initial Temperature of MD run    =     0.0000  K
redata: Perform a MD quench              =     F
redata: ***********************************************************************
Total number of electrons:   304.000000
Total ionic charge:   304.000000

* ProcessorY, Blocksize:    3  24

k-point displ. along   1 input, could be:     0.50    0.00
k-point displ. along   2 input, could be:     0.50    0.00
 Kpoints in:          231 . Kpoints trimmed:          231

siesta: k-grid: Number of k-points =   231
siesta: k-grid: Cutoff (effective) =     5.000 Ang
siesta: k-grid: Supercell and displacements
siesta: k-grid:   21   0   0      0.500
siesta: k-grid:    0  21   0      0.500
siesta: k-grid:    0   0   1      0.000
Naive supercell factors:     2    2    2

superc: Internal auxiliary supercell:     2 x     2 x     2  =       8
superc: Number of atoms, orbitals, and projectors:    576   7488   9216

* Maximum dynamic memory allocated =     4 MB

siesta:                 ==============================
                            Begin MD step =      1
                        ==============================

superc: Internal auxiliary supercell:     2 x     2 x     2  =       8
superc: Number of atoms, orbitals, and projectors:    576   7488   9216

outcell: Unit cell vectors (Ang):
       12.804619    7.392750    0.000000
        0.000000   14.785500    0.000000
        0.000000    0.000000   10.000000

outcell: Cell vector modules (Ang)   :   14.785500   14.785500   10.000000
outcell: Cell angles (23,13,12) (deg):     90.0000     90.0000     60.0000
outcell: Cell volume (Ang**3)        :   1893.2269
New_DM. Step:     1
Initializing Density Matrix...

InitMesh: MESH =   120 x   120 x    90 =     1296000
InitMesh: Mesh cutoff (required, used) =   200.000   223.865 Ry

* Maximum dynamic memory allocated =   132 MB

stepf: Fermi-Dirac step function

siesta: Program's energy decomposition (eV):
siesta: Ebs     =     -6143.128776
siesta: Eions   =     20974.960578
siesta: Ena     =      4874.304035
siesta: Ekin    =      7720.939539
siesta: Enl     =       175.416172
siesta: DEna    =        -0.000015
siesta: DUscf   =         0.000000
siesta: DUext   =         0.000000
siesta: Exc     =     -4564.574759
siesta: eta*DQ  =         0.000000
siesta: Emadel  =         0.000000
siesta: Emeta   =         0.000000
siesta: Emolmec =         0.000000
siesta: Ekinion =         0.000000
siesta: Eharris =    -12426.679074
siesta: Etot    =    -12768.875606
siesta: FreeEng =    -12768.875606

siesta: iscf   Eharris(eV)      E_KS(eV)   FreeEng(eV)   dDmax  Ef(eV)
siesta:    1   -12426.6791   -12768.8756   -12768.8756  8.6160 -7.0088
timer: Routine,Calls,Time,% = IterSCF        1    2998.355  99.59
elaps: Routine,Calls,Wall,% = IterSCF        1     250.456  99.59
siesta:    2   -17284.9984   -11730.5145   -11730.5676 10.8222 -4.5954
siesta:    3   -12422.2545   -12500.5064   -12500.5083  2.1169 -4.2102
siesta:    4   -12330.7242   -12429.6269   -12429.6271  1.4381 -3.9736
siesta:    5   -12301.3987   -12377.4516   -12377.4952  0.9047 -3.5533
siesta:    6   -12287.8166   -12352.2467   -12352.3187  0.7948 -3.6419
siesta:    7   -12279.2925   -12337.5327   -12337.5363  0.8348 -3.6007
siesta:    8   -12268.9885   -12304.1725   -12304.1944  0.5021 -3.9134
siesta:    9   -12267.3618   -12292.3599   -12292.3671  0.3997 -3.9003
siesta:   10   -12266.5184   -12286.8405   -12286.8567  0.3606 -3.8966
siesta:   11   -12267.0529   -12272.1047   -12272.1472  0.4017 -3.7580
siesta:   12   -12266.2340   -12266.0197   -12266.0389  0.3608 -3.7970
siesta:   13   -12265.4942   -12262.8611   -12262.9206  0.2845 -3.8036
siesta:   14   -12266.1466   -12263.5200   -12263.5879  0.3122 -3.6920
siesta:   15   -12265.6958   -12263.1813   -12263.1980  0.2066 -3.7477
siesta:   16   -12265.3328   -12263.3341   -12263.3979  0.1447 -3.7792
siesta:   17   -12264.8845   -12263.8189   -12263.8931  0.0660 -3.8408
siesta:   18   -12264.7992   -12263.4670   -12263.5419  0.0468 -3.8378
siesta:   19   -12264.8181   -12263.1026   -12263.1787  0.1421 -3.8475
siesta:   20   -12264.7940   -12262.3633   -12262.4310  0.0689 -3.8393
siesta:   21   -12264.8090   -12263.2751   -12263.3390  0.0988 -3.8218
siesta:   22   -12264.7850   -12263.8061   -12263.8725  0.0625 -3.8300
siesta:   23   -12264.7808   -12264.3962   -12264.4635  0.0455 -3.8280
siesta:   24   -12264.7705   -12264.7632   -12264.8308  0.0243 -3.8255
siesta:   25   -12264.7647   -12264.7621   -12264.8322  0.0302 -3.8255
siesta:   26   -12264.7637   -12264.8149   -12264.8858  0.0253 -3.8245
siesta:   27   -12264.7616   -12264.7910   -12264.8623  0.0119 -3.8233
siesta:   28   -12264.7622   -12264.6291   -12264.7018  0.0167 -3.8245
siesta:   29   -12264.7608   -12264.6582   -12264.7301  0.0030 -3.8266
siesta:   30   -12264.7611   -12264.6721   -12264.7450  0.0051 -3.8274
siesta:   31   -12264.7608   -12264.7164   -12264.7889  0.0019 -3.8275
siesta:   32   -12264.7608   -12264.7258   -12264.7985  0.0018 -3.8277
siesta:   33   -12264.7608   -12264.7347   -12264.8073  0.0012 -3.8280
siesta:   34   -12264.7609   -12264.7459   -12264.8185  0.0010 -3.8281
siesta:   35   -12264.7609   -12264.7554   -12264.8280  0.0008 -3.8280
siesta:   36   -12264.7608   -12264.7751   -12264.8476  0.0005 -3.8281
siesta:   37   -12264.7608   -12264.7745   -12264.8471  0.0004 -3.8279
siesta:   38   -12264.7608   -12264.7657   -12264.8383  0.0004 -3.8278
siesta:   39   -12264.7608   -12264.7546   -12264.8272  0.0003 -3.8278
siesta:   40   -12264.7608   -12264.7518   -12264.8244  0.0003 -3.8278
siesta:   41   -12264.7608   -12264.7533   -12264.8259  0.0003 -3.8277
siesta:   42   -12264.7608   -12264.7565   -12264.8291  0.0001 -3.8277
siesta:   43   -12264.7608   -12264.7590   -12264.8316  0.0001 -3.8277

siesta: E_KS(eV) =           -12264.7590

siesta: E_KS - E_eggbox =    -12264.7590

siesta: Atomic forces (eV/Ang):
----------------------------------------
   Tot   -0.460296    0.050042    0.000000
----------------------------------------
   Max  662.769283
   Res  165.526666    sqrt( Sum f_i^2 / 3N )
----------------------------------------
   Max  662.769283    constrained

Stress-tensor-Voigt (kbar):     -668.92    -2892.70       -0.02        3.06        0.00        0.00
(Free)E + p*V (eV/cell)   -10861.9622
Target enthalpy (eV/cell)   -12264.8316

siesta: Stress tensor (static) (eV/Ang**3):
        -0.417504    0.001911    0.000000
         0.001911   -1.805464    0.000000
         0.000000    0.000000   -0.000013

siesta: Pressure (static):       1187.21573968  kBar

siesta: Stress tensor (total) (eV/Ang**3):
        -0.417504    0.001911    0.000000
         0.001911   -1.805464    0.000000
         0.000000    0.000000   -0.000013

siesta: Pressure (total):       1187.21573968  kBar

siesta: Temp_ion =       0.000 K

* Maximum dynamic memory allocated =   144 MB
Computing bands...

siesta: Program's energy decomposition (eV):
siesta: Ebs     =     -4952.343996
siesta: Eions   =     20974.960578
siesta: Ena     =      4874.304035
siesta: Ekin    =     10684.553265
siesta: Enl     =     -1479.807315
siesta: DEna    =      -744.210761
siesta: DUscf   =       102.682639
siesta: DUext   =         0.000000
siesta: Exc     =     -4727.320273
siesta: eta*DQ  =         0.000000
siesta: Emadel  =         0.000000
siesta: Emeta   =         0.000000
siesta: Emolmec =         0.000000
siesta: Ekinion =         0.000000
siesta: Eharris =    -12264.760835
siesta: Etot    =    -12264.758988
siesta: FreeEng =    -12264.831559

siesta: Final energy (eV):
siesta:  Band Struct. =   -4952.343996
siesta:       Kinetic =   10684.553265
siesta:       Hartree =   34131.485992
siesta:    Ext. field =       0.000000
siesta:   Exch.-corr. =   -4727.320273
siesta:  Ion-electron =  -78528.753013
siesta:       Ion-ion =   26175.275041
siesta:       Ekinion =       0.000000
siesta:         Total =  -12264.758988

siesta: Atomic forces (eV/Ang):
siesta:      1    2.785842    1.121208    0.000000
siesta:      2    3.678157   -1.445629    0.000000
siesta:      3    0.862039  653.368902    0.000000
siesta:      4   -0.169973 -111.934429    0.000000
siesta:      5   -3.784325    5.395120    0.000000
siesta:      6    0.222141   -1.181778    0.000000
siesta:      7    1.806228   -0.661830    0.000000
siesta:      8    0.074728   -0.973722    0.000000
siesta:      9    0.900746    3.957756    0.000000
siesta:     10    0.606995   -3.256335    0.000000
siesta:     11    1.660270    1.430116    0.000000
siesta:     12   -0.409571   -0.990434    0.000000
siesta:     13   -2.765439   -3.880367    0.000000
siesta:     14   -0.088539   -0.429494    0.000000
siesta:     15    0.401581   -2.956559    0.000000
siesta:     16    0.179823    0.862613    0.000000
siesta:     17   -0.153949  548.035133    0.000000
siesta:     18   -0.912558 -127.132217    0.000000
siesta:     19    1.233399  124.769697    0.000000
siesta:     20    1.739421 -548.087637    0.000000
siesta:     21   -1.796819  124.043155    0.000000
siesta:     22    0.131114 -548.188251    0.000000
siesta:     23   25.594589    6.703037    0.000000
siesta:     24   33.417020 -551.419420    0.000000
siesta:     25   -1.858541   -1.152049    0.000000
siesta:     26    1.098309    1.886874    0.000000
siesta:     27   -1.596599    2.001149    0.000000
siesta:     28  -25.603541    7.364870    0.000000
siesta:     29  -33.904780 -551.315723    0.000000
siesta:     30   16.024498  548.749510    0.000000
siesta:     31   -0.034790 -128.264613    0.000000
siesta:     32   32.856753  551.355698    0.000000
siesta:     33   26.337889   -6.481846    0.000000
siesta:     34   -2.087832    1.233552    0.000000
siesta:     35   -1.330176   -1.753443    0.000000
siesta:     36    1.036144   -2.159259    0.000000
siesta:     37   -0.303762    6.537775    0.000000
siesta:     38   -0.221055   -6.709179    0.000000
siesta:     39  -17.433522  549.124835    0.000000
siesta:     40    0.566737 -128.038903    0.000000
siesta:     41   22.874396  561.881784    0.000000
siesta:     42   24.507851   -6.659033    0.000000
siesta:     43   -0.578701   -1.263708    0.000000
siesta:     44   -0.966133    1.105904    0.000000
siesta:     45   -0.366856   -0.557534    0.000000
siesta:     46  -32.439336  550.858073    0.000000
siesta:     47  -27.360866   -6.468208    0.000000
siesta:     48  -24.279185  560.988934    0.000000
siesta:     49  -24.220392   -5.928074    0.000000
siesta:     50   -0.119271  565.175962    0.000000
siesta:     51    0.364197    0.296463    0.000000
siesta:     52    2.585951   -1.613420    0.000000
siesta:     53   -1.687392   -0.068525    0.000000
siesta:     54    1.158886    2.719948    0.000000
siesta:     55   -0.019388    0.050677    0.000000
siesta:     56   -0.683867    1.638280    0.000000
siesta:     57   -0.310181   -0.460088    0.000000
siesta:     58    0.344094    0.456043    0.000000
siesta:     59   -1.246936    0.382812    0.000000
siesta:     60    0.384854    0.682205    0.000000
siesta:     61   -0.168927    0.158795    0.000000
siesta:     62   -0.925490    0.082688    0.000000
siesta:     63    0.115097 -568.431043    0.000000
siesta:     64   23.210488    6.911993    0.000000
siesta:     65   19.648824 -558.882145    0.000000
siesta:     66  -22.318368    7.350360    0.000000
siesta:     67  -17.162683 -559.834585    0.000000
siesta:     68    1.424565   -2.006634    0.000000
siesta:     69   -0.269112  123.214969    0.000000
siesta:     70   -1.439891 -662.769283    0.000000
siesta:     71    0.267888  127.140712    0.000000
siesta:     72    0.456939 -545.632162    0.000000
siesta: ----------------------------------------
siesta:    Tot   -0.460296    0.050042    0.000000

siesta: Stress tensor (static) (eV/Ang**3):
siesta:    -0.417504    0.001911    0.000000
siesta:     0.001911   -1.805464    0.000000
siesta:     0.000000    0.000000   -0.000013

siesta: Cell volume =       1893.226884 Ang**3

siesta: Pressure (static):
siesta:                Solid            Molecule  Units
siesta:           0.00807037          0.12954828  Ry/Bohr**3
siesta:           0.74099377         11.89468234  eV/Ang**3
siesta:        1187.21573968      19057.58810421  kBar
(Free)E+ p_basis*V_orbitals  =      -12236.381359
(Free)Eharris+ p_basis*V_orbitals  =      -12236.383180

siesta: Electric dipole (a.u.)  =    0.000000    0.000000    0.000000
siesta: Electric dipole (Debye) =    0.000000    0.000000    0.000000

* Maximum dynamic memory allocated : Node    0 =   144 MB
* Maximum dynamic memory allocated : Node    1 =    58 MB
* Maximum dynamic memory allocated : Node    2 =    60 MB
* Maximum dynamic memory allocated : Node    3 =   133 MB
* Maximum dynamic memory allocated : Node    4 =   144 MB
* Maximum dynamic memory allocated : Node    5 =    53 MB
* Maximum dynamic memory allocated : Node    6 =    55 MB
* Maximum dynamic memory allocated : Node    7 =   136 MB
* Maximum dynamic memory allocated : Node    8 =   129 MB
* Maximum dynamic memory allocated : Node    9 =    54 MB
* Maximum dynamic memory allocated : Node   10 =    55 MB
* Maximum dynamic memory allocated : Node   11 =   124 MB

* Maximum memory occured during matrixMtoO                    

timer: CPU execution times:
timer:  Routine       Calls   Time/call    Tot.time        %
timer:  siesta            1  126283.383  126283.383   100.00
timer:  Setup             1       3.474       3.474     0.00
timer:  bands             3     226.110     678.331     0.54
timer:  writewave         1       0.023       0.023     0.00
timer:  KSV_init          1       0.003       0.003     0.00
timer:  IterMD            1  125594.638  125594.638    99.45
timer:  hsparse           1       0.168       0.168     0.00
timer:  overlap           1       7.369       7.369     0.01
timer:  IterSCF          43    2917.943  125471.540    99.36
timer:  kinefsm           2       3.729       7.457     0.01
timer:  nlefsm            2      18.141      36.282     0.03
timer:  DHSCF            44      64.751    2849.061     2.26
timer:  DHSCF1            1       0.907       0.907     0.00
timer:  DHSCF2            1      24.713      24.713     0.02
timer:  REORD           354       0.002       0.833     0.00
timer:  POISON           45       0.450      20.251     0.02
timer:  DHSCF3           44      63.690    2802.357     2.22
timer:  rhoofd           44      12.580     553.533     0.44
timer:  cellXC           44       2.435     107.150     0.08
timer:  vmat             44      29.292    1288.844     1.02
timer:  MolMec            2       0.000       0.000     0.00
timer:  diagon           43    2851.957  122634.157    97.11
timer:  c-eigval      10054       5.583   56131.071    44.45
timer:  c-buildHS     10054       0.032     324.864     0.26
timer:  cdiag         19987       5.678  113490.202    89.87
timer:  cdiag1        19987       0.260    5201.176     4.12
timer:  cdiag2        19987       1.833   36637.591    29.01
timer:  cdiag3        19987       3.382   67599.125    53.53
timer:  cdiag4        19987       0.088    1767.281     1.40
timer:  c-eigvec       9933       5.834   57951.124    45.89
timer:  c-buildD       9933       0.924    9176.153     7.27
timer:  DHSCF4            1      20.773      20.773     0.02
timer:  dfscf             1      19.355      19.355     0.02
timer:  overfsm           1       0.280       0.280     0.00
timer:  optical           1       6.337       6.337     0.01
  

elaps: ELAPSED times:
elaps:  Routine       Calls   Time/call    Tot.time        %
elaps:  siesta            1   10548.301   10548.301   100.00
elaps:  Setup             1       0.289       0.289     0.00
elaps:  bands             3      18.902      56.707     0.54
elaps:  writewave         1       0.002       0.002     0.00
elaps:  KSV_init          1       0.000       0.000     0.00
elaps:  IterMD            1   10490.772   10490.772    99.45
elaps:  hsparse           1       0.016       0.016     0.00
elaps:  overlap           1       0.711       0.711     0.01
elaps:  IterSCF          43     243.732   10480.490    99.36
elaps:  kinefsm           2       0.362       0.724     0.01
elaps:  nlefsm            2       1.575       3.150     0.03
elaps:  DHSCF            44       5.447     239.658     2.27
elaps:  DHSCF1            1       0.077       0.077     0.00
elaps:  DHSCF2            1       2.063       2.063     0.02
elaps:  REORD           354       0.000       0.107     0.00
elaps:  POISON           45       0.038       1.706     0.02
elaps:  DHSCF3           44       5.321     234.115     2.22
elaps:  rhoofd           44       2.160      95.047     0.90
elaps:  cellXC           44       0.203       8.929     0.08
elaps:  vmat             44       2.447     107.689     1.02
elaps:  MolMec            2       0.000       0.000     0.00
elaps:  diagon           43     238.225   10243.683    97.11
elaps:  c-eigval      10054       0.466    4688.512    44.45
elaps:  c-buildHS     10054       0.003      33.734     0.32
elaps:  cdiag         19987       0.471    9407.846    89.19
elaps:  cdiag1        19987       0.021     425.349     4.03
elaps:  cdiag2        19987       0.153    3063.022    29.04
elaps:  cdiag3        19987       0.283    5654.574    53.61
elaps:  cdiag4        19987       0.007     142.085     1.35
elaps:  c-eigvec       9933       0.481    4781.570    45.33
elaps:  c-buildD       9933       0.083     825.006     7.82
elaps:  DHSCF4            1       3.360       3.360     0.03
elaps:  dfscf             1       3.174       3.174     0.03
elaps:  overfsm           1       0.029       0.029     0.00
elaps:  optical           1       0.000       0.000     0.00
  
>> End of run:   5-MAY-2016  22:48:52
