Siesta Version:                                        siesta-3.2-pl-3
Architecture  : x86_64-unknown-linux-gnu--unknown
Compiler flags: mpiifort -g -O2 -fPIC -xSSE4.1 -fp-model source -shared-intel 
PARALLEL version

* Running on    8 nodes in parallel
>> Start of run:  26-APR-2016  14:46:59

                           ***********************       
                           *  WELCOME TO SIESTA  *       
                           ***********************       

reinit: Reading from standard input
************************** Dump of input data file ****************************
#(1) General system descriptors
SystemName            GRP_doping    # Descriptive name of the system
SystemLabel           GRP_doping    # Short name for naming files
%include STRUCT.fdf
%include KPT.fdf
%include BASIS.fdf
#%include TS.fdf # for transiesta calculation
#(4) DFT, Grid, SCF
XC.functional         GGA           # LDA or GGA (default = LDA)
XC.authors            PBE           # CA (Ceperley-Aldr) = PZ
                                    #    (Perdew-Zunger) - LDA - Default
                                    # PW92 (Perdew-Wang-92) - LDA
                                    # PBE (Perdew-Burke-Ernzerhof) - GGA
MeshCutoff            200.000000    Ry      # Default: 50.0 Ry ~ 0.444 Bohr
                                    #         100.0 Ry ~ 0.314 Bohr
MaxSCFIterations      500           # Default: 50
DM.MixingWeight       0.05          # Default: 0.25
DM.NumberPulay        10            # Default: 0
DM.PulayOnFile        F             # SystemLabel.P1, SystemLabel.P2
DM.Tolerance          1.d-4         # Default: 1.d-4
DM.UseSaveDM          .true.        # because of the bug
SCFMustConverge       .true.
NeglNonOverlapInt     F             # Default: F
#(5) Eigenvalue problem: order-N or diagonalization
SolutionMethod        Diagon        # or Transiesta
ElectronicTemperature 300.0 K       # Default: 300.0 K
#(6) Molecular dynamics and relaxations
#MD.TypeOfRun          CG            # Type of dynamics:
#MD.VariableCell       F
#MD.NumCGsteps         0           # 0 for single-point / 100 for gopt
#MD.MaxCGDispl         0.2 Bohr      # Default: 0.2 Bohr
#MD.MaxForceTol        0.02 eV/Ang   # Default: 0.04 eV/Ang
#MD.MaxStressTol       1.0 GPa       # Default: 1.0 GPa
# Geometry Constraints
#%block GeometryConstraints
#	position from 1 to 44
#%endblock GeometryConstraints
BandLinesScale   pi/a
%block BandLines
 1   0.00000000  0.00000000  0.00000000
50   0.00000000  0.07809418  0.00000000
50   0.04509075  0.07809242  0.00000000
20   0.00000000  0.00000000  0.00000000
%endblock BandLines
************************** End of input data file *****************************

reinit: -----------------------------------------------------------------------
reinit: System Name: GRP_doping
reinit: -----------------------------------------------------------------------
reinit: System Label: GRP_doping                                                  
reinit: -----------------------------------------------------------------------

initatom: Reading input for the pseudopotentials and atomic orbitals ----------
 Species number:            1  Label: N Atomic number:           7
 Species number:            2  Label: C Atomic number:           6
Ground state valence configuration:   2s02  2p03
Reading pseudopotential information in formatted form from N.psf

Valence configuration for pseudopotential generation:
2s( 2.00) rc: 1.48
2p( 3.00) rc: 1.48
3d( 0.00) rc: 1.48
4f( 0.00) rc: 1.48
Ground state valence configuration:   2s02  2p02
Reading pseudopotential information in formatted form from C.psf

Valence configuration for pseudopotential generation:
2s( 2.00) rc: 1.54
2p( 2.00) rc: 1.54
3d( 0.00) rc: 1.54
4f( 0.00) rc: 1.54
For N, standard SIESTA heuristics set lmxkb to 3
 (one more than the basis l, including polarization orbitals).
Use PS.lmax or PS.KBprojectors blocks to override.
For C, standard SIESTA heuristics set lmxkb to 3
 (one more than the basis l, including polarization orbitals).
Use PS.lmax or PS.KBprojectors blocks to override.

<basis_specs>
===============================================================================
N                    Z=   7    Mass=  14.010        Charge= 0.17977+309
Lmxo=1 Lmxkb= 3    BasisType=split      Semic=F
L=0  Nsemic=0  Cnfigmx=2
          n=1  nzeta=2  polorb=0
            splnorm:   0.15000    
               vcte:    0.0000    
               rinn:    0.0000    
                rcs:    0.0000      0.0000    
            lambdas:    1.0000      1.0000    
L=1  Nsemic=0  Cnfigmx=2
          n=1  nzeta=2  polorb=1
            splnorm:   0.15000    
               vcte:    0.0000    
               rinn:    0.0000    
                rcs:    0.0000      0.0000    
            lambdas:    1.0000      1.0000    
-------------------------------------------------------------------------------
L=0  Nkbl=1  erefs: 0.17977+309
L=1  Nkbl=1  erefs: 0.17977+309
L=2  Nkbl=1  erefs: 0.17977+309
L=3  Nkbl=1  erefs: 0.17977+309
===============================================================================
</basis_specs>

atom: Called for N                     (Z =   7)

read_vps: Pseudopotential generation method:
read_vps: ATM3      Troullier-Martins                       
Total valence charge:    5.00000

read_vps: Pseudopotential includes a core correction:
read_vps: Pseudo-core for xc-correction

xc_check: Exchange-correlation functional:
xc_check: GGA Perdew, Burke & Ernzerhof 1996
V l=0 = -2*Zval/r beyond r=  1.4606
V l=1 = -2*Zval/r beyond r=  1.4606
V l=2 = -2*Zval/r beyond r=  1.4606
V l=3 = -2*Zval/r beyond r=  1.4606
All V_l potentials equal beyond r=  1.4606
This should be close to max(r_c) in ps generation
All pots = -2*Zval/r beyond r=  1.4606

VLOCAL1: 99.0% of the norm of Vloc inside     20.347 Ry
VLOCAL1: 99.9% of the norm of Vloc inside     46.372 Ry
atom: Maximum radius for 4*pi*r*r*local-pseudopot. charge    1.76189
atom: Maximum radius for r*vlocal+2*Zval:    1.53550
GHOST: No ghost state for L =  0
GHOST: No ghost state for L =  1
GHOST: No ghost state for L =  2
GHOST: No ghost state for L =  3

KBgen: Kleinman-Bylander projectors: 
   l= 0   rc=  1.634559   el= -1.363963   Ekb=  5.296955   kbcos=  0.335621
   l= 1   rc=  1.614250   el= -0.521451   Ekb= -5.259161   kbcos= -0.433408
   l= 2   rc=  1.718383   el=  0.001991   Ekb= -1.271464   kbcos= -0.007566
   l= 3   rc=  1.761893   el=  0.003093   Ekb= -0.494769   kbcos= -0.001015

KBgen: Total number of  Kleinman-Bylander projectors:   16
atom: -------------------------------------------------------------------------

atom: SANKEY-TYPE ORBITALS:
atom: Selected multiple-zeta basis: split     

SPLIT: Orbitals with angular momentum L= 0

SPLIT: Basis orbitals for state 2s

SPLIT: PAO cut-off radius determined from an
SPLIT: energy shift=  0.007350 Ry

   izeta = 1
                 lambda =    1.000000
                     rc =    4.071465
                 energy =   -1.356470
                kinetic =    1.176977
    potential(screened) =   -2.533447
       potential(ionic) =   -8.057990

   izeta = 2
                 rmatch =    2.905100
              splitnorm =    0.150000
                 energy =   -1.158343
                kinetic =    1.813009
    potential(screened) =   -2.971352
       potential(ionic) =   -8.901931

SPLIT: Orbitals with angular momentum L= 1

SPLIT: Basis orbitals for state 2p

SPLIT: PAO cut-off radius determined from an
SPLIT: energy shift=  0.007350 Ry

   izeta = 1
                 lambda =    1.000000
                     rc =    4.972977
                 energy =   -0.513884
                kinetic =    3.441732
    potential(screened) =   -3.955616
       potential(ionic) =   -9.287901

   izeta = 2
                 rmatch =    3.054066
              splitnorm =    0.150000
                 energy =   -0.318226
                kinetic =    5.125348
    potential(screened) =   -5.443573
       potential(ionic) =  -11.380999

POLgen: Perturbative polarization orbital with L=  2

POLgen: Polarization orbital for state 2p

   izeta = 1
                     rc =    4.972977
                 energy =    1.607437
                kinetic =    3.268125
    potential(screened) =   -1.660688
       potential(ionic) =   -5.973652
atom: Total number of Sankey-type orbitals: 13

atm_pop: Valence configuration (for local Pseudopot. screening):
 2s( 2.00)                                                            
 2p( 3.00)                                                            
Vna: chval, zval:    5.00000   5.00000

Vna:  Cut-off radius for the neutral-atom potential:   4.972977
comcore: Pseudo-core radius Rcore=  1.554824

atom: _________________________________________________________________________

<basis_specs>
===============================================================================
C                    Z=   6    Mass=  12.010        Charge= 0.17977+309
Lmxo=1 Lmxkb= 3    BasisType=split      Semic=F
L=0  Nsemic=0  Cnfigmx=2
          n=1  nzeta=2  polorb=0
            splnorm:   0.15000    
               vcte:    0.0000    
               rinn:    0.0000    
                rcs:    0.0000      0.0000    
            lambdas:    1.0000      1.0000    
L=1  Nsemic=0  Cnfigmx=2
          n=1  nzeta=2  polorb=1
            splnorm:   0.15000    
               vcte:    0.0000    
               rinn:    0.0000    
                rcs:    0.0000      0.0000    
            lambdas:    1.0000      1.0000    
-------------------------------------------------------------------------------
L=0  Nkbl=1  erefs: 0.17977+309
L=1  Nkbl=1  erefs: 0.17977+309
L=2  Nkbl=1  erefs: 0.17977+309
L=3  Nkbl=1  erefs: 0.17977+309
===============================================================================
</basis_specs>

atom: Called for C                     (Z =   6)

read_vps: Pseudopotential generation method:
read_vps: ATM3      Troullier-Martins                       
Total valence charge:    4.00000

read_vps: Pseudopotential includes a core correction:
read_vps: Pseudo-core for xc-correction

xc_check: Exchange-correlation functional:
xc_check: GGA Perdew, Burke & Ernzerhof 1996
V l=0 = -2*Zval/r beyond r=  1.5227
V l=1 = -2*Zval/r beyond r=  1.5227
V l=2 = -2*Zval/r beyond r=  1.5227
V l=3 = -2*Zval/r beyond r=  1.5038
All V_l potentials equal beyond r=  1.5227
This should be close to max(r_c) in ps generation
All pots = -2*Zval/r beyond r=  1.5227

VLOCAL1: 99.0% of the norm of Vloc inside     18.722 Ry
VLOCAL1: 99.9% of the norm of Vloc inside     42.668 Ry
atom: Maximum radius for 4*pi*r*r*local-pseudopot. charge    1.83678
atom: Maximum radius for r*vlocal+2*Zval:    1.58088
GHOST: No ghost state for L =  0
GHOST: No ghost state for L =  1
GHOST: No ghost state for L =  2
GHOST: No ghost state for L =  3

KBgen: Kleinman-Bylander projectors: 
   l= 0   rc=  1.704034   el= -1.009801   Ekb=  5.335044   kbcos=  0.316824
   l= 1   rc=  1.704034   el= -0.388707   Ekb= -3.785862   kbcos= -0.366464
   l= 2   rc=  1.791422   el=  0.001971   Ekb= -0.970471   kbcos= -0.009212
   l= 3   rc=  1.859892   el=  0.003065   Ekb= -0.399525   kbcos= -0.001223

KBgen: Total number of  Kleinman-Bylander projectors:   16
atom: -------------------------------------------------------------------------

atom: SANKEY-TYPE ORBITALS:
atom: Selected multiple-zeta basis: split     

SPLIT: Orbitals with angular momentum L= 0

SPLIT: Basis orbitals for state 2s

SPLIT: PAO cut-off radius determined from an
SPLIT: energy shift=  0.007350 Ry

   izeta = 1
                 lambda =    1.000000
                     rc =    4.632753
                 energy =   -1.002270
                kinetic =    0.855760
    potential(screened) =   -1.858031
       potential(ionic) =   -5.417575

   izeta = 2
                 rmatch =    3.431921
              splitnorm =    0.150000
                 energy =   -0.867111
                kinetic =    1.300804
    potential(screened) =   -2.167915
       potential(ionic) =   -5.962684

SPLIT: Orbitals with angular momentum L= 1

SPLIT: Basis orbitals for state 2p

SPLIT: PAO cut-off radius determined from an
SPLIT: energy shift=  0.007350 Ry

   izeta = 1
                 lambda =    1.000000
                     rc =    5.658549
                 energy =   -0.381140
                kinetic =    2.399701
    potential(screened) =   -2.780841
       potential(ionic) =   -6.206085

   izeta = 2
                 rmatch =    3.653288
              splitnorm =    0.150000
                 energy =   -0.249149
                kinetic =    3.542762
    potential(screened) =   -3.791911
       potential(ionic) =   -7.581078

POLgen: Perturbative polarization orbital with L=  2

POLgen: Polarization orbital for state 2p

   izeta = 1
                     rc =    5.658549
                 energy =    1.109913
                kinetic =    2.304789
    potential(screened) =   -1.194876
       potential(ionic) =   -4.013592
atom: Total number of Sankey-type orbitals: 13

atm_pop: Valence configuration (for local Pseudopot. screening):
 2s( 2.00)                                                            
 2p( 2.00)                                                            
Vna: chval, zval:    4.00000   4.00000

Vna:  Cut-off radius for the neutral-atom potential:   5.658549
comcore: Pseudo-core radius Rcore=  1.791422

atom: _________________________________________________________________________

prinput: Basis input ----------------------------------------------------------

PAO.BasisType split     

%block ChemicalSpeciesLabel
    1    7 N                       # Species index, atomic number, species label
    2    6 C                       # Species index, atomic number, species label
%endblock ChemicalSpeciesLabel

%block PAO.Basis                 # Define Basis set
N                     2                    # Species label, number of l-shells
 n=2   0   2                         # n, l, Nzeta 
   4.071      2.905   
   1.000      1.000   
 n=2   1   2 P   1                   # n, l, Nzeta, Polarization, NzetaPol
   4.973      3.054   
   1.000      1.000   
C                     2                    # Species label, number of l-shells
 n=2   0   2                         # n, l, Nzeta 
   4.633      3.432   
   1.000      1.000   
 n=2   1   2 P   1                   # n, l, Nzeta, Polarization, NzetaPol
   5.659      3.653   
   1.000      1.000   
%endblock PAO.Basis

prinput: ----------------------------------------------------------------------

coor:   Atomic-coordinates input format  =     Fractional

siesta: Atomic coordinates (Bohr) and species
siesta:     -2.35420  38.89134   0.00000  1        1
siesta:     -2.35420  41.57980   0.00000  1        2
siesta:      2.30256  38.89134   0.00000  1        3
siesta:      2.30256  41.57980   0.00000  1        4
siesta:      4.63094  34.85847   0.00000  1        5
siesta:      4.63094  37.54693   0.00000  1        6
siesta:     -4.68258  10.66124   0.00000  1        7
siesta:     -4.68258  13.34970   0.00000  1        8
siesta:     -2.35420  14.69411   0.00000  1        9
siesta:     -2.35420  17.38257   0.00000  1       10
siesta:     -7.01096  14.69411   0.00000  1       11
siesta:     -7.01096  17.38257   0.00000  1       12
siesta:     -4.68258  18.72698   0.00000  1       13
siesta:     -4.68258  21.41544   0.00000  1       14
siesta:     -2.35420  22.75985   0.00000  1       15
siesta:     -2.35420  25.44831   0.00000  1       16
siesta:     -0.02582  26.79272   0.00000  1       17
siesta:     -0.02582  29.48119   0.00000  1       18
siesta:      2.30256  30.82560   0.00000  1       19
siesta:      2.30256  33.51406   0.00000  1       20
siesta:     -0.02582  37.54693   0.00000  1       21
siesta:     -0.02582  42.92421   0.00000  1       22
siesta:     -0.02582   2.59549   0.00000  2       23
siesta:     -0.02582   5.28395   0.00000  2       24
siesta:      6.95932  30.82560   0.00000  2       25
siesta:      6.95932  33.51406   0.00000  2       26
siesta:      9.28770  26.79272   0.00000  2       27
siesta:      9.28770  29.48119   0.00000  2       28
siesta:     -4.68258  34.85847   0.00000  2       29
siesta:     -4.68258  37.54693   0.00000  2       30
siesta:      2.30256   6.62836   0.00000  2       31
siesta:      2.30256   9.31683   0.00000  2       32
siesta:      4.63094  10.66124   0.00000  2       33
siesta:      4.63094  13.34970   0.00000  2       34
siesta:      6.95932  14.69411   0.00000  2       35
siesta:      6.95932  17.38257   0.00000  2       36
siesta:      9.28770  18.72698   0.00000  2       37
siesta:      9.28770  21.41544   0.00000  2       38
siesta:     11.61608  22.75985   0.00000  2       39
siesta:     11.61608  25.44831   0.00000  2       40
siesta:     -2.35420   6.62836   0.00000  2       41
siesta:     -2.35420   9.31683   0.00000  2       42
siesta:     -0.02582  10.66124   0.00000  2       43
siesta:     -0.02582  13.34970   0.00000  2       44
siesta:      2.30256  14.69411   0.00000  2       45
siesta:      2.30256  17.38257   0.00000  2       46
siesta:      4.63094  18.72698   0.00000  2       47
siesta:      4.63094  21.41544   0.00000  2       48
siesta:      6.95932  22.75985   0.00000  2       49
siesta:      6.95932  25.44831   0.00000  2       50
siesta:     -0.02582  18.72698   0.00000  2       51
siesta:     -0.02582  21.41544   0.00000  2       52
siesta:      2.30256  22.75985   0.00000  2       53
siesta:      2.30256  25.44831   0.00000  2       54
siesta:     -9.33934  18.72698   0.00000  2       55
siesta:     -9.33934  21.41544   0.00000  2       56
siesta:     -7.01096  22.75985   0.00000  2       57
siesta:     -7.01096  25.44831   0.00000  2       58
siesta:    -11.66772  22.75985   0.00000  2       59
siesta:    -11.66772  25.44831   0.00000  2       60
siesta:     -9.33934  26.79272   0.00000  2       61
siesta:     -9.33934  29.48119   0.00000  2       62
siesta:      4.63094  26.79272   0.00000  2       63
siesta:      4.63094  29.48119   0.00000  2       64
siesta:     -4.68258  26.79272   0.00000  2       65
siesta:     -4.68258  29.48119   0.00000  2       66
siesta:     -2.35420  30.82560   0.00000  2       67
siesta:     -2.35420  33.51406   0.00000  2       68
siesta:     -7.01096  30.82560   0.00000  2       69
siesta:     -7.01096  33.51406   0.00000  2       70
siesta:     -0.02582  34.85847   0.00000  2       71
siesta:     -0.02582  45.61267   0.00000  2       72

siesta: System type = slab      

initatomlists: Number of atoms, orbitals, and projectors:     72   936  1152

siesta: ******************** Simulation parameters ****************************
siesta:
siesta: The following are some of the parameters of the simulation.
siesta: A complete list of the parameters used, including default values,
siesta: can be found in file out.fdf
siesta:
redata: Non-Collinear-spin run           =     F
redata: SpinPolarized (Up/Down) run      =     F
redata: Number of spin components        =     1
redata: Long output                      =     F
redata: Number of Atomic Species         =        2
redata: Charge density info will appear in .RHO file
redata: Write Mulliken Pop.              =     NO
redata: Mesh Cutoff                      =   200.0000  Ry
redata: Net charge of the system         =     0.0000 |e|
redata: Max. number of SCF Iter          =      500
redata: SCF convergence failure will abort job
redata: Performing Pulay mixing using    =    10 iterations
redata: Mix DM in first SCF step ?       =     F
redata: Write Pulay info on disk?        =     F
redata: Discard 1st Pulay DM after  kick =     F
redata: New DM Mixing Weight             =     0.0500
redata: New DM Occupancy tolerance       = 0.000000000001
redata: No kicks to SCF
redata: DM Mixing Weight for Kicks       =     0.5000
redata: DM Tolerance for SCF             =     0.000100
redata: Require Energy convergence for SCF =     F
redata: DM Energy tolerance for SCF      =     0.000100 eV
redata: Require Harris convergence for SCF =     F
redata: DM Harris energy tolerance for SCF =     0.000100 eV
redata: Using Saved Data (generic)   =     F
redata: Use continuation files for DM    =     T
redata: Neglect nonoverlap interactions  =     F
redata: Method of Calculation            =     Diagonalization
redata: Divide and Conquer               =     T
redata: Electronic Temperature           =     0.0019  Ry
redata: Fix the spin of the system       =     F
redata: Dynamics option                  =     Verlet MD run
redata: Initial MD time step             =        1
redata:   Final MD time step             =        1
redata: Length of MD time step           =     1.0000  fs
redata: Initial Temperature of MD run    =     0.0000  K
redata: Perform a MD quench              =     F
redata: ***********************************************************************
Total number of electrons:   310.000000
Total ionic charge:   310.000000

* ProcessorY, Blocksize:    2  24

k-point displ. along   1 input, could be:     0.50    0.00
k-point displ. along   2 input, could be:     0.50    0.00
 Kpoints in:          231 . Kpoints trimmed:          231

siesta: k-grid: Number of k-points =   231
siesta: k-grid: Cutoff (effective) =     5.000 Ang
siesta: k-grid: Supercell and displacements
siesta: k-grid:   21   0   0      0.500
siesta: k-grid:    0  21   0      0.500
siesta: k-grid:    0   0   1      0.000
Naive supercell factors:     2    2    2

superc: Internal auxiliary supercell:     2 x     2 x     2  =       8
superc: Number of atoms, orbitals, and projectors:    576   7488   9216

* Maximum dynamic memory allocated =     4 MB

siesta:                 ==============================
                            Begin MD step =      1
                        ==============================

superc: Internal auxiliary supercell:     2 x     2 x     2  =       8
superc: Number of atoms, orbitals, and projectors:    576   7488   9216

outcell: Unit cell vectors (Ang):
       12.804619    7.392750    0.000000
        0.000000   14.785500    0.000000
        0.000000    0.000000   10.000000

outcell: Cell vector modules (Ang)   :   14.785500   14.785500   10.000000
outcell: Cell angles (23,13,12) (deg):     90.0000     90.0000     60.0000
outcell: Cell volume (Ang**3)        :   1893.2269
New_DM. Step:     1
Initializing Density Matrix...

InitMesh: MESH =   120 x   120 x    90 =     1296000
InitMesh: Mesh cutoff (required, used) =   200.000   223.865 Ry

* Maximum dynamic memory allocated =   184 MB

stepf: Fermi-Dirac step function

siesta: Program's energy decomposition (eV):
siesta: Ebs     =     -6383.018483
siesta: Eions   =     21939.441643
siesta: Ena     =      4974.939632
siesta: Ekin    =      8224.476411
siesta: Enl     =       -26.794835
siesta: DEna    =        -0.000015
siesta: DUscf   =         0.000000
siesta: DUext   =         0.000000
siesta: Exc     =     -4735.117647
siesta: eta*DQ  =         0.000000
siesta: Emadel  =         0.000000
siesta: Emeta   =         0.000000
siesta: Emolmec =         0.000000
siesta: Ekinion =         0.000000
siesta: Eharris =    -13090.173663
siesta: Etot    =    -13501.938097
siesta: FreeEng =    -13501.938097

siesta: iscf   Eharris(eV)      E_KS(eV)   FreeEng(eV)   dDmax  Ef(eV)
siesta:    1   -13090.1737   -13501.9381   -13501.9381  5.4236 -6.7971
timer: Routine,Calls,Time,% = IterSCF        1    3387.319  99.66
elaps: Routine,Calls,Wall,% = IterSCF        1     424.291  99.66
siesta:    2   -15877.1503   -12584.3518   -12584.4238 11.6270 -2.0579
siesta:    3   -12991.9250   -13268.4695   -13268.4715  2.1010 -4.8704
siesta:    4   -12977.8792   -13117.4217   -13117.4845  0.9488 -3.9569
siesta:    5   -12949.2857   -13076.4709   -13076.5129  0.8689 -3.8490
siesta:    6   -12939.5685   -13047.0243   -13047.0956  0.7765 -3.6791
siesta:    7   -12936.1510   -13035.5142   -13035.5348  0.6968 -3.7100
siesta:    8   -12934.5859   -13023.9048   -13023.9403  0.6472 -3.7215
siesta:    9   -12934.0151   -12991.0270   -12991.0931  0.4740 -3.7198
siesta:   10   -12933.6862   -12975.2391   -12975.3022  0.3620 -3.7176
siesta:   11   -12933.3238   -12937.2657   -12937.3216  0.2159 -3.6370
siesta:   12   -12933.1773   -12924.7812   -12924.8200  0.2777 -3.6658
siesta:   13   -12932.7397   -12924.0675   -12924.1466  0.1655 -3.6929
siesta:   14   -12932.4997   -12924.7141   -12924.7752  0.1427 -3.7116
siesta:   15   -12932.1895   -12923.9654   -12924.0228  0.0621 -3.7427
siesta:   16   -12932.1200   -12926.0777   -12926.1458  0.0622 -3.7351
siesta:   17   -12932.0895   -12926.5540   -12926.6167  0.0396 -3.7325
siesta:   18   -12932.0864   -12927.5202   -12927.5979  0.0238 -3.7180
siesta:   19   -12932.0773   -12927.9411   -12928.0118  0.0221 -3.7193
siesta:   20   -12932.0694   -12929.7078   -12929.7794  0.0189 -3.7267
siesta:   21   -12932.0678   -12931.4380   -12931.5112  0.0154 -3.7271
siesta:   22   -12932.0649   -12931.8813   -12931.9536  0.0075 -3.7274
siesta:   23   -12932.0648   -12932.2342   -12932.3068  0.0050 -3.7256
siesta:   24   -12932.0644   -12931.9034   -12931.9753  0.0044 -3.7244
siesta:   25   -12932.0642   -12931.8274   -12931.8991  0.0037 -3.7244
siesta:   26   -12932.0637   -12931.8747   -12931.9465  0.0021 -3.7246
siesta:   27   -12932.0638   -12931.9567   -12932.0289  0.0011 -3.7244
siesta:   28   -12932.0638   -12931.9994   -12932.0715  0.0009 -3.7245
siesta:   29   -12932.0640   -12932.0368   -12932.1089  0.0005 -3.7246
siesta:   30   -12932.0640   -12932.0440   -12932.1159  0.0004 -3.7247
siesta:   31   -12932.0640   -12932.0497   -12932.1216  0.0003 -3.7248
siesta:   32   -12932.0639   -12932.0490   -12932.1209  0.0002 -3.7248
siesta:   33   -12932.0639   -12932.0496   -12932.1215  0.0001 -3.7249
siesta:   34   -12932.0640   -12932.0509   -12932.1229  0.0001 -3.7248

siesta: E_KS(eV) =           -12932.0539

siesta: E_KS - E_eggbox =    -12932.0539

siesta: Atomic forces (eV/Ang):
----------------------------------------
   Tot   -0.110739   -0.107823    0.000000
----------------------------------------
   Max  768.752737
   Res  190.362849    sqrt( Sum f_i^2 / 3N )
----------------------------------------
   Max  768.752737    constrained

Stress-tensor-Voigt (kbar):     -640.55    -3457.47       -0.12      -28.36        0.00        0.00
(Free)E + p*V (eV/cell)   -11317.9419
Target enthalpy (eV/cell)   -12932.1258

siesta: Stress tensor (static) (eV/Ang**3):
        -0.399795   -0.017702    0.000000
        -0.017703   -2.157962    0.000000
         0.000000    0.000000   -0.000072

siesta: Pressure (static):       1366.04639500  kBar

siesta: Stress tensor (total) (eV/Ang**3):
        -0.399795   -0.017702    0.000000
        -0.017703   -2.157962    0.000000
         0.000000    0.000000   -0.000072

siesta: Pressure (total):       1366.04639500  kBar

siesta: Temp_ion =       0.000 K

* Maximum dynamic memory allocated =   200 MB
Computing bands...

siesta: Program's energy decomposition (eV):
siesta: Ebs     =     -5118.605430
siesta: Eions   =     21939.441643
siesta: Ena     =      4974.939632
siesta: Ekin    =     11493.687894
siesta: Enl     =     -1804.834398
siesta: DEna    =      -850.238676
siesta: DUscf   =       116.536518
siesta: DUext   =         0.000000
siesta: Exc     =     -4922.703231
siesta: eta*DQ  =         0.000000
siesta: Emadel  =         0.000000
siesta: Emeta   =         0.000000
siesta: Emolmec =         0.000000
siesta: Ekinion =         0.000000
siesta: Eharris =    -12932.063950
siesta: Etot    =    -12932.053904
siesta: FreeEng =    -12932.125834

siesta: Final energy (eV):
siesta:  Band Struct. =   -5118.605430
siesta:       Kinetic =   11493.687894
siesta:       Hartree =   37828.649567
siesta:    Ext. field =       0.000000
siesta:   Exch.-corr. =   -4922.703231
siesta:  Ion-electron =  -86664.214637
siesta:       Ion-ion =   29332.526503
siesta:       Ekinion =       0.000000
siesta:         Total =  -12932.053904

siesta: Atomic forces (eV/Ang):
siesta:      1    3.798950  112.661978    0.000000
siesta:      2  -26.683833 -747.177722    0.000000
siesta:      3   -2.480828  111.876114    0.000000
siesta:      4   19.531495 -657.378748    0.000000
siesta:      5   32.512406    5.756085    0.000000
siesta:      6   28.662080 -659.585656    0.000000
siesta:      7  -13.709149  651.371833    0.000000
siesta:      8  -31.221376   -5.731966    0.000000
siesta:      9    0.989630  768.752737    0.000000
siesta:     10  -21.493544    2.548308    0.000000
siesta:     11   -0.204608    3.269562    0.000000
siesta:     12   -5.134994   -0.451701    0.000000
siesta:     13    1.626147    3.002480    0.000000
siesta:     14   -0.259286    0.700338    0.000000
siesta:     15    0.226933   -2.515316    0.000000
siesta:     16   -2.435374   -0.445147    0.000000
siesta:     17   -0.062257    3.306846    0.000000
siesta:     18  -14.062207 -682.806129    0.000000
siesta:     19   32.022308   10.110127    0.000000
siesta:     20   -2.995293 -678.528243    0.000000
siesta:     21   -1.503833 -674.596040    0.000000
siesta:     22    1.762225  123.060151    0.000000
siesta:     23   11.367896  640.885348    0.000000
siesta:     24    5.242073 -120.909676    0.000000
siesta:     25    0.422712    0.695242    0.000000
siesta:     26   -1.699980    1.517225    0.000000
siesta:     27    1.529955    2.725563    0.000000
siesta:     28   -0.796324    0.144669    0.000000
siesta:     29  -26.065584    5.080717    0.000000
siesta:     30  -40.695632 -662.116244    0.000000
siesta:     31   31.402509  656.060608    0.000000
siesta:     32   -0.065463 -121.535719    0.000000
siesta:     33   17.536911  658.010851    0.000000
siesta:     34   27.328845   -3.246787    0.000000
siesta:     35   -2.821667   -1.052764    0.000000
siesta:     36    1.794014   -0.151688    0.000000
siesta:     37   -0.892375   -0.144171    0.000000
siesta:     38    2.252266   -2.424896    0.000000
siesta:     39   -0.358462    7.555606    0.000000
siesta:     40    0.227088   -7.666463    0.000000
siesta:     41   -9.479144  549.627149    0.000000
siesta:     42    2.412900 -126.836723    0.000000
siesta:     43    0.191418  669.126578    0.000000
siesta:     44    7.312389 -114.222844    0.000000
siesta:     45    2.974615  683.843987    0.000000
siesta:     46   24.896593   -2.061795    0.000000
siesta:     47   -1.603835    2.784745    0.000000
siesta:     48    0.595015   -0.445675    0.000000
siesta:     49   -0.392753    0.931400    0.000000
siesta:     50    0.083734   -1.007653    0.000000
siesta:     51   16.739305  580.024147    0.000000
siesta:     52   -0.742281    0.702495    0.000000
siesta:     53   -1.025101    1.709288    0.000000
siesta:     54    0.547118   -0.712058    0.000000
siesta:     55    2.391473   -2.910732    0.000000
siesta:     56   -0.444233   -1.861233    0.000000
siesta:     57    0.244282    0.549122    0.000000
siesta:     58    1.185190   -1.274170    0.000000
siesta:     59    0.259327    6.600676    0.000000
siesta:     60    0.196260   -7.304090    0.000000
siesta:     61   -2.009163    2.242232    0.000000
siesta:     62    1.046456    0.307999    0.000000
siesta:     63   -1.115131    1.103335    0.000000
siesta:     64   -0.569753   -2.556759    0.000000
siesta:     65    0.486731    0.770731    0.000000
siesta:     66    1.842973   -4.113991    0.000000
siesta:     67  -24.260756    9.115012    0.000000
siesta:     68  -20.311692 -556.349134    0.000000
siesta:     69   -2.054476    0.486406    0.000000
siesta:     70    1.997708    1.507360    0.000000
siesta:     71   -7.026093  119.334114    0.000000
siesta:     72  -19.074189 -549.845054    0.000000
siesta: ----------------------------------------
siesta:    Tot   -0.110739   -0.107823    0.000000

siesta: Stress tensor (static) (eV/Ang**3):
siesta:    -0.399795   -0.017702    0.000000
siesta:    -0.017703   -2.157962    0.000000
siesta:     0.000000    0.000000   -0.000072

siesta: Cell volume =       1893.226884 Ang**3

siesta: Pressure (static):
siesta:                Solid            Molecule  Units
siesta:           0.00928601          0.15223584  Ry/Bohr**3
siesta:           0.85260988         13.97777676  eV/Ang**3
siesta:        1366.04639500      22395.10938046  kBar
(Free)E+ p_basis*V_orbitals  =      -12904.533416
(Free)Eharris+ p_basis*V_orbitals  =      -12904.546429

siesta: Electric dipole (a.u.)  =    0.000000    0.000000    0.000000
siesta: Electric dipole (Debye) =    0.000000    0.000000    0.000000

* Maximum dynamic memory allocated : Node    0 =   200 MB
* Maximum dynamic memory allocated : Node    1 =    72 MB
* Maximum dynamic memory allocated : Node    2 =    73 MB
* Maximum dynamic memory allocated : Node    3 =   190 MB
* Maximum dynamic memory allocated : Node    4 =   184 MB
* Maximum dynamic memory allocated : Node    5 =    69 MB
* Maximum dynamic memory allocated : Node    6 =    71 MB
* Maximum dynamic memory allocated : Node    7 =   169 MB

* Maximum memory occured during matrixMtoO                    

timer: CPU execution times:
timer:  Routine       Calls   Time/call    Tot.time        %
timer:  siesta            1  114122.491  114122.491   100.00
timer:  Setup             1       3.819       3.819     0.00
timer:  bands             3     243.895     731.686     0.64
timer:  writewave         1       0.046       0.046     0.00
timer:  KSV_init          1       0.004       0.004     0.00
timer:  IterMD            1  113381.750  113381.750    99.35
timer:  hsparse           1       0.281       0.281     0.00
timer:  overlap           1       7.123       7.123     0.01
timer:  IterSCF          34    3330.377  113232.821    99.22
timer:  kinefsm           2       3.668       7.337     0.01
timer:  nlefsm            2      17.232      34.464     0.03
timer:  DHSCF            35      74.279    2599.761     2.28
timer:  DHSCF1            1       0.745       0.745     0.00
timer:  DHSCF2            1      30.579      30.579     0.03
timer:  REORD           282       0.005       1.457     0.00
timer:  POISON           36       0.874      31.481     0.03
timer:  DHSCF3           35      72.572    2540.029     2.23
timer:  rhoofd           35      15.031     526.077     0.46
timer:  cellXC           35       3.252     113.829     0.10
timer:  vmat             35      33.540    1173.896     1.03
timer:  MolMec            2       0.000       0.000     0.00
timer:  diagon           34    3254.904  110666.725    96.97
timer:  c-eigval       7975       6.028   48072.628    42.12
timer:  c-buildHS      7975       0.047     374.441     0.33
timer:  cdiag         15829       6.166   97600.198    85.52
timer:  cdiag1        15829       0.384    6084.970     5.33
timer:  cdiag2        15829       1.770   28011.065    24.54
timer:  cdiag3        15829       3.734   59107.668    51.79
timer:  cdiag4        15829       0.151    2388.488     2.09
timer:  c-eigvec       7854       6.390   50188.708    43.98
timer:  c-buildD       7854       1.668   13097.058    11.48
timer:  DHSCF4            1      27.710      27.710     0.02
timer:  dfscf             1      25.858      25.858     0.02
timer:  overfsm           1       0.378       0.378     0.00
timer:  optical           1       4.608       4.608     0.00
  

elaps: ELAPSED times:
elaps:  Routine       Calls   Time/call    Tot.time        %
elaps:  siesta            1   14292.313   14292.313   100.00
elaps:  Setup             1       0.496       0.496     0.00
elaps:  bands             3      30.564      91.691     0.64
elaps:  writewave         1       0.006       0.006     0.00
elaps:  KSV_init          1       0.001       0.001     0.00
elaps:  IterMD            1   14199.520   14199.520    99.35
elaps:  hsparse           1       0.036       0.036     0.00
elaps:  overlap           1       0.894       0.894     0.01
elaps:  IterSCF          34     417.088   14180.985    99.22
elaps:  kinefsm           2       0.463       0.926     0.01
elaps:  nlefsm            2       2.199       4.398     0.03
elaps:  DHSCF            35       9.411     329.380     2.30
elaps:  DHSCF1            1       0.095       0.095     0.00
elaps:  DHSCF2            1       3.827       3.827     0.03
elaps:  REORD           282       0.001       0.196     0.00
elaps:  POISON           36       0.110       3.958     0.03
elaps:  DHSCF3           35       9.089     318.120     2.23
elaps:  rhoofd           35       4.260     149.114     1.04
elaps:  cellXC           35       0.407      14.244     0.10
elaps:  vmat             35       4.201     147.023     1.03
elaps:  MolMec            2       0.000       0.000     0.00
elaps:  diagon           34     407.629   13859.382    96.97
elaps:  c-eigval       7975       0.755    6020.265    42.12
elaps:  c-buildHS      7975       0.006      51.457     0.36
elaps:  cdiag         15829       0.769   12166.964    85.13
elaps:  cdiag1        15829       0.048     766.755     5.36
elaps:  cdiag2        15829       0.222    3508.529    24.55
elaps:  cdiag3        15829       0.468    7412.040    51.86
elaps:  cdiag4        15829       0.018     290.096     2.03
elaps:  c-eigvec       7854       0.794    6238.203    43.65
elaps:  c-buildD       7854       0.215    1687.074    11.80
elaps:  DHSCF4            1       7.247       7.247     0.05
elaps:  dfscf             1       6.847       6.847     0.05
elaps:  overfsm           1       0.050       0.050     0.00
elaps:  optical           1       0.001       0.001     0.00
  
>> End of run:  26-APR-2016  18:45:11
