Siesta Version:                                        siesta-3.2-pl-3
Architecture  : x86_64-unknown-linux-gnu--unknown
Compiler flags: mpiifort -g -O2 -fPIC -xSSE4.1 -fp-model source -shared-intel 
PARALLEL version

* Running on    8 nodes in parallel
>> Start of run:   1-MAY-2016  22:20:27

                           ***********************       
                           *  WELCOME TO SIESTA  *       
                           ***********************       

reinit: Reading from standard input
************************** Dump of input data file ****************************
#(1) General system descriptors
SystemName            GRP_doping    # Descriptive name of the system
SystemLabel           GRP_doping    # Short name for naming files
%include STRUCT.fdf
%include KPT.fdf
%include BASIS.fdf
#%include TS.fdf # for transiesta calculation
#(4) DFT, Grid, SCF
XC.functional         GGA           # LDA or GGA (default = LDA)
XC.authors            PBE           # CA (Ceperley-Aldr) = PZ
                                    #    (Perdew-Zunger) - LDA - Default
                                    # PW92 (Perdew-Wang-92) - LDA
                                    # PBE (Perdew-Burke-Ernzerhof) - GGA
MeshCutoff            200.000000    Ry      # Default: 50.0 Ry ~ 0.444 Bohr
                                    #         100.0 Ry ~ 0.314 Bohr
MaxSCFIterations      500           # Default: 50
DM.MixingWeight       0.05          # Default: 0.25
DM.NumberPulay        10            # Default: 0
DM.PulayOnFile        F             # SystemLabel.P1, SystemLabel.P2
DM.Tolerance          1.d-4         # Default: 1.d-4
DM.UseSaveDM          .true.        # because of the bug
SCFMustConverge       .true.
NeglNonOverlapInt     F             # Default: F
#(5) Eigenvalue problem: order-N or diagonalization
SolutionMethod        Diagon        # or Transiesta
ElectronicTemperature 300.0 K       # Default: 300.0 K
#(6) Molecular dynamics and relaxations
#MD.TypeOfRun          CG            # Type of dynamics:
#MD.VariableCell       F
#MD.NumCGsteps         0           # 0 for single-point / 100 for gopt
#MD.MaxCGDispl         0.2 Bohr      # Default: 0.2 Bohr
#MD.MaxForceTol        0.02 eV/Ang   # Default: 0.04 eV/Ang
#MD.MaxStressTol       1.0 GPa       # Default: 1.0 GPa
# Geometry Constraints
#%block GeometryConstraints
#	position from 1 to 44
#%endblock GeometryConstraints
BandLinesScale   pi/a
%block BandLines
 1   0.00000000  0.00000000  0.00000000
50   0.00000000  0.07809418  0.00000000
50   0.04509075  0.07809242  0.00000000
20   0.00000000  0.00000000  0.00000000
%endblock BandLines
************************** End of input data file *****************************

reinit: -----------------------------------------------------------------------
reinit: System Name: GRP_doping
reinit: -----------------------------------------------------------------------
reinit: System Label: GRP_doping                                                  
reinit: -----------------------------------------------------------------------

initatom: Reading input for the pseudopotentials and atomic orbitals ----------
 Species number:            1  Label: N Atomic number:           7
 Species number:            2  Label: C Atomic number:           6
Ground state valence configuration:   2s02  2p03
Reading pseudopotential information in formatted form from N.psf

Valence configuration for pseudopotential generation:
2s( 2.00) rc: 1.48
2p( 3.00) rc: 1.48
3d( 0.00) rc: 1.48
4f( 0.00) rc: 1.48
Ground state valence configuration:   2s02  2p02
Reading pseudopotential information in formatted form from C.psf

Valence configuration for pseudopotential generation:
2s( 2.00) rc: 1.54
2p( 2.00) rc: 1.54
3d( 0.00) rc: 1.54
4f( 0.00) rc: 1.54
For N, standard SIESTA heuristics set lmxkb to 3
 (one more than the basis l, including polarization orbitals).
Use PS.lmax or PS.KBprojectors blocks to override.
For C, standard SIESTA heuristics set lmxkb to 3
 (one more than the basis l, including polarization orbitals).
Use PS.lmax or PS.KBprojectors blocks to override.

<basis_specs>
===============================================================================
N                    Z=   7    Mass=  14.010        Charge= 0.17977+309
Lmxo=1 Lmxkb= 3    BasisType=split      Semic=F
L=0  Nsemic=0  Cnfigmx=2
          n=1  nzeta=2  polorb=0
            splnorm:   0.15000    
               vcte:    0.0000    
               rinn:    0.0000    
                rcs:    0.0000      0.0000    
            lambdas:    1.0000      1.0000    
L=1  Nsemic=0  Cnfigmx=2
          n=1  nzeta=2  polorb=1
            splnorm:   0.15000    
               vcte:    0.0000    
               rinn:    0.0000    
                rcs:    0.0000      0.0000    
            lambdas:    1.0000      1.0000    
-------------------------------------------------------------------------------
L=0  Nkbl=1  erefs: 0.17977+309
L=1  Nkbl=1  erefs: 0.17977+309
L=2  Nkbl=1  erefs: 0.17977+309
L=3  Nkbl=1  erefs: 0.17977+309
===============================================================================
</basis_specs>

atom: Called for N                     (Z =   7)

read_vps: Pseudopotential generation method:
read_vps: ATM3      Troullier-Martins                       
Total valence charge:    5.00000

read_vps: Pseudopotential includes a core correction:
read_vps: Pseudo-core for xc-correction

xc_check: Exchange-correlation functional:
xc_check: GGA Perdew, Burke & Ernzerhof 1996
V l=0 = -2*Zval/r beyond r=  1.4606
V l=1 = -2*Zval/r beyond r=  1.4606
V l=2 = -2*Zval/r beyond r=  1.4606
V l=3 = -2*Zval/r beyond r=  1.4606
All V_l potentials equal beyond r=  1.4606
This should be close to max(r_c) in ps generation
All pots = -2*Zval/r beyond r=  1.4606

VLOCAL1: 99.0% of the norm of Vloc inside     20.347 Ry
VLOCAL1: 99.9% of the norm of Vloc inside     46.372 Ry
atom: Maximum radius for 4*pi*r*r*local-pseudopot. charge    1.76189
atom: Maximum radius for r*vlocal+2*Zval:    1.53550
GHOST: No ghost state for L =  0
GHOST: No ghost state for L =  1
GHOST: No ghost state for L =  2
GHOST: No ghost state for L =  3

KBgen: Kleinman-Bylander projectors: 
   l= 0   rc=  1.634559   el= -1.363963   Ekb=  5.296955   kbcos=  0.335621
   l= 1   rc=  1.614250   el= -0.521451   Ekb= -5.259161   kbcos= -0.433408
   l= 2   rc=  1.718383   el=  0.001991   Ekb= -1.271464   kbcos= -0.007566
   l= 3   rc=  1.761893   el=  0.003093   Ekb= -0.494769   kbcos= -0.001015

KBgen: Total number of  Kleinman-Bylander projectors:   16
atom: -------------------------------------------------------------------------

atom: SANKEY-TYPE ORBITALS:
atom: Selected multiple-zeta basis: split     

SPLIT: Orbitals with angular momentum L= 0

SPLIT: Basis orbitals for state 2s

SPLIT: PAO cut-off radius determined from an
SPLIT: energy shift=  0.007350 Ry

   izeta = 1
                 lambda =    1.000000
                     rc =    4.071465
                 energy =   -1.356470
                kinetic =    1.176977
    potential(screened) =   -2.533447
       potential(ionic) =   -8.057990

   izeta = 2
                 rmatch =    2.905100
              splitnorm =    0.150000
                 energy =   -1.158343
                kinetic =    1.813009
    potential(screened) =   -2.971352
       potential(ionic) =   -8.901931

SPLIT: Orbitals with angular momentum L= 1

SPLIT: Basis orbitals for state 2p

SPLIT: PAO cut-off radius determined from an
SPLIT: energy shift=  0.007350 Ry

   izeta = 1
                 lambda =    1.000000
                     rc =    4.972977
                 energy =   -0.513884
                kinetic =    3.441732
    potential(screened) =   -3.955616
       potential(ionic) =   -9.287901

   izeta = 2
                 rmatch =    3.054066
              splitnorm =    0.150000
                 energy =   -0.318226
                kinetic =    5.125348
    potential(screened) =   -5.443573
       potential(ionic) =  -11.380999

POLgen: Perturbative polarization orbital with L=  2

POLgen: Polarization orbital for state 2p

   izeta = 1
                     rc =    4.972977
                 energy =    1.607437
                kinetic =    3.268125
    potential(screened) =   -1.660688
       potential(ionic) =   -5.973652
atom: Total number of Sankey-type orbitals: 13

atm_pop: Valence configuration (for local Pseudopot. screening):
 2s( 2.00)                                                            
 2p( 3.00)                                                            
Vna: chval, zval:    5.00000   5.00000

Vna:  Cut-off radius for the neutral-atom potential:   4.972977
comcore: Pseudo-core radius Rcore=  1.554824

atom: _________________________________________________________________________

<basis_specs>
===============================================================================
C                    Z=   6    Mass=  12.010        Charge= 0.17977+309
Lmxo=1 Lmxkb= 3    BasisType=split      Semic=F
L=0  Nsemic=0  Cnfigmx=2
          n=1  nzeta=2  polorb=0
            splnorm:   0.15000    
               vcte:    0.0000    
               rinn:    0.0000    
                rcs:    0.0000      0.0000    
            lambdas:    1.0000      1.0000    
L=1  Nsemic=0  Cnfigmx=2
          n=1  nzeta=2  polorb=1
            splnorm:   0.15000    
               vcte:    0.0000    
               rinn:    0.0000    
                rcs:    0.0000      0.0000    
            lambdas:    1.0000      1.0000    
-------------------------------------------------------------------------------
L=0  Nkbl=1  erefs: 0.17977+309
L=1  Nkbl=1  erefs: 0.17977+309
L=2  Nkbl=1  erefs: 0.17977+309
L=3  Nkbl=1  erefs: 0.17977+309
===============================================================================
</basis_specs>

atom: Called for C                     (Z =   6)

read_vps: Pseudopotential generation method:
read_vps: ATM3      Troullier-Martins                       
Total valence charge:    4.00000

read_vps: Pseudopotential includes a core correction:
read_vps: Pseudo-core for xc-correction

xc_check: Exchange-correlation functional:
xc_check: GGA Perdew, Burke & Ernzerhof 1996
V l=0 = -2*Zval/r beyond r=  1.5227
V l=1 = -2*Zval/r beyond r=  1.5227
V l=2 = -2*Zval/r beyond r=  1.5227
V l=3 = -2*Zval/r beyond r=  1.5038
All V_l potentials equal beyond r=  1.5227
This should be close to max(r_c) in ps generation
All pots = -2*Zval/r beyond r=  1.5227

VLOCAL1: 99.0% of the norm of Vloc inside     18.722 Ry
VLOCAL1: 99.9% of the norm of Vloc inside     42.668 Ry
atom: Maximum radius for 4*pi*r*r*local-pseudopot. charge    1.83678
atom: Maximum radius for r*vlocal+2*Zval:    1.58088
GHOST: No ghost state for L =  0
GHOST: No ghost state for L =  1
GHOST: No ghost state for L =  2
GHOST: No ghost state for L =  3

KBgen: Kleinman-Bylander projectors: 
   l= 0   rc=  1.704034   el= -1.009801   Ekb=  5.335044   kbcos=  0.316824
   l= 1   rc=  1.704034   el= -0.388707   Ekb= -3.785862   kbcos= -0.366464
   l= 2   rc=  1.791422   el=  0.001971   Ekb= -0.970471   kbcos= -0.009212
   l= 3   rc=  1.859892   el=  0.003065   Ekb= -0.399525   kbcos= -0.001223

KBgen: Total number of  Kleinman-Bylander projectors:   16
atom: -------------------------------------------------------------------------

atom: SANKEY-TYPE ORBITALS:
atom: Selected multiple-zeta basis: split     

SPLIT: Orbitals with angular momentum L= 0

SPLIT: Basis orbitals for state 2s

SPLIT: PAO cut-off radius determined from an
SPLIT: energy shift=  0.007350 Ry

   izeta = 1
                 lambda =    1.000000
                     rc =    4.632753
                 energy =   -1.002270
                kinetic =    0.855760
    potential(screened) =   -1.858031
       potential(ionic) =   -5.417575

   izeta = 2
                 rmatch =    3.431921
              splitnorm =    0.150000
                 energy =   -0.867111
                kinetic =    1.300804
    potential(screened) =   -2.167915
       potential(ionic) =   -5.962684

SPLIT: Orbitals with angular momentum L= 1

SPLIT: Basis orbitals for state 2p

SPLIT: PAO cut-off radius determined from an
SPLIT: energy shift=  0.007350 Ry

   izeta = 1
                 lambda =    1.000000
                     rc =    5.658549
                 energy =   -0.381140
                kinetic =    2.399701
    potential(screened) =   -2.780841
       potential(ionic) =   -6.206085

   izeta = 2
                 rmatch =    3.653288
              splitnorm =    0.150000
                 energy =   -0.249149
                kinetic =    3.542762
    potential(screened) =   -3.791911
       potential(ionic) =   -7.581078

POLgen: Perturbative polarization orbital with L=  2

POLgen: Polarization orbital for state 2p

   izeta = 1
                     rc =    5.658549
                 energy =    1.109913
                kinetic =    2.304789
    potential(screened) =   -1.194876
       potential(ionic) =   -4.013592
atom: Total number of Sankey-type orbitals: 13

atm_pop: Valence configuration (for local Pseudopot. screening):
 2s( 2.00)                                                            
 2p( 2.00)                                                            
Vna: chval, zval:    4.00000   4.00000

Vna:  Cut-off radius for the neutral-atom potential:   5.658549
comcore: Pseudo-core radius Rcore=  1.791422

atom: _________________________________________________________________________

prinput: Basis input ----------------------------------------------------------

PAO.BasisType split     

%block ChemicalSpeciesLabel
    1    7 N                       # Species index, atomic number, species label
    2    6 C                       # Species index, atomic number, species label
%endblock ChemicalSpeciesLabel

%block PAO.Basis                 # Define Basis set
N                     2                    # Species label, number of l-shells
 n=2   0   2                         # n, l, Nzeta 
   4.071      2.905   
   1.000      1.000   
 n=2   1   2 P   1                   # n, l, Nzeta, Polarization, NzetaPol
   4.973      3.054   
   1.000      1.000   
C                     2                    # Species label, number of l-shells
 n=2   0   2                         # n, l, Nzeta 
   4.633      3.432   
   1.000      1.000   
 n=2   1   2 P   1                   # n, l, Nzeta, Polarization, NzetaPol
   5.659      3.653   
   1.000      1.000   
%endblock PAO.Basis

prinput: ----------------------------------------------------------------------

coor:   Atomic-coordinates input format  =     Fractional

siesta: Atomic coordinates (Bohr) and species
siesta:     -2.35420  38.89134   0.00000  1        1
siesta:      2.30256  38.89134   0.00000  1        2
siesta:      9.28770  29.48119   0.00000  1        3
siesta:      2.30256   9.31683   0.00000  1        4
siesta:      4.63094  10.66124   0.00000  1        5
siesta:      9.28770  21.41544   0.00000  1        6
siesta:     -2.35420   9.31683   0.00000  1        7
siesta:     -0.02582  10.66124   0.00000  1        8
siesta:      4.63094  21.41544   0.00000  1        9
siesta:     -4.68258  10.66124   0.00000  1       10
siesta:     -0.02582  21.41544   0.00000  1       11
siesta:     -4.68258  21.41544   0.00000  1       12
siesta:     -9.33934  21.41544   0.00000  1       13
siesta:     -9.33934  29.48119   0.00000  1       14
siesta:      4.63094  29.48119   0.00000  1       15
siesta:     -0.02582  29.48119   0.00000  1       16
siesta:     -4.68258  29.48119   0.00000  1       17
siesta:     -0.02582   2.59549   0.00000  2       18
siesta:     -0.02582   5.28395   0.00000  2       19
siesta:     -2.35420  41.57980   0.00000  2       20
siesta:      2.30256  41.57980   0.00000  2       21
siesta:      4.63094  34.85847   0.00000  2       22
siesta:      4.63094  37.54693   0.00000  2       23
siesta:      6.95932  30.82560   0.00000  2       24
siesta:      6.95932  33.51406   0.00000  2       25
siesta:      9.28770  26.79272   0.00000  2       26
siesta:     -4.68258  34.85847   0.00000  2       27
siesta:     -4.68258  37.54693   0.00000  2       28
siesta:      2.30256   6.62836   0.00000  2       29
siesta:      4.63094  13.34970   0.00000  2       30
siesta:      6.95932  14.69411   0.00000  2       31
siesta:      6.95932  17.38257   0.00000  2       32
siesta:      9.28770  18.72698   0.00000  2       33
siesta:     11.61608  22.75985   0.00000  2       34
siesta:     11.61608  25.44831   0.00000  2       35
siesta:     -2.35420   6.62836   0.00000  2       36
siesta:     -0.02582  13.34970   0.00000  2       37
siesta:      2.30256  14.69411   0.00000  2       38
siesta:      2.30256  17.38257   0.00000  2       39
siesta:      4.63094  18.72698   0.00000  2       40
siesta:      6.95932  22.75985   0.00000  2       41
siesta:      6.95932  25.44831   0.00000  2       42
siesta:     -4.68258  13.34970   0.00000  2       43
siesta:     -2.35420  14.69411   0.00000  2       44
siesta:     -2.35420  17.38257   0.00000  2       45
siesta:     -0.02582  18.72698   0.00000  2       46
siesta:      2.30256  22.75985   0.00000  2       47
siesta:      2.30256  25.44831   0.00000  2       48
siesta:     -7.01096  14.69411   0.00000  2       49
siesta:     -7.01096  17.38257   0.00000  2       50
siesta:     -4.68258  18.72698   0.00000  2       51
siesta:     -2.35420  22.75985   0.00000  2       52
siesta:     -2.35420  25.44831   0.00000  2       53
siesta:     -9.33934  18.72698   0.00000  2       54
siesta:     -7.01096  22.75985   0.00000  2       55
siesta:     -7.01096  25.44831   0.00000  2       56
siesta:    -11.66772  22.75985   0.00000  2       57
siesta:    -11.66772  25.44831   0.00000  2       58
siesta:     -9.33934  26.79272   0.00000  2       59
siesta:      4.63094  26.79272   0.00000  2       60
siesta:     -0.02582  26.79272   0.00000  2       61
siesta:     -4.68258  26.79272   0.00000  2       62
siesta:      2.30256  30.82560   0.00000  2       63
siesta:      2.30256  33.51406   0.00000  2       64
siesta:     -2.35420  30.82560   0.00000  2       65
siesta:     -2.35420  33.51406   0.00000  2       66
siesta:     -7.01096  30.82560   0.00000  2       67
siesta:     -7.01096  33.51406   0.00000  2       68
siesta:     -0.02582  34.85847   0.00000  2       69
siesta:     -0.02582  37.54693   0.00000  2       70
siesta:     -0.02582  42.92421   0.00000  2       71
siesta:     -0.02582  45.61267   0.00000  2       72

siesta: System type = slab      

initatomlists: Number of atoms, orbitals, and projectors:     72   936  1152

siesta: ******************** Simulation parameters ****************************
siesta:
siesta: The following are some of the parameters of the simulation.
siesta: A complete list of the parameters used, including default values,
siesta: can be found in file out.fdf
siesta:
redata: Non-Collinear-spin run           =     F
redata: SpinPolarized (Up/Down) run      =     F
redata: Number of spin components        =     1
redata: Long output                      =     F
redata: Number of Atomic Species         =        2
redata: Charge density info will appear in .RHO file
redata: Write Mulliken Pop.              =     NO
redata: Mesh Cutoff                      =   200.0000  Ry
redata: Net charge of the system         =     0.0000 |e|
redata: Max. number of SCF Iter          =      500
redata: SCF convergence failure will abort job
redata: Performing Pulay mixing using    =    10 iterations
redata: Mix DM in first SCF step ?       =     F
redata: Write Pulay info on disk?        =     F
redata: Discard 1st Pulay DM after  kick =     F
redata: New DM Mixing Weight             =     0.0500
redata: New DM Occupancy tolerance       = 0.000000000001
redata: No kicks to SCF
redata: DM Mixing Weight for Kicks       =     0.5000
redata: DM Tolerance for SCF             =     0.000100
redata: Require Energy convergence for SCF =     F
redata: DM Energy tolerance for SCF      =     0.000100 eV
redata: Require Harris convergence for SCF =     F
redata: DM Harris energy tolerance for SCF =     0.000100 eV
redata: Using Saved Data (generic)   =     F
redata: Use continuation files for DM    =     T
redata: Neglect nonoverlap interactions  =     F
redata: Method of Calculation            =     Diagonalization
redata: Divide and Conquer               =     T
redata: Electronic Temperature           =     0.0019  Ry
redata: Fix the spin of the system       =     F
redata: Dynamics option                  =     Verlet MD run
redata: Initial MD time step             =        1
redata:   Final MD time step             =        1
redata: Length of MD time step           =     1.0000  fs
redata: Initial Temperature of MD run    =     0.0000  K
redata: Perform a MD quench              =     F
redata: ***********************************************************************
Total number of electrons:   305.000000
Total ionic charge:   305.000000

* ProcessorY, Blocksize:    2  24

k-point displ. along   1 input, could be:     0.50    0.00
k-point displ. along   2 input, could be:     0.50    0.00
 Kpoints in:          231 . Kpoints trimmed:          231

siesta: k-grid: Number of k-points =   231
siesta: k-grid: Cutoff (effective) =     5.000 Ang
siesta: k-grid: Supercell and displacements
siesta: k-grid:   21   0   0      0.500
siesta: k-grid:    0  21   0      0.500
siesta: k-grid:    0   0   1      0.000
Naive supercell factors:     2    2    2

superc: Internal auxiliary supercell:     2 x     2 x     2  =       8
superc: Number of atoms, orbitals, and projectors:    576   7488   9216

* Maximum dynamic memory allocated =     4 MB

siesta:                 ==============================
                            Begin MD step =      1
                        ==============================

superc: Internal auxiliary supercell:     2 x     2 x     2  =       8
superc: Number of atoms, orbitals, and projectors:    576   7488   9216

outcell: Unit cell vectors (Ang):
       12.804619    7.392750    0.000000
        0.000000   14.785500    0.000000
        0.000000    0.000000   10.000000

outcell: Cell vector modules (Ang)   :   14.785500   14.785500   10.000000
outcell: Cell angles (23,13,12) (deg):     90.0000     90.0000     60.0000
outcell: Cell volume (Ang**3)        :   1893.2269
New_DM. Step:     1
Initializing Density Matrix...

InitMesh: MESH =   120 x   120 x    90 =     1296000
InitMesh: Mesh cutoff (required, used) =   200.000   223.865 Ry

* Maximum dynamic memory allocated =   186 MB

stepf: Fermi-Dirac step function

siesta: Program's energy decomposition (eV):
siesta: Ebs     =     -6234.705549
siesta: Eions   =     21135.707422
siesta: Ena     =      4896.441307
siesta: Ekin    =      7804.862351
siesta: Enl     =       122.583497
siesta: DEna    =        -0.000015
siesta: DUscf   =         0.000000
siesta: DUext   =         0.000000
siesta: Exc     =     -4602.249945
siesta: eta*DQ  =         0.000000
siesta: Emadel  =         0.000000
siesta: Emeta   =         0.000000
siesta: Emolmec =         0.000000
siesta: Ekinion =         0.000000
siesta: Eharris =    -12525.299973
siesta: Etot    =    -12914.070226
siesta: FreeEng =    -12914.070226

siesta: iscf   Eharris(eV)      E_KS(eV)   FreeEng(eV)   dDmax  Ef(eV)
siesta:    1   -12525.3000   -12914.0702   -12914.0702  6.1986 -7.1002
timer: Routine,Calls,Time,% = IterSCF        1    3424.330  99.66
elaps: Routine,Calls,Wall,% = IterSCF        1     428.921  99.66
siesta:    2   -15203.4974   -12054.7023   -12054.7725  9.8373 -1.8262
siesta:    3   -12430.5689   -12657.4338   -12657.4750  2.1052 -3.9317
siesta:    4   -12405.1976   -12555.1735   -12555.2135  1.0682 -3.7070
siesta:    5   -12385.7515   -12498.1941   -12498.2597  0.9371 -3.6720
siesta:    6   -12381.0803   -12477.1672   -12477.2085  0.8882 -3.7107
siesta:    7   -12375.5391   -12441.6900   -12441.7454  0.6448 -3.8847
siesta:    8   -12374.6832   -12435.4970   -12435.5411  0.6059 -3.8718
siesta:    9   -12374.6894   -12415.0853   -12415.1450  0.4667 -3.9112
siesta:   10   -12375.2881   -12388.6659   -12388.7611  0.2722 -3.9024
siesta:   11   -12374.7482   -12375.2241   -12375.3088  0.2221 -3.8534
siesta:   12   -12374.5727   -12372.5494   -12372.6228  0.1987 -3.8065
siesta:   13   -12373.9874   -12368.9207   -12368.9803  0.1353 -3.8184
siesta:   14   -12373.8002   -12370.4178   -12370.5054  0.0609 -3.8202
siesta:   15   -12373.7568   -12371.1793   -12371.2677  0.0658 -3.8372
siesta:   16   -12373.6792   -12371.5890   -12371.6676  0.0342 -3.8458
siesta:   17   -12373.6669   -12372.2938   -12372.3847  0.0263 -3.8437
siesta:   18   -12373.6560   -12372.0620   -12372.1558  0.0177 -3.8406
siesta:   19   -12373.6567   -12372.7506   -12372.8443  0.0194 -3.8427
siesta:   20   -12373.6543   -12372.9479   -12373.0437  0.0099 -3.8407
siesta:   21   -12373.6542   -12373.5563   -12373.6501  0.0083 -3.8382
siesta:   22   -12373.6538   -12373.7604   -12373.8538  0.0048 -3.8377
siesta:   23   -12373.6533   -12373.7161   -12373.8085  0.0031 -3.8379
siesta:   24   -12373.6530   -12373.7005   -12373.7929  0.0024 -3.8383
siesta:   25   -12373.6524   -12373.8182   -12373.9108  0.0020 -3.8386
siesta:   26   -12373.6523   -12373.7910   -12373.8841  0.0020 -3.8384
siesta:   27   -12373.6523   -12373.7673   -12373.8604  0.0017 -3.8382
siesta:   28   -12373.6523   -12373.7441   -12373.8372  0.0012 -3.8381
siesta:   29   -12373.6523   -12373.7195   -12373.8126  0.0003 -3.8379
siesta:   30   -12373.6523   -12373.6970   -12373.7901  0.0002 -3.8378
siesta:   31   -12373.6523   -12373.6926   -12373.7857  0.0001 -3.8378
siesta:   32   -12373.6523   -12373.6794   -12373.7724  0.0002 -3.8378
siesta:   33   -12373.6523   -12373.6694   -12373.7624  0.0001 -3.8378
siesta:   34   -12373.6523   -12373.6618   -12373.7549  0.0001 -3.8378
siesta:   35   -12373.6523   -12373.6592   -12373.7522  0.0001 -3.8379

siesta: E_KS(eV) =           -12373.6552

siesta: E_KS - E_eggbox =    -12373.6552

siesta: Atomic forces (eV/Ang):
----------------------------------------
   Tot   -0.379546   -0.043443    0.000000
----------------------------------------
   Max  679.756186
   Res  176.906605    sqrt( Sum f_i^2 / 3N )
----------------------------------------
   Max  679.756186    constrained

Stress-tensor-Voigt (kbar):     -618.51    -3155.61       -0.07        0.18        0.00        0.00
(Free)E + p*V (eV/cell)   -10887.1620
Target enthalpy (eV/cell)   -12373.7483

siesta: Stress tensor (static) (eV/Ang**3):
        -0.386039    0.000114    0.000000
         0.000114   -1.969558    0.000000
         0.000000    0.000000   -0.000043

siesta: Pressure (static):       1258.06346100  kBar

siesta: Stress tensor (total) (eV/Ang**3):
        -0.386039    0.000114    0.000000
         0.000114   -1.969558    0.000000
         0.000000    0.000000   -0.000043

siesta: Pressure (total):       1258.06346100  kBar

siesta: Temp_ion =       0.000 K

* Maximum dynamic memory allocated =   203 MB
Computing bands...

siesta: Program's energy decomposition (eV):
siesta: Ebs     =     -4999.849853
siesta: Eions   =     21135.707422
siesta: Ena     =      4896.441307
siesta: Ekin    =     10920.241512
siesta: Enl     =     -1597.868752
siesta: DEna    =      -787.279543
siesta: DUscf   =       105.104281
siesta: DUext   =         0.000000
siesta: Exc     =     -4774.586632
siesta: eta*DQ  =         0.000000
siesta: Emadel  =         0.000000
siesta: Emeta   =         0.000000
siesta: Emolmec =         0.000000
siesta: Ekinion =         0.000000
siesta: Eharris =    -12373.652300
siesta: Etot    =    -12373.655249
siesta: FreeEng =    -12373.748322

siesta: Final energy (eV):
siesta:  Band Struct. =   -4999.849853
siesta:       Kinetic =   10920.241512
siesta:       Hartree =   35467.196809
siesta:    Ext. field =       0.000000
siesta:   Exch.-corr. =   -4774.586632
siesta:  Ion-electron =  -81424.495650
siesta:       Ion-ion =   27437.988712
siesta:       Ekinion =       0.000000
siesta:         Total =  -12373.655249

siesta: Atomic forces (eV/Ang):
siesta:      1    1.474251  124.585031    0.000000
siesta:      2   -1.424706  124.555756    0.000000
siesta:      3   -2.633017   -0.293985    0.000000
siesta:      4   -1.506985 -125.654705    0.000000
siesta:      5   29.786905  659.004218    0.000000
siesta:      6   -0.245739   -1.274678    0.000000
siesta:      7    1.613082 -125.641095    0.000000
siesta:      8   -0.137343  676.661639    0.000000
siesta:      9   -0.223440   -0.378102    0.000000
siesta:     10  -29.904038  659.057747    0.000000
siesta:     11   -0.025166   -1.958165    0.000000
siesta:     12    0.182586   -0.357803    0.000000
siesta:     13    0.216163   -1.275765    0.000000
siesta:     14    2.618536   -0.281641    0.000000
siesta:     15   -0.456112   -3.789996    0.000000
siesta:     16   -0.009134 -679.756186    0.000000
siesta:     17    0.350638   -3.792424    0.000000
siesta:     18   -0.036574  646.828757    0.000000
siesta:     19    0.014609 -120.516637    0.000000
siesta:     20  -10.089274 -547.386412    0.000000
siesta:     21   10.066432 -547.377445    0.000000
siesta:     22   26.393795    1.430808    0.000000
siesta:     23   23.037229 -658.634712    0.000000
siesta:     24    2.343915   -1.757693    0.000000
siesta:     25   -2.578172    0.930907    0.000000
siesta:     26    1.478381    3.375674    0.000000
siesta:     27  -26.404332    1.419889    0.000000
siesta:     28  -23.062793 -658.561462    0.000000
siesta:     29   11.897133  545.136883    0.000000
siesta:     30   26.049603   -0.053127    0.000000
siesta:     31   -2.803124   -2.149110    0.000000
siesta:     32    0.982350    1.059854    0.000000
siesta:     33    0.555312    0.447740    0.000000
siesta:     34   -1.119770    4.475555    0.000000
siesta:     35   -0.580634   -4.952304    0.000000
siesta:     36  -11.898262  545.153805    0.000000
siesta:     37    0.024579 -116.187118    0.000000
siesta:     38   22.958931  566.088440    0.000000
siesta:     39   24.318991   -6.509914    0.000000
siesta:     40   -1.714783    2.932121    0.000000
siesta:     41    0.177147    0.527110    0.000000
siesta:     42   -0.481338   -1.216718    0.000000
siesta:     43  -26.056437   -0.037247    0.000000
siesta:     44  -22.950352  566.057325    0.000000
siesta:     45  -24.374780   -6.498626    0.000000
siesta:     46    0.002306  565.240073    0.000000
siesta:     47    1.424923    0.052073    0.000000
siesta:     48    0.656511    0.629920    0.000000
siesta:     49    2.810500   -2.161308    0.000000
siesta:     50   -0.969046    1.051192    0.000000
siesta:     51    1.699907    2.951673    0.000000
siesta:     52   -1.410599    0.042506    0.000000
siesta:     53   -0.657633    0.624056    0.000000
siesta:     54   -0.550099    0.454655    0.000000
siesta:     55   -0.180545    0.532160    0.000000
siesta:     56    0.471524   -1.215761    0.000000
siesta:     57    1.133248    4.478752    0.000000
siesta:     58    0.587250   -4.957874    0.000000
siesta:     59   -1.471145    3.360934    0.000000
siesta:     60   -0.029196    0.459205    0.000000
siesta:     61   -0.011254    0.550294    0.000000
siesta:     62    0.045743    0.477840    0.000000
siesta:     63   26.164447   11.122270    0.000000
siesta:     64   21.746288 -567.051298    0.000000
siesta:     65  -26.175301   11.120190    0.000000
siesta:     66  -21.763645 -567.066953    0.000000
siesta:     67   -2.317838   -1.756466    0.000000
siesta:     68    2.594651    0.965498    0.000000
siesta:     69    0.017796  118.426878    0.000000
siesta:     70   -0.011806 -676.209658    0.000000
siesta:     71   -0.004949  130.442159    0.000000
siesta:     72   -0.005842 -546.042640    0.000000
siesta: ----------------------------------------
siesta:    Tot   -0.379546   -0.043443    0.000000

siesta: Stress tensor (static) (eV/Ang**3):
siesta:    -0.386039    0.000114    0.000000
siesta:     0.000114   -1.969558    0.000000
siesta:     0.000000    0.000000   -0.000043

siesta: Cell volume =       1893.226884 Ang**3

siesta: Pressure (static):
siesta:                Solid            Molecule  Units
siesta:           0.00855197          0.13965593  Ry/Bohr**3
siesta:           0.78521296         12.82273247  eV/Ang**3
siesta:        1258.06346100      20544.50440794  kBar
(Free)E+ p_basis*V_orbitals  =      -12345.441085
(Free)Eharris+ p_basis*V_orbitals  =      -12345.434228

siesta: Electric dipole (a.u.)  =    0.000000    0.000000    0.000000
siesta: Electric dipole (Debye) =    0.000000    0.000000    0.000000

* Maximum dynamic memory allocated : Node    0 =   203 MB
* Maximum dynamic memory allocated : Node    1 =    72 MB
* Maximum dynamic memory allocated : Node    2 =    73 MB
* Maximum dynamic memory allocated : Node    3 =   192 MB
* Maximum dynamic memory allocated : Node    4 =   189 MB
* Maximum dynamic memory allocated : Node    5 =    70 MB
* Maximum dynamic memory allocated : Node    6 =    71 MB
* Maximum dynamic memory allocated : Node    7 =   174 MB

* Maximum memory occured during matrixMtoO                    

timer: CPU execution times:
timer:  Routine       Calls   Time/call    Tot.time        %
timer:  siesta            1  118601.602  118601.602   100.00
timer:  Setup             1       3.968       3.968     0.00
timer:  bands             3     243.568     730.705     0.62
timer:  writewave         1       0.044       0.044     0.00
timer:  KSV_init          1       0.007       0.007     0.00
timer:  IterMD            1  117861.680  117861.680    99.38
timer:  hsparse           1       0.281       0.281     0.00
timer:  overlap           1       7.124       7.124     0.01
timer:  IterSCF          35    3363.148  117710.175    99.25
timer:  kinefsm           2       3.673       7.347     0.01
timer:  nlefsm            2      17.482      34.964     0.03
timer:  DHSCF            36      75.107    2703.848     2.28
timer:  DHSCF1            1       0.746       0.746     0.00
timer:  DHSCF2            1      30.828      30.828     0.03
timer:  REORD           290       0.005       1.404     0.00
timer:  POISON           37       0.868      32.116     0.03
timer:  DHSCF3           36      73.408    2642.688     2.23
timer:  rhoofd           36      16.063     578.260     0.49
timer:  cellXC           36       3.255     117.180     0.10
timer:  vmat             36      34.162    1229.825     1.04
timer:  MolMec            2       0.000       0.000     0.00
timer:  diagon           35    3286.873  115040.543    97.00
timer:  c-eigval       8206       6.029   49473.001    41.71
timer:  c-buildHS      8206       0.047     382.156     0.32
timer:  cdiag         16291       6.167  100459.407    84.70
timer:  cdiag1        16291       0.384    6255.081     5.27
timer:  cdiag2        16291       1.766   28776.975    24.26
timer:  cdiag3        16291       3.742   60958.812    51.40
timer:  cdiag4        16291       0.151    2459.242     2.07
timer:  c-eigvec       8085       6.390   51666.639    43.56
timer:  c-buildD       8085       1.805   14590.111    12.30
timer:  DHSCF4            1      28.847      28.847     0.02
timer:  dfscf             1      26.965      26.965     0.02
timer:  overfsm           1       0.381       0.381     0.00
timer:  optical           1       4.613       4.613     0.00
  

elaps: ELAPSED times:
elaps:  Routine       Calls   Time/call    Tot.time        %
elaps:  siesta            1   14853.154   14853.154   100.00
elaps:  Setup             1       0.518       0.518     0.00
elaps:  bands             3      30.522      91.566     0.62
elaps:  writewave         1       0.006       0.006     0.00
elaps:  KSV_init          1       0.001       0.001     0.00
elaps:  IterMD            1   14760.464   14760.464    99.38
elaps:  hsparse           1       0.037       0.037     0.00
elaps:  overlap           1       0.892       0.892     0.01
elaps:  IterSCF          35     421.189   14741.605    99.25
elaps:  kinefsm           2       0.462       0.923     0.01
elaps:  nlefsm            2       2.125       4.250     0.03
elaps:  DHSCF            36       9.510     342.345     2.30
elaps:  DHSCF1            1       0.095       0.095     0.00
elaps:  DHSCF2            1       3.861       3.861     0.03
elaps:  REORD           290       0.001       0.190     0.00
elaps:  POISON           37       0.109       4.047     0.03
elaps:  DHSCF3           36       9.194     330.973     2.23
elaps:  rhoofd           36       4.375     157.510     1.06
elaps:  cellXC           36       0.407      14.662     0.10
elaps:  vmat             36       4.279     154.032     1.04
elaps:  MolMec            2       0.000       0.000     0.00
elaps:  diagon           35     411.628   14406.991    97.00
elaps:  c-eigval       8206       0.755    6195.596    41.71
elaps:  c-buildHS      8206       0.007      53.799     0.36
elaps:  cdiag         16291       0.770   12539.034    84.42
elaps:  cdiag1        16291       0.048     780.147     5.25
elaps:  cdiag2        16291       0.221    3604.691    24.27
elaps:  cdiag3        16291       0.469    7644.473    51.47
elaps:  cdiag4        16291       0.019     307.167     2.07
elaps:  c-eigvec       8085       0.797    6441.414    43.37
elaps:  c-buildD       8085       0.230    1855.892    12.49
elaps:  DHSCF4            1       7.325       7.325     0.05
elaps:  dfscf             1       6.923       6.923     0.05
elaps:  overfsm           1       0.050       0.050     0.00
elaps:  optical           1       0.001       0.001     0.00
  
>> End of run:   2-MAY-2016   2:28:00
