Siesta Version:                                        siesta-3.2-pl-3
Architecture  : x86_64-unknown-linux-gnu--unknown
Compiler flags: mpiifort -g -O2 -fPIC -xSSE4.1 -fp-model source -shared-intel 
PARALLEL version

* Running on   12 nodes in parallel
>> Start of run:   6-MAY-2016  22:18:58

                           ***********************       
                           *  WELCOME TO SIESTA  *       
                           ***********************       

reinit: Reading from standard input
************************** Dump of input data file ****************************
#(1) General system descriptors
SystemName            GRP_doping    # Descriptive name of the system
SystemLabel           GRP_doping    # Short name for naming files
%include STRUCT.fdf
%include KPT.fdf
%include BASIS.fdf
#%include TS.fdf # for transiesta calculation
#(4) DFT, Grid, SCF
XC.functional         GGA           # LDA or GGA (default = LDA)
XC.authors            PBE           # CA (Ceperley-Aldr) = PZ
                                    #    (Perdew-Zunger) - LDA - Default
                                    # PW92 (Perdew-Wang-92) - LDA
                                    # PBE (Perdew-Burke-Ernzerhof) - GGA
MeshCutoff            200.000000    Ry      # Default: 50.0 Ry ~ 0.444 Bohr
                                    #         100.0 Ry ~ 0.314 Bohr
MaxSCFIterations      500           # Default: 50
DM.MixingWeight       0.05          # Default: 0.25
DM.NumberPulay        10            # Default: 0
DM.PulayOnFile        F             # SystemLabel.P1, SystemLabel.P2
DM.Tolerance          1.d-4         # Default: 1.d-4
DM.UseSaveDM          .true.        # because of the bug
SCFMustConverge       .true.
NeglNonOverlapInt     F             # Default: F
#(5) Eigenvalue problem: order-N or diagonalization
SolutionMethod        Diagon        # or Transiesta
ElectronicTemperature 300.0 K       # Default: 300.0 K
#(6) Molecular dynamics and relaxations
#MD.TypeOfRun          CG            # Type of dynamics:
#MD.VariableCell       F
#MD.NumCGsteps         0           # 0 for single-point / 100 for gopt
#MD.MaxCGDispl         0.2 Bohr      # Default: 0.2 Bohr
#MD.MaxForceTol        0.02 eV/Ang   # Default: 0.04 eV/Ang
#MD.MaxStressTol       1.0 GPa       # Default: 1.0 GPa
# Geometry Constraints
#%block GeometryConstraints
#	position from 1 to 44
#%endblock GeometryConstraints
BandLinesScale   pi/a
%block BandLines
 1   0.00000000  0.00000000  0.00000000
50   0.00000000  0.07809418  0.00000000
50   0.04509075  0.07809242  0.00000000
20   0.00000000  0.00000000  0.00000000
%endblock BandLines
************************** End of input data file *****************************

reinit: -----------------------------------------------------------------------
reinit: System Name: GRP_doping
reinit: -----------------------------------------------------------------------
reinit: System Label: GRP_doping                                                  
reinit: -----------------------------------------------------------------------

initatom: Reading input for the pseudopotentials and atomic orbitals ----------
 Species number:            1  Label: N Atomic number:           7
 Species number:            2  Label: C Atomic number:           6
Ground state valence configuration:   2s02  2p03
Reading pseudopotential information in formatted form from N.psf

Valence configuration for pseudopotential generation:
2s( 2.00) rc: 1.48
2p( 3.00) rc: 1.48
3d( 0.00) rc: 1.48
4f( 0.00) rc: 1.48
Ground state valence configuration:   2s02  2p02
Reading pseudopotential information in formatted form from C.psf

Valence configuration for pseudopotential generation:
2s( 2.00) rc: 1.54
2p( 2.00) rc: 1.54
3d( 0.00) rc: 1.54
4f( 0.00) rc: 1.54
For N, standard SIESTA heuristics set lmxkb to 3
 (one more than the basis l, including polarization orbitals).
Use PS.lmax or PS.KBprojectors blocks to override.
For C, standard SIESTA heuristics set lmxkb to 3
 (one more than the basis l, including polarization orbitals).
Use PS.lmax or PS.KBprojectors blocks to override.

<basis_specs>
===============================================================================
N                    Z=   7    Mass=  14.010        Charge= 0.17977+309
Lmxo=1 Lmxkb= 3    BasisType=split      Semic=F
L=0  Nsemic=0  Cnfigmx=2
          n=1  nzeta=2  polorb=0
            splnorm:   0.15000    
               vcte:    0.0000    
               rinn:    0.0000    
                rcs:    0.0000      0.0000    
            lambdas:    1.0000      1.0000    
L=1  Nsemic=0  Cnfigmx=2
          n=1  nzeta=2  polorb=1
            splnorm:   0.15000    
               vcte:    0.0000    
               rinn:    0.0000    
                rcs:    0.0000      0.0000    
            lambdas:    1.0000      1.0000    
-------------------------------------------------------------------------------
L=0  Nkbl=1  erefs: 0.17977+309
L=1  Nkbl=1  erefs: 0.17977+309
L=2  Nkbl=1  erefs: 0.17977+309
L=3  Nkbl=1  erefs: 0.17977+309
===============================================================================
</basis_specs>

atom: Called for N                     (Z =   7)

read_vps: Pseudopotential generation method:
read_vps: ATM3      Troullier-Martins                       
Total valence charge:    5.00000

read_vps: Pseudopotential includes a core correction:
read_vps: Pseudo-core for xc-correction

xc_check: Exchange-correlation functional:
xc_check: GGA Perdew, Burke & Ernzerhof 1996
V l=0 = -2*Zval/r beyond r=  1.4606
V l=1 = -2*Zval/r beyond r=  1.4606
V l=2 = -2*Zval/r beyond r=  1.4606
V l=3 = -2*Zval/r beyond r=  1.4606
All V_l potentials equal beyond r=  1.4606
This should be close to max(r_c) in ps generation
All pots = -2*Zval/r beyond r=  1.4606

VLOCAL1: 99.0% of the norm of Vloc inside     20.347 Ry
VLOCAL1: 99.9% of the norm of Vloc inside     46.372 Ry
atom: Maximum radius for 4*pi*r*r*local-pseudopot. charge    1.76189
atom: Maximum radius for r*vlocal+2*Zval:    1.53550
GHOST: No ghost state for L =  0
GHOST: No ghost state for L =  1
GHOST: No ghost state for L =  2
GHOST: No ghost state for L =  3

KBgen: Kleinman-Bylander projectors: 
   l= 0   rc=  1.634559   el= -1.363963   Ekb=  5.296955   kbcos=  0.335621
   l= 1   rc=  1.614250   el= -0.521451   Ekb= -5.259161   kbcos= -0.433408
   l= 2   rc=  1.718383   el=  0.001991   Ekb= -1.271464   kbcos= -0.007566
   l= 3   rc=  1.761893   el=  0.003093   Ekb= -0.494769   kbcos= -0.001015

KBgen: Total number of  Kleinman-Bylander projectors:   16
atom: -------------------------------------------------------------------------

atom: SANKEY-TYPE ORBITALS:
atom: Selected multiple-zeta basis: split     

SPLIT: Orbitals with angular momentum L= 0

SPLIT: Basis orbitals for state 2s

SPLIT: PAO cut-off radius determined from an
SPLIT: energy shift=  0.007350 Ry

   izeta = 1
                 lambda =    1.000000
                     rc =    4.071465
                 energy =   -1.356470
                kinetic =    1.176977
    potential(screened) =   -2.533447
       potential(ionic) =   -8.057990

   izeta = 2
                 rmatch =    2.905100
              splitnorm =    0.150000
                 energy =   -1.158343
                kinetic =    1.813009
    potential(screened) =   -2.971352
       potential(ionic) =   -8.901931

SPLIT: Orbitals with angular momentum L= 1

SPLIT: Basis orbitals for state 2p

SPLIT: PAO cut-off radius determined from an
SPLIT: energy shift=  0.007350 Ry

   izeta = 1
                 lambda =    1.000000
                     rc =    4.972977
                 energy =   -0.513884
                kinetic =    3.441732
    potential(screened) =   -3.955616
       potential(ionic) =   -9.287901

   izeta = 2
                 rmatch =    3.054066
              splitnorm =    0.150000
                 energy =   -0.318226
                kinetic =    5.125348
    potential(screened) =   -5.443573
       potential(ionic) =  -11.380999

POLgen: Perturbative polarization orbital with L=  2

POLgen: Polarization orbital for state 2p

   izeta = 1
                     rc =    4.972977
                 energy =    1.607437
                kinetic =    3.268125
    potential(screened) =   -1.660688
       potential(ionic) =   -5.973652
atom: Total number of Sankey-type orbitals: 13

atm_pop: Valence configuration (for local Pseudopot. screening):
 2s( 2.00)                                                            
 2p( 3.00)                                                            
Vna: chval, zval:    5.00000   5.00000

Vna:  Cut-off radius for the neutral-atom potential:   4.972977
comcore: Pseudo-core radius Rcore=  1.554824

atom: _________________________________________________________________________

<basis_specs>
===============================================================================
C                    Z=   6    Mass=  12.010        Charge= 0.17977+309
Lmxo=1 Lmxkb= 3    BasisType=split      Semic=F
L=0  Nsemic=0  Cnfigmx=2
          n=1  nzeta=2  polorb=0
            splnorm:   0.15000    
               vcte:    0.0000    
               rinn:    0.0000    
                rcs:    0.0000      0.0000    
            lambdas:    1.0000      1.0000    
L=1  Nsemic=0  Cnfigmx=2
          n=1  nzeta=2  polorb=1
            splnorm:   0.15000    
               vcte:    0.0000    
               rinn:    0.0000    
                rcs:    0.0000      0.0000    
            lambdas:    1.0000      1.0000    
-------------------------------------------------------------------------------
L=0  Nkbl=1  erefs: 0.17977+309
L=1  Nkbl=1  erefs: 0.17977+309
L=2  Nkbl=1  erefs: 0.17977+309
L=3  Nkbl=1  erefs: 0.17977+309
===============================================================================
</basis_specs>

atom: Called for C                     (Z =   6)

read_vps: Pseudopotential generation method:
read_vps: ATM3      Troullier-Martins                       
Total valence charge:    4.00000

read_vps: Pseudopotential includes a core correction:
read_vps: Pseudo-core for xc-correction

xc_check: Exchange-correlation functional:
xc_check: GGA Perdew, Burke & Ernzerhof 1996
V l=0 = -2*Zval/r beyond r=  1.5227
V l=1 = -2*Zval/r beyond r=  1.5227
V l=2 = -2*Zval/r beyond r=  1.5227
V l=3 = -2*Zval/r beyond r=  1.5038
All V_l potentials equal beyond r=  1.5227
This should be close to max(r_c) in ps generation
All pots = -2*Zval/r beyond r=  1.5227

VLOCAL1: 99.0% of the norm of Vloc inside     18.722 Ry
VLOCAL1: 99.9% of the norm of Vloc inside     42.668 Ry
atom: Maximum radius for 4*pi*r*r*local-pseudopot. charge    1.83678
atom: Maximum radius for r*vlocal+2*Zval:    1.58088
GHOST: No ghost state for L =  0
GHOST: No ghost state for L =  1
GHOST: No ghost state for L =  2
GHOST: No ghost state for L =  3

KBgen: Kleinman-Bylander projectors: 
   l= 0   rc=  1.704034   el= -1.009801   Ekb=  5.335044   kbcos=  0.316824
   l= 1   rc=  1.704034   el= -0.388707   Ekb= -3.785862   kbcos= -0.366464
   l= 2   rc=  1.791422   el=  0.001971   Ekb= -0.970471   kbcos= -0.009212
   l= 3   rc=  1.859892   el=  0.003065   Ekb= -0.399525   kbcos= -0.001223

KBgen: Total number of  Kleinman-Bylander projectors:   16
atom: -------------------------------------------------------------------------

atom: SANKEY-TYPE ORBITALS:
atom: Selected multiple-zeta basis: split     

SPLIT: Orbitals with angular momentum L= 0

SPLIT: Basis orbitals for state 2s

SPLIT: PAO cut-off radius determined from an
SPLIT: energy shift=  0.007350 Ry

   izeta = 1
                 lambda =    1.000000
                     rc =    4.632753
                 energy =   -1.002270
                kinetic =    0.855760
    potential(screened) =   -1.858031
       potential(ionic) =   -5.417575

   izeta = 2
                 rmatch =    3.431921
              splitnorm =    0.150000
                 energy =   -0.867111
                kinetic =    1.300804
    potential(screened) =   -2.167915
       potential(ionic) =   -5.962684

SPLIT: Orbitals with angular momentum L= 1

SPLIT: Basis orbitals for state 2p

SPLIT: PAO cut-off radius determined from an
SPLIT: energy shift=  0.007350 Ry

   izeta = 1
                 lambda =    1.000000
                     rc =    5.658549
                 energy =   -0.381140
                kinetic =    2.399701
    potential(screened) =   -2.780841
       potential(ionic) =   -6.206085

   izeta = 2
                 rmatch =    3.653288
              splitnorm =    0.150000
                 energy =   -0.249149
                kinetic =    3.542762
    potential(screened) =   -3.791911
       potential(ionic) =   -7.581078

POLgen: Perturbative polarization orbital with L=  2

POLgen: Polarization orbital for state 2p

   izeta = 1
                     rc =    5.658549
                 energy =    1.109913
                kinetic =    2.304789
    potential(screened) =   -1.194876
       potential(ionic) =   -4.013592
atom: Total number of Sankey-type orbitals: 13

atm_pop: Valence configuration (for local Pseudopot. screening):
 2s( 2.00)                                                            
 2p( 2.00)                                                            
Vna: chval, zval:    4.00000   4.00000

Vna:  Cut-off radius for the neutral-atom potential:   5.658549
comcore: Pseudo-core radius Rcore=  1.791422

atom: _________________________________________________________________________

prinput: Basis input ----------------------------------------------------------

PAO.BasisType split     

%block ChemicalSpeciesLabel
    1    7 N                       # Species index, atomic number, species label
    2    6 C                       # Species index, atomic number, species label
%endblock ChemicalSpeciesLabel

%block PAO.Basis                 # Define Basis set
N                     2                    # Species label, number of l-shells
 n=2   0   2                         # n, l, Nzeta 
   4.071      2.905   
   1.000      1.000   
 n=2   1   2 P   1                   # n, l, Nzeta, Polarization, NzetaPol
   4.973      3.054   
   1.000      1.000   
C                     2                    # Species label, number of l-shells
 n=2   0   2                         # n, l, Nzeta 
   4.633      3.432   
   1.000      1.000   
 n=2   1   2 P   1                   # n, l, Nzeta, Polarization, NzetaPol
   5.659      3.653   
   1.000      1.000   
%endblock PAO.Basis

prinput: ----------------------------------------------------------------------

coor:   Atomic-coordinates input format  =     Fractional

siesta: Atomic coordinates (Bohr) and species
siesta:     -0.02582   5.28395   0.00000  1        1
siesta:      9.28770  26.79272   0.00000  1        2
siesta:     -0.02582  18.72698   0.00000  1        3
siesta:     -7.01096  17.38257   0.00000  1        4
siesta:    -11.66772  25.44831   0.00000  1        5
siesta:     -4.68258  29.48119   0.00000  1        6
siesta:     -0.02582  34.85847   0.00000  1        7
siesta:     -0.02582   2.59549   0.00000  2        8
siesta:     -2.35420  38.89134   0.00000  2        9
siesta:     -2.35420  41.57980   0.00000  2       10
siesta:      2.30256  38.89134   0.00000  2       11
siesta:      2.30256  41.57980   0.00000  2       12
siesta:      4.63094  34.85847   0.00000  2       13
siesta:      4.63094  37.54693   0.00000  2       14
siesta:      6.95932  30.82560   0.00000  2       15
siesta:      6.95932  33.51406   0.00000  2       16
siesta:      9.28770  29.48119   0.00000  2       17
siesta:     -4.68258  34.85847   0.00000  2       18
siesta:     -4.68258  37.54693   0.00000  2       19
siesta:      2.30256   6.62836   0.00000  2       20
siesta:      2.30256   9.31683   0.00000  2       21
siesta:      4.63094  10.66124   0.00000  2       22
siesta:      4.63094  13.34970   0.00000  2       23
siesta:      6.95932  14.69411   0.00000  2       24
siesta:      6.95932  17.38257   0.00000  2       25
siesta:      9.28770  18.72698   0.00000  2       26
siesta:      9.28770  21.41544   0.00000  2       27
siesta:     11.61608  22.75985   0.00000  2       28
siesta:     11.61608  25.44831   0.00000  2       29
siesta:     -2.35420   6.62836   0.00000  2       30
siesta:     -2.35420   9.31683   0.00000  2       31
siesta:     -0.02582  10.66124   0.00000  2       32
siesta:     -0.02582  13.34970   0.00000  2       33
siesta:      2.30256  14.69411   0.00000  2       34
siesta:      2.30256  17.38257   0.00000  2       35
siesta:      4.63094  18.72698   0.00000  2       36
siesta:      4.63094  21.41544   0.00000  2       37
siesta:      6.95932  22.75985   0.00000  2       38
siesta:      6.95932  25.44831   0.00000  2       39
siesta:     -4.68258  10.66124   0.00000  2       40
siesta:     -4.68258  13.34970   0.00000  2       41
siesta:     -2.35420  14.69411   0.00000  2       42
siesta:     -2.35420  17.38257   0.00000  2       43
siesta:     -0.02582  21.41544   0.00000  2       44
siesta:      2.30256  22.75985   0.00000  2       45
siesta:      2.30256  25.44831   0.00000  2       46
siesta:     -7.01096  14.69411   0.00000  2       47
siesta:     -4.68258  18.72698   0.00000  2       48
siesta:     -4.68258  21.41544   0.00000  2       49
siesta:     -2.35420  22.75985   0.00000  2       50
siesta:     -2.35420  25.44831   0.00000  2       51
siesta:     -9.33934  18.72698   0.00000  2       52
siesta:     -9.33934  21.41544   0.00000  2       53
siesta:     -7.01096  22.75985   0.00000  2       54
siesta:     -7.01096  25.44831   0.00000  2       55
siesta:    -11.66772  22.75985   0.00000  2       56
siesta:     -9.33934  26.79272   0.00000  2       57
siesta:     -9.33934  29.48119   0.00000  2       58
siesta:      4.63094  26.79272   0.00000  2       59
siesta:      4.63094  29.48119   0.00000  2       60
siesta:     -0.02582  26.79272   0.00000  2       61
siesta:     -0.02582  29.48119   0.00000  2       62
siesta:     -4.68258  26.79272   0.00000  2       63
siesta:      2.30256  30.82560   0.00000  2       64
siesta:      2.30256  33.51406   0.00000  2       65
siesta:     -2.35420  30.82560   0.00000  2       66
siesta:     -2.35420  33.51406   0.00000  2       67
siesta:     -7.01096  30.82560   0.00000  2       68
siesta:     -7.01096  33.51406   0.00000  2       69
siesta:     -0.02582  37.54693   0.00000  2       70
siesta:     -0.02582  42.92421   0.00000  2       71
siesta:     -0.02582  45.61267   0.00000  2       72

siesta: System type = slab      

initatomlists: Number of atoms, orbitals, and projectors:     72   936  1152

siesta: ******************** Simulation parameters ****************************
siesta:
siesta: The following are some of the parameters of the simulation.
siesta: A complete list of the parameters used, including default values,
siesta: can be found in file out.fdf
siesta:
redata: Non-Collinear-spin run           =     F
redata: SpinPolarized (Up/Down) run      =     F
redata: Number of spin components        =     1
redata: Long output                      =     F
redata: Number of Atomic Species         =        2
redata: Charge density info will appear in .RHO file
redata: Write Mulliken Pop.              =     NO
redata: Mesh Cutoff                      =   200.0000  Ry
redata: Net charge of the system         =     0.0000 |e|
redata: Max. number of SCF Iter          =      500
redata: SCF convergence failure will abort job
redata: Performing Pulay mixing using    =    10 iterations
redata: Mix DM in first SCF step ?       =     F
redata: Write Pulay info on disk?        =     F
redata: Discard 1st Pulay DM after  kick =     F
redata: New DM Mixing Weight             =     0.0500
redata: New DM Occupancy tolerance       = 0.000000000001
redata: No kicks to SCF
redata: DM Mixing Weight for Kicks       =     0.5000
redata: DM Tolerance for SCF             =     0.000100
redata: Require Energy convergence for SCF =     F
redata: DM Energy tolerance for SCF      =     0.000100 eV
redata: Require Harris convergence for SCF =     F
redata: DM Harris energy tolerance for SCF =     0.000100 eV
redata: Using Saved Data (generic)   =     F
redata: Use continuation files for DM    =     T
redata: Neglect nonoverlap interactions  =     F
redata: Method of Calculation            =     Diagonalization
redata: Divide and Conquer               =     T
redata: Electronic Temperature           =     0.0019  Ry
redata: Fix the spin of the system       =     F
redata: Dynamics option                  =     Verlet MD run
redata: Initial MD time step             =        1
redata:   Final MD time step             =        1
redata: Length of MD time step           =     1.0000  fs
redata: Initial Temperature of MD run    =     0.0000  K
redata: Perform a MD quench              =     F
redata: ***********************************************************************
Total number of electrons:   295.000000
Total ionic charge:   295.000000

* ProcessorY, Blocksize:    3  24

k-point displ. along   1 input, could be:     0.50    0.00
k-point displ. along   2 input, could be:     0.50    0.00
 Kpoints in:          231 . Kpoints trimmed:          231

siesta: k-grid: Number of k-points =   231
siesta: k-grid: Cutoff (effective) =     5.000 Ang
siesta: k-grid: Supercell and displacements
siesta: k-grid:   21   0   0      0.500
siesta: k-grid:    0  21   0      0.500
siesta: k-grid:    0   0   1      0.000
Naive supercell factors:     2    2    2

superc: Internal auxiliary supercell:     2 x     2 x     2  =       8
superc: Number of atoms, orbitals, and projectors:    576   7488   9216

* Maximum dynamic memory allocated =     4 MB

siesta:                 ==============================
                            Begin MD step =      1
                        ==============================

superc: Internal auxiliary supercell:     2 x     2 x     2  =       8
superc: Number of atoms, orbitals, and projectors:    576   7488   9216

outcell: Unit cell vectors (Ang):
       12.804619    7.392750    0.000000
        0.000000   14.785500    0.000000
        0.000000    0.000000   10.000000

outcell: Cell vector modules (Ang)   :   14.785500   14.785500   10.000000
outcell: Cell angles (23,13,12) (deg):     90.0000     90.0000     60.0000
outcell: Cell volume (Ang**3)        :   1893.2269
New_DM. Step:     1
Initializing Density Matrix...

InitMesh: MESH =   120 x   120 x    90 =     1296000
InitMesh: Mesh cutoff (required, used) =   200.000   223.865 Ry

* Maximum dynamic memory allocated =   136 MB

stepf: Fermi-Dirac step function

siesta: Program's energy decomposition (eV):
siesta: Ebs     =     -6013.341953
siesta: Eions   =     19528.238980
siesta: Ena     =      4783.750611
siesta: Ekin    =      6965.634232
siesta: Enl     =       416.314463
siesta: DEna    =        -0.000015
siesta: DUscf   =         0.000000
siesta: DUext   =         0.000000
siesta: Exc     =     -4344.254002
siesta: eta*DQ  =         0.000000
siesta: Emadel  =         0.000000
siesta: Emeta   =         0.000000
siesta: Emolmec =         0.000000
siesta: Ekinion =         0.000000
siesta: Eharris =    -11358.133310
siesta: Etot    =    -11706.793691
siesta: FreeEng =    -11706.793691

siesta: iscf   Eharris(eV)      E_KS(eV)   FreeEng(eV)   dDmax  Ef(eV)
siesta:    1   -11358.1333   -11706.7937   -11706.7937  5.4774 -7.4482
timer: Routine,Calls,Time,% = IterSCF        1    3013.665  99.59
elaps: Routine,Calls,Wall,% = IterSCF        1     251.734  99.59
siesta:    2   -15085.8783   -10771.1004   -10771.1355  6.1332 -2.8504
siesta:    3   -11385.0506   -11424.1841   -11424.2487  1.5324 -3.6074
siesta:    4   -11280.6343   -11384.6704   -11384.7262  1.1932 -4.0758
siesta:    5   -11249.5929   -11343.1726   -11343.2089  1.2205 -4.4349
siesta:    6   -11233.8012   -11315.7393   -11315.7933  0.9648 -4.4987
siesta:    7   -11227.4499   -11300.4788   -11300.5283  0.9219 -4.4377
siesta:    8   -11217.7790   -11285.7935   -11285.8485  0.7092 -4.4826
siesta:    9   -11215.3493   -11276.1682   -11276.2151  0.8014 -4.3340
siesta:   10   -11212.3229   -11255.3415   -11255.3966  0.6729 -4.2942
siesta:   11   -11212.2826   -11239.0315   -11239.0954  0.4192 -4.1984
siesta:   12   -11212.0328   -11217.9365   -11217.9862  0.3483 -4.1367
siesta:   13   -11211.4147   -11212.3627   -11212.3929  0.3687 -4.1707
siesta:   14   -11211.5324   -11211.5895   -11211.6307  0.2152 -4.2764
siesta:   15   -11211.1843   -11210.6206   -11210.6874  0.1321 -4.2738
siesta:   16   -11211.0097   -11209.4520   -11209.5107  0.0833 -4.3027
siesta:   17   -11210.8999   -11207.9870   -11208.0440  0.0666 -4.3013
siesta:   18   -11210.8288   -11207.5457   -11207.6001  0.0505 -4.2988
siesta:   19   -11210.8188   -11208.0882   -11208.1451  0.0380 -4.2989
siesta:   20   -11210.8080   -11208.9852   -11209.0432  0.0288 -4.2973
siesta:   21   -11210.8057   -11209.4142   -11209.4739  0.0246 -4.2980
siesta:   22   -11210.8017   -11209.5854   -11209.6462  0.0151 -4.2956
siesta:   23   -11210.8006   -11210.3431   -11210.4031  0.0079 -4.2944
siesta:   24   -11210.7998   -11210.5764   -11210.6359  0.0072 -4.2939
siesta:   25   -11210.7998   -11210.5924   -11210.6523  0.0048 -4.2931
siesta:   26   -11210.7992   -11210.6321   -11210.6917  0.0027 -4.2929
siesta:   27   -11210.7992   -11210.7188   -11210.7787  0.0026 -4.2929
siesta:   28   -11210.7989   -11210.7245   -11210.7843  0.0014 -4.2934
siesta:   29   -11210.7989   -11210.7734   -11210.8334  0.0008 -4.2936
siesta:   30   -11210.7989   -11210.8299   -11210.8899  0.0005 -4.2938
siesta:   31   -11210.7990   -11210.8281   -11210.8880  0.0004 -4.2937
siesta:   32   -11210.7990   -11210.8167   -11210.8766  0.0003 -4.2937
siesta:   33   -11210.7990   -11210.8126   -11210.8725  0.0002 -4.2936
siesta:   34   -11210.7990   -11210.8105   -11210.8704  0.0001 -4.2936
siesta:   35   -11210.7989   -11210.8076   -11210.8675  0.0001 -4.2936

siesta: E_KS(eV) =           -11210.8069

siesta: E_KS - E_eggbox =    -11210.8069

siesta: Atomic forces (eV/Ang):
----------------------------------------
   Tot   -0.193916    0.140275    0.000000
----------------------------------------
   Max  680.224792
   Res  165.364640    sqrt( Sum f_i^2 / 3N )
----------------------------------------
   Max  680.224792    constrained

Stress-tensor-Voigt (kbar):     -688.02    -2922.81       -0.12        0.39        0.00        0.00
(Free)E + p*V (eV/cell)    -9788.5768
Target enthalpy (eV/cell)   -11210.8668

siesta: Stress tensor (static) (eV/Ang**3):
        -0.429424    0.000242    0.000000
         0.000242   -1.824258    0.000000
         0.000000    0.000000   -0.000073

siesta: Pressure (static):       1203.65097709  kBar

siesta: Stress tensor (total) (eV/Ang**3):
        -0.429424    0.000242    0.000000
         0.000242   -1.824258    0.000000
         0.000000    0.000000   -0.000073

siesta: Pressure (total):       1203.65097709  kBar

siesta: Temp_ion =       0.000 K

* Maximum dynamic memory allocated =   149 MB
Computing bands...

siesta: Program's energy decomposition (eV):
siesta: Ebs     =     -4748.611989
siesta: Eions   =     19528.238980
siesta: Ena     =      4783.750611
siesta: Ekin    =      9967.166934
siesta: Enl     =     -1245.930572
siesta: DEna    =      -774.939108
siesta: DUscf   =       101.012846
siesta: DUext   =         0.000000
siesta: Exc     =     -4513.628596
siesta: eta*DQ  =         0.000000
siesta: Emadel  =         0.000000
siesta: Emeta   =         0.000000
siesta: Emolmec =         0.000000
siesta: Ekinion =         0.000000
siesta: Eharris =    -11210.798945
siesta: Etot    =    -11210.806866
siesta: FreeEng =    -11210.866779

siesta: Final energy (eV):
siesta:  Band Struct. =   -4748.611989
siesta:       Kinetic =    9967.166934
siesta:       Hartree =   32518.647144
siesta:    Ext. field =       0.000000
siesta:   Exch.-corr. =   -4513.628596
siesta:  Ion-electron =  -74630.040347
siesta:       Ion-ion =   25447.048000
siesta:       Ekinion =       0.000000
siesta:         Total =  -11210.806866

siesta: Atomic forces (eV/Ang):
siesta:      1   -0.402205 -125.942864    0.000000
siesta:      2    0.870063    1.633313    0.000000
siesta:      3    0.793635  680.224792    0.000000
siesta:      4   -0.319646    0.110101    0.000000
siesta:      5    0.636363   -5.354383    0.000000
siesta:      6    1.927345   -3.573684    0.000000
siesta:      7    0.340654  123.353217    0.000000
siesta:      8   -0.889492  546.682616    0.000000
siesta:      9    2.768910  127.252124    0.000000
siesta:     10  -17.847083 -549.908056    0.000000
siesta:     11   -2.263650  127.561730    0.000000
siesta:     12   17.619082 -549.735638    0.000000
siesta:     13   26.735112    6.617809    0.000000
siesta:     14   34.292747 -548.832502    0.000000
siesta:     15    1.425088   -0.254130    0.000000
siesta:     16   -2.538895    1.609444    0.000000
siesta:     17    0.196888   -1.130694    0.000000
siesta:     18  -26.611348    6.607271    0.000000
siesta:     19  -33.558044 -548.582734    0.000000
siesta:     20    6.395094  550.464630    0.000000
siesta:     21   -0.909582 -122.972593    0.000000
siesta:     22   35.045410  548.965146    0.000000
siesta:     23   26.296249   -6.217704    0.000000
siesta:     24   -2.864322   -2.001424    0.000000
siesta:     25    1.847393   -0.134302    0.000000
siesta:     26   -1.335634    0.039265    0.000000
siesta:     27    2.085986   -2.391134    0.000000
siesta:     28   -0.242408    7.333330    0.000000
siesta:     29   -1.261994   -5.602221    0.000000
siesta:     30   -7.185773  550.581471    0.000000
siesta:     31    1.324277 -123.353368    0.000000
siesta:     32   -0.187391  550.589095    0.000000
siesta:     33    0.063581 -128.152008    0.000000
siesta:     34   18.165759  557.843760    0.000000
siesta:     35   25.967261   -7.102176    0.000000
siesta:     36   -0.734616    2.874674    0.000000
siesta:     37    0.229154   -0.275401    0.000000
siesta:     38    0.189064    0.767185    0.000000
siesta:     39    0.324842   -0.123977    0.000000
siesta:     40  -36.296988  549.901348    0.000000
siesta:     41  -26.080439   -6.559252    0.000000
siesta:     42  -17.394536  558.360267    0.000000
siesta:     43  -26.944505   -7.132818    0.000000
siesta:     44   -0.195710    0.947545    0.000000
siesta:     45    0.331854   -0.184390    0.000000
siesta:     46   -0.533814   -0.253745    0.000000
siesta:     47    1.497898    0.194853    0.000000
siesta:     48    0.424872    2.057166    0.000000
siesta:     49   -0.903715   -0.226855    0.000000
siesta:     50   -0.157896   -0.441029    0.000000
siesta:     51    0.342222    0.399860    0.000000
siesta:     52    0.955544   -1.102909    0.000000
siesta:     53   -0.513066   -2.363511    0.000000
siesta:     54    0.468062    0.332846    0.000000
siesta:     55    0.125903    0.194585    0.000000
siesta:     56   -0.264772    6.824175    0.000000
siesta:     57   -2.038303    0.468189    0.000000
siesta:     58    0.884738   -0.108035    0.000000
siesta:     59    1.350648    0.158671    0.000000
siesta:     60   -2.104175   -2.282829    0.000000
siesta:     61    0.054158   -1.096328    0.000000
siesta:     62    1.107874 -569.958812    0.000000
siesta:     63   -0.661010    0.997068    0.000000
siesta:     64   24.680102    2.812036    0.000000
siesta:     65   13.269783 -560.396137    0.000000
siesta:     66  -25.027119    3.687647    0.000000
siesta:     67  -13.080894 -560.159019    0.000000
siesta:     68   -1.432811   -0.134178    0.000000
siesta:     69    2.752919    1.262349    0.000000
siesta:     70   -0.197531 -543.103901    0.000000
siesta:     71   -0.236916  114.592744    0.000000
siesta:     72   -0.764166 -647.017309    0.000000
siesta: ----------------------------------------
siesta:    Tot   -0.193916    0.140275    0.000000

siesta: Stress tensor (static) (eV/Ang**3):
siesta:    -0.429424    0.000242    0.000000
siesta:     0.000242   -1.824258    0.000000
siesta:     0.000000    0.000000   -0.000073

siesta: Cell volume =       1893.226884 Ang**3

siesta: Pressure (static):
siesta:                Solid            Molecule  Units
siesta:           0.00818209          0.12946809  Ry/Bohr**3
siesta:           0.75125173         11.88731968  eV/Ang**3
siesta:        1203.65097709      19045.79169427  kBar
(Free)E+ p_basis*V_orbitals  =      -11181.129905
(Free)Eharris+ p_basis*V_orbitals  =      -11181.121248

siesta: Electric dipole (a.u.)  =    0.000000    0.000000    0.000000
siesta: Electric dipole (Debye) =    0.000000    0.000000    0.000000

* Maximum dynamic memory allocated : Node    0 =   149 MB
* Maximum dynamic memory allocated : Node    1 =    58 MB
* Maximum dynamic memory allocated : Node    2 =    59 MB
* Maximum dynamic memory allocated : Node    3 =   136 MB
* Maximum dynamic memory allocated : Node    4 =   148 MB
* Maximum dynamic memory allocated : Node    5 =    54 MB
* Maximum dynamic memory allocated : Node    6 =    55 MB
* Maximum dynamic memory allocated : Node    7 =   140 MB
* Maximum dynamic memory allocated : Node    8 =   132 MB
* Maximum dynamic memory allocated : Node    9 =    54 MB
* Maximum dynamic memory allocated : Node   10 =    55 MB
* Maximum dynamic memory allocated : Node   11 =   127 MB

* Maximum memory occured during matrixMtoO                    

timer: CPU execution times:
timer:  Routine       Calls   Time/call    Tot.time        %
timer:  siesta            1  103183.636  103183.636   100.00
timer:  Setup             1       3.357       3.357     0.00
timer:  bands             3     225.669     677.008     0.66
timer:  writewave         1       0.023       0.023     0.00
timer:  KSV_init          1       0.005       0.005     0.00
timer:  IterMD            1  102496.368  102496.368    99.33
timer:  hsparse           1       0.171       0.171     0.00
timer:  overlap           1       5.737       5.737     0.01
timer:  IterSCF          35    2924.818  102368.628    99.21
timer:  kinefsm           2       2.918       5.835     0.01
timer:  nlefsm            2      18.866      37.732     0.04
timer:  DHSCF            36      66.041    2377.481     2.30
timer:  DHSCF1            1       0.904       0.904     0.00
timer:  DHSCF2            1      24.974      24.974     0.02
timer:  REORD           290       0.002       0.672     0.00
timer:  POISON           37       0.449      16.614     0.02
timer:  DHSCF3           36      64.704    2329.332     2.26
timer:  rhoofd           36      13.300     478.790     0.46
timer:  cellXC           36       2.399      86.376     0.08
timer:  vmat             36      31.633    1138.801     1.10
timer:  MolMec            2       0.000       0.000     0.00
timer:  diagon           35    2857.497  100012.399    96.93
timer:  c-eigval       8206       5.592   45888.391    44.47
timer:  c-buildHS      8206       0.033     274.854     0.27
timer:  cdiag         16291       5.688   92670.113    89.81
timer:  cdiag1        16291       0.260    4229.523     4.10
timer:  cdiag2        16291       1.832   29846.797    28.93
timer:  cdiag3        16291       3.393   55272.451    53.57
timer:  cdiag4        16291       0.088    1426.618     1.38
timer:  c-eigvec       8085       5.848   47284.203    45.83
timer:  c-buildD       8085       0.924    7472.136     7.24
timer:  DHSCF4            1      22.033      22.033     0.02
timer:  dfscf             1      20.585      20.585     0.02
timer:  overfsm           1       0.287       0.287     0.00
timer:  optical           1       6.301       6.301     0.01
  

elaps: ELAPSED times:
elaps:  Routine       Calls   Time/call    Tot.time        %
elaps:  siesta            1    8618.814    8618.814   100.00
elaps:  Setup             1       0.280       0.280     0.00
elaps:  bands             3      18.865      56.595     0.66
elaps:  writewave         1       0.002       0.002     0.00
elaps:  KSV_init          1       0.000       0.000     0.00
elaps:  IterMD            1    8561.407    8561.407    99.33
elaps:  hsparse           1       0.016       0.016     0.00
elaps:  overlap           1       0.713       0.713     0.01
elaps:  IterSCF          35     244.307    8550.738    99.21
elaps:  kinefsm           2       0.363       0.726     0.01
elaps:  nlefsm            2       1.646       3.293     0.04
elaps:  DHSCF            36       5.567     200.398     2.33
elaps:  DHSCF1            1       0.077       0.077     0.00
elaps:  DHSCF2            1       2.085       2.085     0.02
elaps:  REORD           290       0.000       0.085     0.00
elaps:  POISON           37       0.038       1.407     0.02
elaps:  DHSCF3           36       5.406     194.603     2.26
elaps:  rhoofd           36       2.493      89.734     1.04
elaps:  cellXC           36       0.200       7.196     0.08
elaps:  vmat             36       2.643      95.160     1.10
elaps:  MolMec            2       0.000       0.000     0.00
elaps:  diagon           35     238.690    8354.139    96.93
elaps:  c-eigval       8206       0.467    3832.952    44.47
elaps:  c-buildHS      8206       0.003      28.531     0.33
elaps:  cdiag         16291       0.471    7666.143    88.95
elaps:  cdiag1        16291       0.021     346.005     4.01
elaps:  cdiag2        16291       0.153    2495.179    28.95
elaps:  cdiag3        16291       0.284    4623.908    53.65
elaps:  cdiag4        16291       0.007     114.278     1.33
elaps:  c-eigvec       8085       0.481    3885.917    45.09
elaps:  c-buildD       8085       0.085     687.457     7.98
elaps:  DHSCF4            1       3.595       3.595     0.04
elaps:  dfscf             1       3.404       3.404     0.04
elaps:  overfsm           1       0.030       0.030     0.00
elaps:  optical           1       0.000       0.000     0.00
  
>> End of run:   7-MAY-2016   0:42:37
