Siesta Version:                                        siesta-3.2-pl-3
Architecture  : x86_64-unknown-linux-gnu--unknown
Compiler flags: mpiifort -g -O2 -fPIC -xSSE4.1 -fp-model source -shared-intel 
PARALLEL version

* Running on   12 nodes in parallel
>> Start of run:   5-MAY-2016  19:07:24

                           ***********************       
                           *  WELCOME TO SIESTA  *       
                           ***********************       

reinit: Reading from standard input
************************** Dump of input data file ****************************
#(1) General system descriptors
SystemName            GRP_doping    # Descriptive name of the system
SystemLabel           GRP_doping    # Short name for naming files
%include STRUCT.fdf
%include KPT.fdf
%include BASIS.fdf
#%include TS.fdf # for transiesta calculation
#(4) DFT, Grid, SCF
XC.functional         GGA           # LDA or GGA (default = LDA)
XC.authors            PBE           # CA (Ceperley-Aldr) = PZ
                                    #    (Perdew-Zunger) - LDA - Default
                                    # PW92 (Perdew-Wang-92) - LDA
                                    # PBE (Perdew-Burke-Ernzerhof) - GGA
MeshCutoff            200.000000    Ry      # Default: 50.0 Ry ~ 0.444 Bohr
                                    #         100.0 Ry ~ 0.314 Bohr
MaxSCFIterations      500           # Default: 50
DM.MixingWeight       0.05          # Default: 0.25
DM.NumberPulay        10            # Default: 0
DM.PulayOnFile        F             # SystemLabel.P1, SystemLabel.P2
DM.Tolerance          1.d-4         # Default: 1.d-4
DM.UseSaveDM          .true.        # because of the bug
SCFMustConverge       .true.
NeglNonOverlapInt     F             # Default: F
#(5) Eigenvalue problem: order-N or diagonalization
SolutionMethod        Diagon        # or Transiesta
ElectronicTemperature 300.0 K       # Default: 300.0 K
#(6) Molecular dynamics and relaxations
#MD.TypeOfRun          CG            # Type of dynamics:
#MD.VariableCell       F
#MD.NumCGsteps         0           # 0 for single-point / 100 for gopt
#MD.MaxCGDispl         0.2 Bohr      # Default: 0.2 Bohr
#MD.MaxForceTol        0.02 eV/Ang   # Default: 0.04 eV/Ang
#MD.MaxStressTol       1.0 GPa       # Default: 1.0 GPa
# Geometry Constraints
#%block GeometryConstraints
#	position from 1 to 44
#%endblock GeometryConstraints
BandLinesScale   pi/a
%block BandLines
 1   0.00000000  0.00000000  0.00000000
50   0.00000000  0.07809418  0.00000000
50   0.04509075  0.07809242  0.00000000
20   0.00000000  0.00000000  0.00000000
%endblock BandLines
************************** End of input data file *****************************

reinit: -----------------------------------------------------------------------
reinit: System Name: GRP_doping
reinit: -----------------------------------------------------------------------
reinit: System Label: GRP_doping                                                  
reinit: -----------------------------------------------------------------------

initatom: Reading input for the pseudopotentials and atomic orbitals ----------
 Species number:            1  Label: N Atomic number:           7
 Species number:            2  Label: C Atomic number:           6
Ground state valence configuration:   2s02  2p03
Reading pseudopotential information in formatted form from N.psf

Valence configuration for pseudopotential generation:
2s( 2.00) rc: 1.48
2p( 3.00) rc: 1.48
3d( 0.00) rc: 1.48
4f( 0.00) rc: 1.48
Ground state valence configuration:   2s02  2p02
Reading pseudopotential information in formatted form from C.psf

Valence configuration for pseudopotential generation:
2s( 2.00) rc: 1.54
2p( 2.00) rc: 1.54
3d( 0.00) rc: 1.54
4f( 0.00) rc: 1.54
For N, standard SIESTA heuristics set lmxkb to 3
 (one more than the basis l, including polarization orbitals).
Use PS.lmax or PS.KBprojectors blocks to override.
For C, standard SIESTA heuristics set lmxkb to 3
 (one more than the basis l, including polarization orbitals).
Use PS.lmax or PS.KBprojectors blocks to override.

<basis_specs>
===============================================================================
N                    Z=   7    Mass=  14.010        Charge= 0.17977+309
Lmxo=1 Lmxkb= 3    BasisType=split      Semic=F
L=0  Nsemic=0  Cnfigmx=2
          n=1  nzeta=2  polorb=0
            splnorm:   0.15000    
               vcte:    0.0000    
               rinn:    0.0000    
                rcs:    0.0000      0.0000    
            lambdas:    1.0000      1.0000    
L=1  Nsemic=0  Cnfigmx=2
          n=1  nzeta=2  polorb=1
            splnorm:   0.15000    
               vcte:    0.0000    
               rinn:    0.0000    
                rcs:    0.0000      0.0000    
            lambdas:    1.0000      1.0000    
-------------------------------------------------------------------------------
L=0  Nkbl=1  erefs: 0.17977+309
L=1  Nkbl=1  erefs: 0.17977+309
L=2  Nkbl=1  erefs: 0.17977+309
L=3  Nkbl=1  erefs: 0.17977+309
===============================================================================
</basis_specs>

atom: Called for N                     (Z =   7)

read_vps: Pseudopotential generation method:
read_vps: ATM3      Troullier-Martins                       
Total valence charge:    5.00000

read_vps: Pseudopotential includes a core correction:
read_vps: Pseudo-core for xc-correction

xc_check: Exchange-correlation functional:
xc_check: GGA Perdew, Burke & Ernzerhof 1996
V l=0 = -2*Zval/r beyond r=  1.4606
V l=1 = -2*Zval/r beyond r=  1.4606
V l=2 = -2*Zval/r beyond r=  1.4606
V l=3 = -2*Zval/r beyond r=  1.4606
All V_l potentials equal beyond r=  1.4606
This should be close to max(r_c) in ps generation
All pots = -2*Zval/r beyond r=  1.4606

VLOCAL1: 99.0% of the norm of Vloc inside     20.347 Ry
VLOCAL1: 99.9% of the norm of Vloc inside     46.372 Ry
atom: Maximum radius for 4*pi*r*r*local-pseudopot. charge    1.76189
atom: Maximum radius for r*vlocal+2*Zval:    1.53550
GHOST: No ghost state for L =  0
GHOST: No ghost state for L =  1
GHOST: No ghost state for L =  2
GHOST: No ghost state for L =  3

KBgen: Kleinman-Bylander projectors: 
   l= 0   rc=  1.634559   el= -1.363963   Ekb=  5.296955   kbcos=  0.335621
   l= 1   rc=  1.614250   el= -0.521451   Ekb= -5.259161   kbcos= -0.433408
   l= 2   rc=  1.718383   el=  0.001991   Ekb= -1.271464   kbcos= -0.007566
   l= 3   rc=  1.761893   el=  0.003093   Ekb= -0.494769   kbcos= -0.001015

KBgen: Total number of  Kleinman-Bylander projectors:   16
atom: -------------------------------------------------------------------------

atom: SANKEY-TYPE ORBITALS:
atom: Selected multiple-zeta basis: split     

SPLIT: Orbitals with angular momentum L= 0

SPLIT: Basis orbitals for state 2s

SPLIT: PAO cut-off radius determined from an
SPLIT: energy shift=  0.007350 Ry

   izeta = 1
                 lambda =    1.000000
                     rc =    4.071465
                 energy =   -1.356470
                kinetic =    1.176977
    potential(screened) =   -2.533447
       potential(ionic) =   -8.057990

   izeta = 2
                 rmatch =    2.905100
              splitnorm =    0.150000
                 energy =   -1.158343
                kinetic =    1.813009
    potential(screened) =   -2.971352
       potential(ionic) =   -8.901931

SPLIT: Orbitals with angular momentum L= 1

SPLIT: Basis orbitals for state 2p

SPLIT: PAO cut-off radius determined from an
SPLIT: energy shift=  0.007350 Ry

   izeta = 1
                 lambda =    1.000000
                     rc =    4.972977
                 energy =   -0.513884
                kinetic =    3.441732
    potential(screened) =   -3.955616
       potential(ionic) =   -9.287901

   izeta = 2
                 rmatch =    3.054066
              splitnorm =    0.150000
                 energy =   -0.318226
                kinetic =    5.125348
    potential(screened) =   -5.443573
       potential(ionic) =  -11.380999

POLgen: Perturbative polarization orbital with L=  2

POLgen: Polarization orbital for state 2p

   izeta = 1
                     rc =    4.972977
                 energy =    1.607437
                kinetic =    3.268125
    potential(screened) =   -1.660688
       potential(ionic) =   -5.973652
atom: Total number of Sankey-type orbitals: 13

atm_pop: Valence configuration (for local Pseudopot. screening):
 2s( 2.00)                                                            
 2p( 3.00)                                                            
Vna: chval, zval:    5.00000   5.00000

Vna:  Cut-off radius for the neutral-atom potential:   4.972977
comcore: Pseudo-core radius Rcore=  1.554824

atom: _________________________________________________________________________

<basis_specs>
===============================================================================
C                    Z=   6    Mass=  12.010        Charge= 0.17977+309
Lmxo=1 Lmxkb= 3    BasisType=split      Semic=F
L=0  Nsemic=0  Cnfigmx=2
          n=1  nzeta=2  polorb=0
            splnorm:   0.15000    
               vcte:    0.0000    
               rinn:    0.0000    
                rcs:    0.0000      0.0000    
            lambdas:    1.0000      1.0000    
L=1  Nsemic=0  Cnfigmx=2
          n=1  nzeta=2  polorb=1
            splnorm:   0.15000    
               vcte:    0.0000    
               rinn:    0.0000    
                rcs:    0.0000      0.0000    
            lambdas:    1.0000      1.0000    
-------------------------------------------------------------------------------
L=0  Nkbl=1  erefs: 0.17977+309
L=1  Nkbl=1  erefs: 0.17977+309
L=2  Nkbl=1  erefs: 0.17977+309
L=3  Nkbl=1  erefs: 0.17977+309
===============================================================================
</basis_specs>

atom: Called for C                     (Z =   6)

read_vps: Pseudopotential generation method:
read_vps: ATM3      Troullier-Martins                       
Total valence charge:    4.00000

read_vps: Pseudopotential includes a core correction:
read_vps: Pseudo-core for xc-correction

xc_check: Exchange-correlation functional:
xc_check: GGA Perdew, Burke & Ernzerhof 1996
V l=0 = -2*Zval/r beyond r=  1.5227
V l=1 = -2*Zval/r beyond r=  1.5227
V l=2 = -2*Zval/r beyond r=  1.5227
V l=3 = -2*Zval/r beyond r=  1.5038
All V_l potentials equal beyond r=  1.5227
This should be close to max(r_c) in ps generation
All pots = -2*Zval/r beyond r=  1.5227

VLOCAL1: 99.0% of the norm of Vloc inside     18.722 Ry
VLOCAL1: 99.9% of the norm of Vloc inside     42.668 Ry
atom: Maximum radius for 4*pi*r*r*local-pseudopot. charge    1.83678
atom: Maximum radius for r*vlocal+2*Zval:    1.58088
GHOST: No ghost state for L =  0
GHOST: No ghost state for L =  1
GHOST: No ghost state for L =  2
GHOST: No ghost state for L =  3

KBgen: Kleinman-Bylander projectors: 
   l= 0   rc=  1.704034   el= -1.009801   Ekb=  5.335044   kbcos=  0.316824
   l= 1   rc=  1.704034   el= -0.388707   Ekb= -3.785862   kbcos= -0.366464
   l= 2   rc=  1.791422   el=  0.001971   Ekb= -0.970471   kbcos= -0.009212
   l= 3   rc=  1.859892   el=  0.003065   Ekb= -0.399525   kbcos= -0.001223

KBgen: Total number of  Kleinman-Bylander projectors:   16
atom: -------------------------------------------------------------------------

atom: SANKEY-TYPE ORBITALS:
atom: Selected multiple-zeta basis: split     

SPLIT: Orbitals with angular momentum L= 0

SPLIT: Basis orbitals for state 2s

SPLIT: PAO cut-off radius determined from an
SPLIT: energy shift=  0.007350 Ry

   izeta = 1
                 lambda =    1.000000
                     rc =    4.632753
                 energy =   -1.002270
                kinetic =    0.855760
    potential(screened) =   -1.858031
       potential(ionic) =   -5.417575

   izeta = 2
                 rmatch =    3.431921
              splitnorm =    0.150000
                 energy =   -0.867111
                kinetic =    1.300804
    potential(screened) =   -2.167915
       potential(ionic) =   -5.962684

SPLIT: Orbitals with angular momentum L= 1

SPLIT: Basis orbitals for state 2p

SPLIT: PAO cut-off radius determined from an
SPLIT: energy shift=  0.007350 Ry

   izeta = 1
                 lambda =    1.000000
                     rc =    5.658549
                 energy =   -0.381140
                kinetic =    2.399701
    potential(screened) =   -2.780841
       potential(ionic) =   -6.206085

   izeta = 2
                 rmatch =    3.653288
              splitnorm =    0.150000
                 energy =   -0.249149
                kinetic =    3.542762
    potential(screened) =   -3.791911
       potential(ionic) =   -7.581078

POLgen: Perturbative polarization orbital with L=  2

POLgen: Polarization orbital for state 2p

   izeta = 1
                     rc =    5.658549
                 energy =    1.109913
                kinetic =    2.304789
    potential(screened) =   -1.194876
       potential(ionic) =   -4.013592
atom: Total number of Sankey-type orbitals: 13

atm_pop: Valence configuration (for local Pseudopot. screening):
 2s( 2.00)                                                            
 2p( 2.00)                                                            
Vna: chval, zval:    4.00000   4.00000

Vna:  Cut-off radius for the neutral-atom potential:   5.658549
comcore: Pseudo-core radius Rcore=  1.791422

atom: _________________________________________________________________________

prinput: Basis input ----------------------------------------------------------

PAO.BasisType split     

%block ChemicalSpeciesLabel
    1    7 N                       # Species index, atomic number, species label
    2    6 C                       # Species index, atomic number, species label
%endblock ChemicalSpeciesLabel

%block PAO.Basis                 # Define Basis set
N                     2                    # Species label, number of l-shells
 n=2   0   2                         # n, l, Nzeta 
   4.071      2.905   
   1.000      1.000   
 n=2   1   2 P   1                   # n, l, Nzeta, Polarization, NzetaPol
   4.973      3.054   
   1.000      1.000   
C                     2                    # Species label, number of l-shells
 n=2   0   2                         # n, l, Nzeta 
   4.633      3.432   
   1.000      1.000   
 n=2   1   2 P   1                   # n, l, Nzeta, Polarization, NzetaPol
   5.659      3.653   
   1.000      1.000   
%endblock PAO.Basis

prinput: ----------------------------------------------------------------------

coor:   Atomic-coordinates input format  =     Fractional

siesta: Atomic coordinates (Bohr) and species
siesta:      6.95932  30.82560   0.00000  1        1
siesta:      9.28770  29.48119   0.00000  1        2
siesta:      2.30256   9.31683   0.00000  1        3
siesta:     -0.02582  10.66124   0.00000  1        4
siesta:     -0.02582  13.34970   0.00000  1        5
siesta:      2.30256  14.69411   0.00000  1        6
siesta:      2.30256  17.38257   0.00000  1        7
siesta:      4.63094  18.72698   0.00000  1        8
siesta:      4.63094  21.41544   0.00000  1        9
siesta:     -2.35420  14.69411   0.00000  1       10
siesta:     -0.02582  18.72698   0.00000  1       11
siesta:      2.30256  22.75985   0.00000  1       12
siesta:      2.30256  25.44831   0.00000  1       13
siesta:      4.63094  29.48119   0.00000  1       14
siesta:     -0.02582  26.79272   0.00000  1       15
siesta:      2.30256  30.82560   0.00000  1       16
siesta:     -0.02582   2.59549   0.00000  2       17
siesta:     -0.02582   5.28395   0.00000  2       18
siesta:     -2.35420  38.89134   0.00000  2       19
siesta:     -2.35420  41.57980   0.00000  2       20
siesta:      2.30256  38.89134   0.00000  2       21
siesta:      2.30256  41.57980   0.00000  2       22
siesta:      4.63094  34.85847   0.00000  2       23
siesta:      4.63094  37.54693   0.00000  2       24
siesta:      6.95932  33.51406   0.00000  2       25
siesta:      9.28770  26.79272   0.00000  2       26
siesta:     -4.68258  34.85847   0.00000  2       27
siesta:     -4.68258  37.54693   0.00000  2       28
siesta:      2.30256   6.62836   0.00000  2       29
siesta:      4.63094  10.66124   0.00000  2       30
siesta:      4.63094  13.34970   0.00000  2       31
siesta:      6.95932  14.69411   0.00000  2       32
siesta:      6.95932  17.38257   0.00000  2       33
siesta:      9.28770  18.72698   0.00000  2       34
siesta:      9.28770  21.41544   0.00000  2       35
siesta:     11.61608  22.75985   0.00000  2       36
siesta:     11.61608  25.44831   0.00000  2       37
siesta:     -2.35420   6.62836   0.00000  2       38
siesta:     -2.35420   9.31683   0.00000  2       39
siesta:      6.95932  22.75985   0.00000  2       40
siesta:      6.95932  25.44831   0.00000  2       41
siesta:     -4.68258  10.66124   0.00000  2       42
siesta:     -4.68258  13.34970   0.00000  2       43
siesta:     -2.35420  17.38257   0.00000  2       44
siesta:     -0.02582  21.41544   0.00000  2       45
siesta:     -7.01096  14.69411   0.00000  2       46
siesta:     -7.01096  17.38257   0.00000  2       47
siesta:     -4.68258  18.72698   0.00000  2       48
siesta:     -4.68258  21.41544   0.00000  2       49
siesta:     -2.35420  22.75985   0.00000  2       50
siesta:     -2.35420  25.44831   0.00000  2       51
siesta:     -9.33934  18.72698   0.00000  2       52
siesta:     -9.33934  21.41544   0.00000  2       53
siesta:     -7.01096  22.75985   0.00000  2       54
siesta:     -7.01096  25.44831   0.00000  2       55
siesta:    -11.66772  22.75985   0.00000  2       56
siesta:    -11.66772  25.44831   0.00000  2       57
siesta:     -9.33934  26.79272   0.00000  2       58
siesta:     -9.33934  29.48119   0.00000  2       59
siesta:      4.63094  26.79272   0.00000  2       60
siesta:     -0.02582  29.48119   0.00000  2       61
siesta:     -4.68258  26.79272   0.00000  2       62
siesta:     -4.68258  29.48119   0.00000  2       63
siesta:      2.30256  33.51406   0.00000  2       64
siesta:     -2.35420  30.82560   0.00000  2       65
siesta:     -2.35420  33.51406   0.00000  2       66
siesta:     -7.01096  30.82560   0.00000  2       67
siesta:     -7.01096  33.51406   0.00000  2       68
siesta:     -0.02582  34.85847   0.00000  2       69
siesta:     -0.02582  37.54693   0.00000  2       70
siesta:     -0.02582  42.92421   0.00000  2       71
siesta:     -0.02582  45.61267   0.00000  2       72

siesta: System type = slab      

initatomlists: Number of atoms, orbitals, and projectors:     72   936  1152

siesta: ******************** Simulation parameters ****************************
siesta:
siesta: The following are some of the parameters of the simulation.
siesta: A complete list of the parameters used, including default values,
siesta: can be found in file out.fdf
siesta:
redata: Non-Collinear-spin run           =     F
redata: SpinPolarized (Up/Down) run      =     F
redata: Number of spin components        =     1
redata: Long output                      =     F
redata: Number of Atomic Species         =        2
redata: Charge density info will appear in .RHO file
redata: Write Mulliken Pop.              =     NO
redata: Mesh Cutoff                      =   200.0000  Ry
redata: Net charge of the system         =     0.0000 |e|
redata: Max. number of SCF Iter          =      500
redata: SCF convergence failure will abort job
redata: Performing Pulay mixing using    =    10 iterations
redata: Mix DM in first SCF step ?       =     F
redata: Write Pulay info on disk?        =     F
redata: Discard 1st Pulay DM after  kick =     F
redata: New DM Mixing Weight             =     0.0500
redata: New DM Occupancy tolerance       = 0.000000000001
redata: No kicks to SCF
redata: DM Mixing Weight for Kicks       =     0.5000
redata: DM Tolerance for SCF             =     0.000100
redata: Require Energy convergence for SCF =     F
redata: DM Energy tolerance for SCF      =     0.000100 eV
redata: Require Harris convergence for SCF =     F
redata: DM Harris energy tolerance for SCF =     0.000100 eV
redata: Using Saved Data (generic)   =     F
redata: Use continuation files for DM    =     T
redata: Neglect nonoverlap interactions  =     F
redata: Method of Calculation            =     Diagonalization
redata: Divide and Conquer               =     T
redata: Electronic Temperature           =     0.0019  Ry
redata: Fix the spin of the system       =     F
redata: Dynamics option                  =     Verlet MD run
redata: Initial MD time step             =        1
redata:   Final MD time step             =        1
redata: Length of MD time step           =     1.0000  fs
redata: Initial Temperature of MD run    =     0.0000  K
redata: Perform a MD quench              =     F
redata: ***********************************************************************
Total number of electrons:   304.000000
Total ionic charge:   304.000000

* ProcessorY, Blocksize:    3  24

k-point displ. along   1 input, could be:     0.50    0.00
k-point displ. along   2 input, could be:     0.50    0.00
 Kpoints in:          231 . Kpoints trimmed:          231

siesta: k-grid: Number of k-points =   231
siesta: k-grid: Cutoff (effective) =     5.000 Ang
siesta: k-grid: Supercell and displacements
siesta: k-grid:   21   0   0      0.500
siesta: k-grid:    0  21   0      0.500
siesta: k-grid:    0   0   1      0.000
Naive supercell factors:     2    2    2

superc: Internal auxiliary supercell:     2 x     2 x     2  =       8
superc: Number of atoms, orbitals, and projectors:    576   7488   9216

* Maximum dynamic memory allocated =     4 MB

siesta:                 ==============================
                            Begin MD step =      1
                        ==============================

superc: Internal auxiliary supercell:     2 x     2 x     2  =       8
superc: Number of atoms, orbitals, and projectors:    576   7488   9216

outcell: Unit cell vectors (Ang):
       12.804619    7.392750    0.000000
        0.000000   14.785500    0.000000
        0.000000    0.000000   10.000000

outcell: Cell vector modules (Ang)   :   14.785500   14.785500   10.000000
outcell: Cell angles (23,13,12) (deg):     90.0000     90.0000     60.0000
outcell: Cell volume (Ang**3)        :   1893.2269
New_DM. Step:     1
Initializing Density Matrix...

InitMesh: MESH =   120 x   120 x    90 =     1296000
InitMesh: Mesh cutoff (required, used) =   200.000   223.865 Ry

* Maximum dynamic memory allocated =   135 MB

stepf: Fermi-Dirac step function

siesta: Program's energy decomposition (eV):
siesta: Ebs     =     -6212.063908
siesta: Eions   =     20974.960578
siesta: Ena     =      4892.640585
siesta: Ekin    =      7720.939539
siesta: Enl     =       160.055151
siesta: DEna    =        -0.000015
siesta: DUscf   =         0.000000
siesta: DUext   =         0.000000
siesta: Exc     =     -4573.433308
siesta: eta*DQ  =         0.000000
siesta: Emadel  =         0.000000
siesta: Emeta   =         0.000000
siesta: Emolmec =         0.000000
siesta: Ekinion =         0.000000
siesta: Eharris =    -12409.199138
siesta: Etot    =    -12774.758625
siesta: FreeEng =    -12774.758625

siesta: iscf   Eharris(eV)      E_KS(eV)   FreeEng(eV)   dDmax  Ef(eV)
siesta:    1   -12409.1991   -12774.7586   -12774.7586  5.2210 -7.0824
timer: Routine,Calls,Time,% = IterSCF        1    3003.322  99.59
elaps: Routine,Calls,Wall,% = IterSCF        1     250.873  99.59
siesta:    2   -16340.7323   -11811.8084   -11811.8163 16.4222 -3.7196
siesta:    3   -12318.8747   -12566.2214   -12566.2883  2.0868 -5.2658
siesta:    4   -12293.4623   -12423.5025   -12423.5357  1.0592 -4.2300
siesta:    5   -12260.3034   -12370.0329   -12370.0635  0.8407 -4.1187
siesta:    6   -12252.6844   -12334.9192   -12334.9622  0.7465 -3.9966
siesta:    7   -12249.5204   -12325.5358   -12325.5992  0.7058 -4.0012
siesta:    8   -12246.4515   -12300.5340   -12300.5921  0.5759 -4.0132
siesta:    9   -12245.7795   -12284.9334   -12284.9751  0.5262 -4.0556
siesta:   10   -12246.1971   -12258.7589   -12258.7871  0.3426 -4.0471
siesta:   11   -12245.6783   -12244.2430   -12244.2700  0.3675 -4.0286
siesta:   12   -12245.2402   -12235.5594   -12235.5950  0.2990 -3.9758
siesta:   13   -12244.6749   -12232.4014   -12232.4484  0.1963 -3.9554
siesta:   14   -12244.3208   -12232.8340   -12232.8882  0.3415 -3.9245
siesta:   15   -12244.2296   -12232.3144   -12232.3814  0.1742 -3.9514
siesta:   16   -12244.1592   -12236.2262   -12236.2770  0.1090 -3.9977
siesta:   17   -12244.1146   -12238.4189   -12238.4655  0.0633 -3.9979
siesta:   18   -12244.0906   -12240.3705   -12240.4232  0.0896 -3.9923
siesta:   19   -12244.0732   -12242.6637   -12242.7233  0.0408 -3.9892
siesta:   20   -12244.0719   -12242.8810   -12242.9412  0.0426 -3.9912
siesta:   21   -12244.0716   -12242.7234   -12242.7816  0.0174 -3.9928
siesta:   22   -12244.0673   -12242.6194   -12242.6760  0.0180 -3.9897
siesta:   23   -12244.0632   -12243.4415   -12243.4977  0.0140 -3.9822
siesta:   24   -12244.0623   -12244.1700   -12244.2267  0.0086 -3.9819
siesta:   25   -12244.0621   -12244.2586   -12244.3156  0.0104 -3.9833
siesta:   26   -12244.0612   -12244.1757   -12244.2326  0.0055 -3.9828
siesta:   27   -12244.0614   -12244.0853   -12244.1428  0.0040 -3.9827
siesta:   28   -12244.0614   -12244.0741   -12244.1314  0.0028 -3.9829
siesta:   29   -12244.0614   -12244.1380   -12244.1953  0.0019 -3.9832
siesta:   30   -12244.0614   -12244.1501   -12244.2073  0.0013 -3.9831
siesta:   31   -12244.0613   -12244.1082   -12244.1655  0.0009 -3.9830
siesta:   32   -12244.0614   -12244.0802   -12244.1375  0.0005 -3.9831
siesta:   33   -12244.0613   -12244.0784   -12244.1356  0.0003 -3.9832
siesta:   34   -12244.0614   -12244.0765   -12244.1338  0.0004 -3.9833
siesta:   35   -12244.0614   -12244.0690   -12244.1263  0.0001 -3.9833

siesta: E_KS(eV) =           -12244.0673

siesta: E_KS - E_eggbox =    -12244.0673

siesta: Atomic forces (eV/Ang):
----------------------------------------
   Tot   -0.148859    0.141656    0.000000
----------------------------------------
   Max  685.683683
   Res  176.511163    sqrt( Sum f_i^2 / 3N )
----------------------------------------
   Max  685.683683    constrained

Stress-tensor-Voigt (kbar):     -678.89    -3153.20       -0.12       -6.48        0.00        0.00
(Free)E + p*V (eV/cell)   -10734.6852
Target enthalpy (eV/cell)   -12244.1245

siesta: Stress tensor (static) (eV/Ang**3):
        -0.423724   -0.004046    0.000000
        -0.004046   -1.968053    0.000000
         0.000000    0.000000   -0.000075

siesta: Pressure (static):       1277.40345568  kBar

siesta: Stress tensor (total) (eV/Ang**3):
        -0.423724   -0.004046    0.000000
        -0.004046   -1.968053    0.000000
         0.000000    0.000000   -0.000075

siesta: Pressure (total):       1277.40345568  kBar

siesta: Temp_ion =       0.000 K

* Maximum dynamic memory allocated =   147 MB
Computing bands...

siesta: Program's energy decomposition (eV):
siesta: Ebs     =     -4947.150367
siesta: Eions   =     20974.960578
siesta: Ena     =      4892.640585
siesta: Ekin    =     10834.005370
siesta: Enl     =     -1541.929984
siesta: DEna    =      -812.804547
siesta: DUscf   =       110.938718
siesta: DUext   =         0.000000
siesta: Exc     =     -4751.956827
siesta: eta*DQ  =         0.000000
siesta: Emadel  =         0.000000
siesta: Emeta   =         0.000000
siesta: Emolmec =         0.000000
siesta: Ekinion =         0.000000
siesta: Eharris =    -12244.061365
siesta: Etot    =    -12244.067262
siesta: FreeEng =    -12244.124506

siesta: Final energy (eV):
siesta:  Band Struct. =   -4947.150367
siesta:       Kinetic =   10834.005370
siesta:       Hartree =   35443.743772
siesta:    Ext. field =       0.000000
siesta:   Exch.-corr. =   -4751.956827
siesta:  Ion-electron =  -81265.769210
siesta:       Ion-ion =   27495.909632
siesta:       Ekinion =       0.000000
siesta:         Total =  -12244.067262

siesta: Atomic forces (eV/Ang):
siesta:      1    2.106816    2.727660    0.000000
siesta:      2   -0.667952   -1.706563    0.000000
siesta:      3   -3.797934 -120.664234    0.000000
siesta:      4   -5.759013  656.818603    0.000000
siesta:      5   -0.960566 -109.095107    0.000000
siesta:      6    8.312784  678.122115    0.000000
siesta:      7   34.951735  -11.872494    0.000000
siesta:      8    0.787743    2.874890    0.000000
siesta:      9    0.984141    1.562625    0.000000
siesta:     10  -21.676630  677.425790    0.000000
siesta:     11  -18.835899  685.683683    0.000000
siesta:     12    0.408969   -1.945366    0.000000
siesta:     13    2.334700    2.421617    0.000000
siesta:     14   -0.200228   -6.799618    0.000000
siesta:     15   -0.953032    0.775631    0.000000
siesta:     16   28.889189    9.102438    0.000000
siesta:     17   10.157789  548.777198    0.000000
siesta:     18    1.020584 -124.214586    0.000000
siesta:     19    2.682453  118.499888    0.000000
siesta:     20   -0.741821 -652.408615    0.000000
siesta:     21    3.575381  114.835479    0.000000
siesta:     22   12.032512 -657.625898    0.000000
siesta:     23   27.433762    3.031196    0.000000
siesta:     24   25.362924 -550.156958    0.000000
siesta:     25   -1.489741   -2.674615    0.000000
siesta:     26    0.963878    4.509795    0.000000
siesta:     27  -26.453742    5.473709    0.000000
siesta:     28  -33.536538 -551.513744    0.000000
siesta:     29   11.312308  541.231141    0.000000
siesta:     30   28.627184  551.943322    0.000000
siesta:     31   28.651017   -7.946289    0.000000
siesta:     32   -2.601307    0.037068    0.000000
siesta:     33    1.980154   -0.550088    0.000000
siesta:     34   -1.040139   -0.225442    0.000000
siesta:     35    1.067002   -2.564135    0.000000
siesta:     36   -0.044764    7.174425    0.000000
siesta:     37   -0.242095   -5.696711    0.000000
siesta:     38  -14.398833  547.367393    0.000000
siesta:     39   -0.718429 -129.403889    0.000000
siesta:     40   -0.905699    0.499008    0.000000
siesta:     41   -1.202442   -1.334428    0.000000
siesta:     42  -30.614008  549.793422    0.000000
siesta:     43  -27.871134  -10.329859    0.000000
siesta:     44  -23.610101   -9.066381    0.000000
siesta:     45   -0.616310   -1.232490    0.000000
siesta:     46    2.111552   -1.292303    0.000000
siesta:     47   -1.547135   -0.130686    0.000000
siesta:     48    0.900471    2.730446    0.000000
siesta:     49   -0.428168   -0.869016    0.000000
siesta:     50    1.215541    0.899110    0.000000
siesta:     51   -0.396515   -0.892237    0.000000
siesta:     52    1.219744   -0.011775    0.000000
siesta:     53   -2.027055   -2.435146    0.000000
siesta:     54    0.187933    1.044626    0.000000
siesta:     55    0.000917   -1.103816    0.000000
siesta:     56    0.234203    7.530364    0.000000
siesta:     57    0.282294   -7.364211    0.000000
siesta:     58   -2.097679    2.115156    0.000000
siesta:     59    1.416016    0.232552    0.000000
siesta:     60   -1.209578    1.130939    0.000000
siesta:     61  -13.660444 -577.089707    0.000000
siesta:     62    0.719688    0.549284    0.000000
siesta:     63    1.547773   -2.375926    0.000000
siesta:     64   18.762457 -555.070423    0.000000
siesta:     65  -23.854477    5.826632    0.000000
siesta:     66  -22.872216 -558.117870    0.000000
siesta:     67   -2.225315    0.098204    0.000000
siesta:     68    2.790046    1.973635    0.000000
siesta:     69    1.759785  125.322460    0.000000
siesta:     70   10.595510 -668.571590    0.000000
siesta:     71    0.930533  118.580925    0.000000
siesta:     72   10.790591 -644.228557    0.000000
siesta: ----------------------------------------
siesta:    Tot   -0.148859    0.141656    0.000000

siesta: Stress tensor (static) (eV/Ang**3):
siesta:    -0.423724   -0.004046    0.000000
siesta:    -0.004046   -1.968053    0.000000
siesta:     0.000000    0.000000   -0.000075

siesta: Cell volume =       1893.226884 Ang**3

siesta: Pressure (static):
siesta:                Solid            Molecule  Units
siesta:           0.00868344          0.13935525  Ry/Bohr**3
siesta:           0.79728391         12.79512520  eV/Ang**3
siesta:        1277.40345568      20500.27220700  kBar
(Free)E+ p_basis*V_orbitals  =      -12215.674306
(Free)Eharris+ p_basis*V_orbitals  =      -12215.666648

siesta: Electric dipole (a.u.)  =    0.000000    0.000000    0.000000
siesta: Electric dipole (Debye) =    0.000000    0.000000    0.000000

* Maximum dynamic memory allocated : Node    0 =   147 MB
* Maximum dynamic memory allocated : Node    1 =    58 MB
* Maximum dynamic memory allocated : Node    2 =    61 MB
* Maximum dynamic memory allocated : Node    3 =   136 MB
* Maximum dynamic memory allocated : Node    4 =   142 MB
* Maximum dynamic memory allocated : Node    5 =    52 MB
* Maximum dynamic memory allocated : Node    6 =    53 MB
* Maximum dynamic memory allocated : Node    7 =   134 MB
* Maximum dynamic memory allocated : Node    8 =   128 MB
* Maximum dynamic memory allocated : Node    9 =    52 MB
* Maximum dynamic memory allocated : Node   10 =    54 MB
* Maximum dynamic memory allocated : Node   11 =   122 MB

* Maximum memory occured during matrixMtoO                    

timer: CPU execution times:
timer:  Routine       Calls   Time/call    Tot.time        %
timer:  siesta            1  103135.345  103135.345   100.00
timer:  Setup             1       3.354       3.354     0.00
timer:  bands             3     225.205     675.615     0.66
timer:  writewave         1       0.024       0.024     0.00
timer:  KSV_init          1       0.001       0.001     0.00
timer:  IterMD            1  102449.496  102449.496    99.34
timer:  hsparse           1       0.164       0.164     0.00
timer:  overlap           1       7.363       7.363     0.01
timer:  IterSCF          35    2923.708  102329.789    99.22
timer:  kinefsm           2       3.728       7.455     0.01
timer:  nlefsm            2      18.134      36.269     0.04
timer:  DHSCF            36      59.016    2124.588     2.06
timer:  DHSCF1            1       0.906       0.906     0.00
timer:  DHSCF2            1      24.247      24.247     0.02
timer:  REORD           290       0.002       0.691     0.00
timer:  POISON           37       0.449      16.614     0.02
timer:  DHSCF3           36      57.740    2078.648     2.02
timer:  rhoofd           36      12.111     435.996     0.42
timer:  cellXC           36       2.438      87.779     0.09
timer:  vmat             36      27.197     979.094     0.95
timer:  MolMec            2       0.000       0.000     0.00
timer:  diagon           35    2863.443  100220.498    97.17
timer:  c-eigval       8206       5.581   45800.255    44.41
timer:  c-buildHS      8206       0.033     268.099     0.26
timer:  cdiag         16291       5.687   92639.538    89.82
timer:  cdiag1        16291       0.259    4218.134     4.09
timer:  cdiag2        16291       1.835   29888.059    28.98
timer:  cdiag3        16291       3.379   55048.896    53.38
timer:  cdiag4        16291       0.088    1427.408     1.38
timer:  c-eigvec       8085       5.853   47323.756    45.89
timer:  c-buildD       8085       0.956    7728.157     7.49
timer:  DHSCF4            1      20.557      20.557     0.02
timer:  dfscf             1      19.138      19.138     0.02
timer:  overfsm           1       0.282       0.282     0.00
timer:  optical           1       6.272       6.272     0.01
  

elaps: ELAPSED times:
elaps:  Routine       Calls   Time/call    Tot.time        %
elaps:  siesta            1    8614.824    8614.824   100.00
elaps:  Setup             1       0.280       0.280     0.00
elaps:  bands             3      18.826      56.479     0.66
elaps:  writewave         1       0.002       0.002     0.00
elaps:  KSV_init          1       0.000       0.000     0.00
elaps:  IterMD            1    8557.535    8557.535    99.33
elaps:  hsparse           1       0.016       0.016     0.00
elaps:  overlap           1       0.710       0.710     0.01
elaps:  IterSCF          35     244.215    8547.536    99.22
elaps:  kinefsm           2       0.361       0.723     0.01
elaps:  nlefsm            2       1.548       3.096     0.04
elaps:  DHSCF            36       4.980     179.268     2.08
elaps:  DHSCF1            1       0.078       0.078     0.00
elaps:  DHSCF2            1       2.023       2.023     0.02
elaps:  REORD           290       0.000       0.086     0.00
elaps:  POISON           37       0.038       1.402     0.02
elaps:  DHSCF3           36       4.824     173.657     2.02
elaps:  rhoofd           36       2.221      79.974     0.93
elaps:  cellXC           36       0.203       7.313     0.08
elaps:  vmat             36       2.272      81.804     0.95
elaps:  MolMec            2       0.000       0.000     0.00
elaps:  diagon           35     239.185    8371.491    97.18
elaps:  c-eigval       8206       0.466    3825.623    44.41
elaps:  c-buildHS      8206       0.003      28.173     0.33
elaps:  cdiag         16291       0.472    7682.917    89.18
elaps:  cdiag1        16291       0.021     345.941     4.02
elaps:  cdiag2        16291       0.153    2498.743    29.01
elaps:  cdiag3        16291       0.283    4605.065    53.46
elaps:  cdiag4        16291       0.007     113.942     1.32
elaps:  c-eigvec       8085       0.483    3908.877    45.37
elaps:  c-buildD       8085       0.085     689.314     8.00
elaps:  DHSCF4            1       3.475       3.475     0.04
elaps:  dfscf             1       3.284       3.284     0.04
elaps:  overfsm           1       0.029       0.029     0.00
elaps:  optical           1       0.000       0.000     0.00
  
>> End of run:   5-MAY-2016  21:30:59
