Siesta Version:                                        siesta-3.2-pl-3
Architecture  : x86_64-unknown-linux-gnu--unknown
Compiler flags: mpiifort -g -O2 -fPIC -xSSE4.1 -fp-model source -shared-intel 
PARALLEL version

* Running on   12 nodes in parallel
>> Start of run:  28-APR-2016  23:33:27

                           ***********************       
                           *  WELCOME TO SIESTA  *       
                           ***********************       

reinit: Reading from standard input
************************** Dump of input data file ****************************
#(1) General system descriptors
SystemName            GRP_doping    # Descriptive name of the system
SystemLabel           GRP_doping    # Short name for naming files
%include STRUCT.fdf
%include KPT.fdf
%include BASIS.fdf
#%include TS.fdf # for transiesta calculation
#(4) DFT, Grid, SCF
XC.functional         GGA           # LDA or GGA (default = LDA)
XC.authors            PBE           # CA (Ceperley-Aldr) = PZ
                                    #    (Perdew-Zunger) - LDA - Default
                                    # PW92 (Perdew-Wang-92) - LDA
                                    # PBE (Perdew-Burke-Ernzerhof) - GGA
MeshCutoff            200.000000    Ry      # Default: 50.0 Ry ~ 0.444 Bohr
                                    #         100.0 Ry ~ 0.314 Bohr
MaxSCFIterations      500           # Default: 50
DM.MixingWeight       0.05          # Default: 0.25
DM.NumberPulay        10            # Default: 0
DM.PulayOnFile        F             # SystemLabel.P1, SystemLabel.P2
DM.Tolerance          1.d-4         # Default: 1.d-4
DM.UseSaveDM          .true.        # because of the bug
SCFMustConverge       .true.
NeglNonOverlapInt     F             # Default: F
#(5) Eigenvalue problem: order-N or diagonalization
SolutionMethod        Diagon        # or Transiesta
ElectronicTemperature 300.0 K       # Default: 300.0 K
#(6) Molecular dynamics and relaxations
#MD.TypeOfRun          CG            # Type of dynamics:
#MD.VariableCell       F
#MD.NumCGsteps         0           # 0 for single-point / 100 for gopt
#MD.MaxCGDispl         0.2 Bohr      # Default: 0.2 Bohr
#MD.MaxForceTol        0.02 eV/Ang   # Default: 0.04 eV/Ang
#MD.MaxStressTol       1.0 GPa       # Default: 1.0 GPa
# Geometry Constraints
#%block GeometryConstraints
#	position from 1 to 44
#%endblock GeometryConstraints
BandLinesScale   pi/a
%block BandLines
 1   0.00000000  0.00000000  0.00000000
50   0.00000000  0.07809418  0.00000000
50   0.04509075  0.07809242  0.00000000
20   0.00000000  0.00000000  0.00000000
%endblock BandLines
************************** End of input data file *****************************

reinit: -----------------------------------------------------------------------
reinit: System Name: GRP_doping
reinit: -----------------------------------------------------------------------
reinit: System Label: GRP_doping                                                  
reinit: -----------------------------------------------------------------------

initatom: Reading input for the pseudopotentials and atomic orbitals ----------
 Species number:            1  Label: N Atomic number:           7
 Species number:            2  Label: C Atomic number:           6
Ground state valence configuration:   2s02  2p03
Reading pseudopotential information in formatted form from N.psf

Valence configuration for pseudopotential generation:
2s( 2.00) rc: 1.48
2p( 3.00) rc: 1.48
3d( 0.00) rc: 1.48
4f( 0.00) rc: 1.48
Ground state valence configuration:   2s02  2p02
Reading pseudopotential information in formatted form from C.psf

Valence configuration for pseudopotential generation:
2s( 2.00) rc: 1.54
2p( 2.00) rc: 1.54
3d( 0.00) rc: 1.54
4f( 0.00) rc: 1.54
For N, standard SIESTA heuristics set lmxkb to 3
 (one more than the basis l, including polarization orbitals).
Use PS.lmax or PS.KBprojectors blocks to override.
For C, standard SIESTA heuristics set lmxkb to 3
 (one more than the basis l, including polarization orbitals).
Use PS.lmax or PS.KBprojectors blocks to override.

<basis_specs>
===============================================================================
N                    Z=   7    Mass=  14.010        Charge= 0.17977+309
Lmxo=1 Lmxkb= 3    BasisType=split      Semic=F
L=0  Nsemic=0  Cnfigmx=2
          n=1  nzeta=2  polorb=0
            splnorm:   0.15000    
               vcte:    0.0000    
               rinn:    0.0000    
                rcs:    0.0000      0.0000    
            lambdas:    1.0000      1.0000    
L=1  Nsemic=0  Cnfigmx=2
          n=1  nzeta=2  polorb=1
            splnorm:   0.15000    
               vcte:    0.0000    
               rinn:    0.0000    
                rcs:    0.0000      0.0000    
            lambdas:    1.0000      1.0000    
-------------------------------------------------------------------------------
L=0  Nkbl=1  erefs: 0.17977+309
L=1  Nkbl=1  erefs: 0.17977+309
L=2  Nkbl=1  erefs: 0.17977+309
L=3  Nkbl=1  erefs: 0.17977+309
===============================================================================
</basis_specs>

atom: Called for N                     (Z =   7)

read_vps: Pseudopotential generation method:
read_vps: ATM3      Troullier-Martins                       
Total valence charge:    5.00000

read_vps: Pseudopotential includes a core correction:
read_vps: Pseudo-core for xc-correction

xc_check: Exchange-correlation functional:
xc_check: GGA Perdew, Burke & Ernzerhof 1996
V l=0 = -2*Zval/r beyond r=  1.4606
V l=1 = -2*Zval/r beyond r=  1.4606
V l=2 = -2*Zval/r beyond r=  1.4606
V l=3 = -2*Zval/r beyond r=  1.4606
All V_l potentials equal beyond r=  1.4606
This should be close to max(r_c) in ps generation
All pots = -2*Zval/r beyond r=  1.4606

VLOCAL1: 99.0% of the norm of Vloc inside     20.347 Ry
VLOCAL1: 99.9% of the norm of Vloc inside     46.372 Ry
atom: Maximum radius for 4*pi*r*r*local-pseudopot. charge    1.76189
atom: Maximum radius for r*vlocal+2*Zval:    1.53550
GHOST: No ghost state for L =  0
GHOST: No ghost state for L =  1
GHOST: No ghost state for L =  2
GHOST: No ghost state for L =  3

KBgen: Kleinman-Bylander projectors: 
   l= 0   rc=  1.634559   el= -1.363963   Ekb=  5.296955   kbcos=  0.335621
   l= 1   rc=  1.614250   el= -0.521451   Ekb= -5.259161   kbcos= -0.433408
   l= 2   rc=  1.718383   el=  0.001991   Ekb= -1.271464   kbcos= -0.007566
   l= 3   rc=  1.761893   el=  0.003093   Ekb= -0.494769   kbcos= -0.001015

KBgen: Total number of  Kleinman-Bylander projectors:   16
atom: -------------------------------------------------------------------------

atom: SANKEY-TYPE ORBITALS:
atom: Selected multiple-zeta basis: split     

SPLIT: Orbitals with angular momentum L= 0

SPLIT: Basis orbitals for state 2s

SPLIT: PAO cut-off radius determined from an
SPLIT: energy shift=  0.007350 Ry

   izeta = 1
                 lambda =    1.000000
                     rc =    4.071465
                 energy =   -1.356470
                kinetic =    1.176977
    potential(screened) =   -2.533447
       potential(ionic) =   -8.057990

   izeta = 2
                 rmatch =    2.905100
              splitnorm =    0.150000
                 energy =   -1.158343
                kinetic =    1.813009
    potential(screened) =   -2.971352
       potential(ionic) =   -8.901931

SPLIT: Orbitals with angular momentum L= 1

SPLIT: Basis orbitals for state 2p

SPLIT: PAO cut-off radius determined from an
SPLIT: energy shift=  0.007350 Ry

   izeta = 1
                 lambda =    1.000000
                     rc =    4.972977
                 energy =   -0.513884
                kinetic =    3.441732
    potential(screened) =   -3.955616
       potential(ionic) =   -9.287901

   izeta = 2
                 rmatch =    3.054066
              splitnorm =    0.150000
                 energy =   -0.318226
                kinetic =    5.125348
    potential(screened) =   -5.443573
       potential(ionic) =  -11.380999

POLgen: Perturbative polarization orbital with L=  2

POLgen: Polarization orbital for state 2p

   izeta = 1
                     rc =    4.972977
                 energy =    1.607437
                kinetic =    3.268125
    potential(screened) =   -1.660688
       potential(ionic) =   -5.973652
atom: Total number of Sankey-type orbitals: 13

atm_pop: Valence configuration (for local Pseudopot. screening):
 2s( 2.00)                                                            
 2p( 3.00)                                                            
Vna: chval, zval:    5.00000   5.00000

Vna:  Cut-off radius for the neutral-atom potential:   4.972977
comcore: Pseudo-core radius Rcore=  1.554824

atom: _________________________________________________________________________

<basis_specs>
===============================================================================
C                    Z=   6    Mass=  12.010        Charge= 0.17977+309
Lmxo=1 Lmxkb= 3    BasisType=split      Semic=F
L=0  Nsemic=0  Cnfigmx=2
          n=1  nzeta=2  polorb=0
            splnorm:   0.15000    
               vcte:    0.0000    
               rinn:    0.0000    
                rcs:    0.0000      0.0000    
            lambdas:    1.0000      1.0000    
L=1  Nsemic=0  Cnfigmx=2
          n=1  nzeta=2  polorb=1
            splnorm:   0.15000    
               vcte:    0.0000    
               rinn:    0.0000    
                rcs:    0.0000      0.0000    
            lambdas:    1.0000      1.0000    
-------------------------------------------------------------------------------
L=0  Nkbl=1  erefs: 0.17977+309
L=1  Nkbl=1  erefs: 0.17977+309
L=2  Nkbl=1  erefs: 0.17977+309
L=3  Nkbl=1  erefs: 0.17977+309
===============================================================================
</basis_specs>

atom: Called for C                     (Z =   6)

read_vps: Pseudopotential generation method:
read_vps: ATM3      Troullier-Martins                       
Total valence charge:    4.00000

read_vps: Pseudopotential includes a core correction:
read_vps: Pseudo-core for xc-correction

xc_check: Exchange-correlation functional:
xc_check: GGA Perdew, Burke & Ernzerhof 1996
V l=0 = -2*Zval/r beyond r=  1.5227
V l=1 = -2*Zval/r beyond r=  1.5227
V l=2 = -2*Zval/r beyond r=  1.5227
V l=3 = -2*Zval/r beyond r=  1.5038
All V_l potentials equal beyond r=  1.5227
This should be close to max(r_c) in ps generation
All pots = -2*Zval/r beyond r=  1.5227

VLOCAL1: 99.0% of the norm of Vloc inside     18.722 Ry
VLOCAL1: 99.9% of the norm of Vloc inside     42.668 Ry
atom: Maximum radius for 4*pi*r*r*local-pseudopot. charge    1.83678
atom: Maximum radius for r*vlocal+2*Zval:    1.58088
GHOST: No ghost state for L =  0
GHOST: No ghost state for L =  1
GHOST: No ghost state for L =  2
GHOST: No ghost state for L =  3

KBgen: Kleinman-Bylander projectors: 
   l= 0   rc=  1.704034   el= -1.009801   Ekb=  5.335044   kbcos=  0.316824
   l= 1   rc=  1.704034   el= -0.388707   Ekb= -3.785862   kbcos= -0.366464
   l= 2   rc=  1.791422   el=  0.001971   Ekb= -0.970471   kbcos= -0.009212
   l= 3   rc=  1.859892   el=  0.003065   Ekb= -0.399525   kbcos= -0.001223

KBgen: Total number of  Kleinman-Bylander projectors:   16
atom: -------------------------------------------------------------------------

atom: SANKEY-TYPE ORBITALS:
atom: Selected multiple-zeta basis: split     

SPLIT: Orbitals with angular momentum L= 0

SPLIT: Basis orbitals for state 2s

SPLIT: PAO cut-off radius determined from an
SPLIT: energy shift=  0.007350 Ry

   izeta = 1
                 lambda =    1.000000
                     rc =    4.632753
                 energy =   -1.002270
                kinetic =    0.855760
    potential(screened) =   -1.858031
       potential(ionic) =   -5.417575

   izeta = 2
                 rmatch =    3.431921
              splitnorm =    0.150000
                 energy =   -0.867111
                kinetic =    1.300804
    potential(screened) =   -2.167915
       potential(ionic) =   -5.962684

SPLIT: Orbitals with angular momentum L= 1

SPLIT: Basis orbitals for state 2p

SPLIT: PAO cut-off radius determined from an
SPLIT: energy shift=  0.007350 Ry

   izeta = 1
                 lambda =    1.000000
                     rc =    5.658549
                 energy =   -0.381140
                kinetic =    2.399701
    potential(screened) =   -2.780841
       potential(ionic) =   -6.206085

   izeta = 2
                 rmatch =    3.653288
              splitnorm =    0.150000
                 energy =   -0.249149
                kinetic =    3.542762
    potential(screened) =   -3.791911
       potential(ionic) =   -7.581078

POLgen: Perturbative polarization orbital with L=  2

POLgen: Polarization orbital for state 2p

   izeta = 1
                     rc =    5.658549
                 energy =    1.109913
                kinetic =    2.304789
    potential(screened) =   -1.194876
       potential(ionic) =   -4.013592
atom: Total number of Sankey-type orbitals: 13

atm_pop: Valence configuration (for local Pseudopot. screening):
 2s( 2.00)                                                            
 2p( 2.00)                                                            
Vna: chval, zval:    4.00000   4.00000

Vna:  Cut-off radius for the neutral-atom potential:   5.658549
comcore: Pseudo-core radius Rcore=  1.791422

atom: _________________________________________________________________________

prinput: Basis input ----------------------------------------------------------

PAO.BasisType split     

%block ChemicalSpeciesLabel
    1    7 N                       # Species index, atomic number, species label
    2    6 C                       # Species index, atomic number, species label
%endblock ChemicalSpeciesLabel

%block PAO.Basis                 # Define Basis set
N                     2                    # Species label, number of l-shells
 n=2   0   2                         # n, l, Nzeta 
   4.071      2.905   
   1.000      1.000   
 n=2   1   2 P   1                   # n, l, Nzeta, Polarization, NzetaPol
   4.973      3.054   
   1.000      1.000   
C                     2                    # Species label, number of l-shells
 n=2   0   2                         # n, l, Nzeta 
   4.633      3.432   
   1.000      1.000   
 n=2   1   2 P   1                   # n, l, Nzeta, Polarization, NzetaPol
   5.659      3.653   
   1.000      1.000   
%endblock PAO.Basis

prinput: ----------------------------------------------------------------------

coor:   Atomic-coordinates input format  =     Fractional

siesta: Atomic coordinates (Bohr) and species
siesta:      6.95932  30.82560   0.00000  1        1
siesta:      9.28770  26.79272   0.00000  1        2
siesta:      9.28770  29.48119   0.00000  1        3
siesta:      6.95932  25.44831   0.00000  1        4
siesta:     -0.02582  21.41544   0.00000  1        5
siesta:      2.30256  22.75985   0.00000  1        6
siesta:      2.30256  25.44831   0.00000  1        7
siesta:     -4.68258  21.41544   0.00000  1        8
siesta:     -2.35420  22.75985   0.00000  1        9
siesta:     -2.35420  25.44831   0.00000  1       10
siesta:     -9.33934  21.41544   0.00000  1       11
siesta:     -7.01096  22.75985   0.00000  1       12
siesta:     -7.01096  25.44831   0.00000  1       13
siesta:    -11.66772  22.75985   0.00000  1       14
siesta:    -11.66772  25.44831   0.00000  1       15
siesta:     -9.33934  26.79272   0.00000  1       16
siesta:      4.63094  26.79272   0.00000  1       17
siesta:      4.63094  29.48119   0.00000  1       18
siesta:     -0.02582  26.79272   0.00000  1       19
siesta:     -4.68258  26.79272   0.00000  1       20
siesta:     -0.02582   2.59549   0.00000  2       21
siesta:     -0.02582   5.28395   0.00000  2       22
siesta:     -2.35420  38.89134   0.00000  2       23
siesta:     -2.35420  41.57980   0.00000  2       24
siesta:      2.30256  38.89134   0.00000  2       25
siesta:      2.30256  41.57980   0.00000  2       26
siesta:      4.63094  34.85847   0.00000  2       27
siesta:      4.63094  37.54693   0.00000  2       28
siesta:      6.95932  33.51406   0.00000  2       29
siesta:     -4.68258  34.85847   0.00000  2       30
siesta:     -4.68258  37.54693   0.00000  2       31
siesta:      2.30256   6.62836   0.00000  2       32
siesta:      2.30256   9.31683   0.00000  2       33
siesta:      4.63094  10.66124   0.00000  2       34
siesta:      4.63094  13.34970   0.00000  2       35
siesta:      6.95932  14.69411   0.00000  2       36
siesta:      6.95932  17.38257   0.00000  2       37
siesta:      9.28770  18.72698   0.00000  2       38
siesta:      9.28770  21.41544   0.00000  2       39
siesta:     11.61608  22.75985   0.00000  2       40
siesta:     11.61608  25.44831   0.00000  2       41
siesta:     -2.35420   6.62836   0.00000  2       42
siesta:     -2.35420   9.31683   0.00000  2       43
siesta:     -0.02582  10.66124   0.00000  2       44
siesta:     -0.02582  13.34970   0.00000  2       45
siesta:      2.30256  14.69411   0.00000  2       46
siesta:      2.30256  17.38257   0.00000  2       47
siesta:      4.63094  18.72698   0.00000  2       48
siesta:      4.63094  21.41544   0.00000  2       49
siesta:      6.95932  22.75985   0.00000  2       50
siesta:     -4.68258  10.66124   0.00000  2       51
siesta:     -4.68258  13.34970   0.00000  2       52
siesta:     -2.35420  14.69411   0.00000  2       53
siesta:     -2.35420  17.38257   0.00000  2       54
siesta:     -0.02582  18.72698   0.00000  2       55
siesta:     -7.01096  14.69411   0.00000  2       56
siesta:     -7.01096  17.38257   0.00000  2       57
siesta:     -4.68258  18.72698   0.00000  2       58
siesta:     -9.33934  18.72698   0.00000  2       59
siesta:     -9.33934  29.48119   0.00000  2       60
siesta:     -0.02582  29.48119   0.00000  2       61
siesta:     -4.68258  29.48119   0.00000  2       62
siesta:      2.30256  30.82560   0.00000  2       63
siesta:      2.30256  33.51406   0.00000  2       64
siesta:     -2.35420  30.82560   0.00000  2       65
siesta:     -2.35420  33.51406   0.00000  2       66
siesta:     -7.01096  30.82560   0.00000  2       67
siesta:     -7.01096  33.51406   0.00000  2       68
siesta:     -0.02582  34.85847   0.00000  2       69
siesta:     -0.02582  37.54693   0.00000  2       70
siesta:     -0.02582  42.92421   0.00000  2       71
siesta:     -0.02582  45.61267   0.00000  2       72

siesta: System type = slab      

initatomlists: Number of atoms, orbitals, and projectors:     72   936  1152

siesta: ******************** Simulation parameters ****************************
siesta:
siesta: The following are some of the parameters of the simulation.
siesta: A complete list of the parameters used, including default values,
siesta: can be found in file out.fdf
siesta:
redata: Non-Collinear-spin run           =     F
redata: SpinPolarized (Up/Down) run      =     F
redata: Number of spin components        =     1
redata: Long output                      =     F
redata: Number of Atomic Species         =        2
redata: Charge density info will appear in .RHO file
redata: Write Mulliken Pop.              =     NO
redata: Mesh Cutoff                      =   200.0000  Ry
redata: Net charge of the system         =     0.0000 |e|
redata: Max. number of SCF Iter          =      500
redata: SCF convergence failure will abort job
redata: Performing Pulay mixing using    =    10 iterations
redata: Mix DM in first SCF step ?       =     F
redata: Write Pulay info on disk?        =     F
redata: Discard 1st Pulay DM after  kick =     F
redata: New DM Mixing Weight             =     0.0500
redata: New DM Occupancy tolerance       = 0.000000000001
redata: No kicks to SCF
redata: DM Mixing Weight for Kicks       =     0.5000
redata: DM Tolerance for SCF             =     0.000100
redata: Require Energy convergence for SCF =     F
redata: DM Energy tolerance for SCF      =     0.000100 eV
redata: Require Harris convergence for SCF =     F
redata: DM Harris energy tolerance for SCF =     0.000100 eV
redata: Using Saved Data (generic)   =     F
redata: Use continuation files for DM    =     T
redata: Neglect nonoverlap interactions  =     F
redata: Method of Calculation            =     Diagonalization
redata: Divide and Conquer               =     T
redata: Electronic Temperature           =     0.0019  Ry
redata: Fix the spin of the system       =     F
redata: Dynamics option                  =     Verlet MD run
redata: Initial MD time step             =        1
redata:   Final MD time step             =        1
redata: Length of MD time step           =     1.0000  fs
redata: Initial Temperature of MD run    =     0.0000  K
redata: Perform a MD quench              =     F
redata: ***********************************************************************
Total number of electrons:   308.000000
Total ionic charge:   308.000000

* ProcessorY, Blocksize:    3  24

k-point displ. along   1 input, could be:     0.50    0.00
k-point displ. along   2 input, could be:     0.50    0.00
 Kpoints in:          231 . Kpoints trimmed:          231

siesta: k-grid: Number of k-points =   231
siesta: k-grid: Cutoff (effective) =     5.000 Ang
siesta: k-grid: Supercell and displacements
siesta: k-grid:   21   0   0      0.500
siesta: k-grid:    0  21   0      0.500
siesta: k-grid:    0   0   1      0.000
Naive supercell factors:     2    2    2

superc: Internal auxiliary supercell:     2 x     2 x     2  =       8
superc: Number of atoms, orbitals, and projectors:    576   7488   9216

* Maximum dynamic memory allocated =     4 MB

siesta:                 ==============================
                            Begin MD step =      1
                        ==============================

superc: Internal auxiliary supercell:     2 x     2 x     2  =       8
superc: Number of atoms, orbitals, and projectors:    576   7488   9216

outcell: Unit cell vectors (Ang):
       12.804619    7.392750    0.000000
        0.000000   14.785500    0.000000
        0.000000    0.000000   10.000000

outcell: Cell vector modules (Ang)   :   14.785500   14.785500   10.000000
outcell: Cell angles (23,13,12) (deg):     90.0000     90.0000     60.0000
outcell: Cell volume (Ang**3)        :   1893.2269
New_DM. Step:     1
Initializing Density Matrix...

InitMesh: MESH =   120 x   120 x    90 =     1296000
InitMesh: Mesh cutoff (required, used) =   200.000   223.865 Ry

* Maximum dynamic memory allocated =   136 MB

stepf: Fermi-Dirac step function

siesta: Program's energy decomposition (eV):
siesta: Ebs     =     -6163.730764
siesta: Eions   =     21617.947954
siesta: Ena     =      4909.678330
siesta: Ekin    =      8056.630787
siesta: Enl     =        76.576256
siesta: DEna    =        -0.000015
siesta: DUscf   =         0.000000
siesta: DUext   =         0.000000
siesta: Exc     =     -4658.525513
siesta: eta*DQ  =         0.000000
siesta: Emadel  =         0.000000
siesta: Emeta   =         0.000000
siesta: Emolmec =         0.000000
siesta: Ekinion =         0.000000
siesta: Eharris =    -12900.733066
siesta: Etot    =    -13233.588109
siesta: FreeEng =    -13233.588109

siesta: iscf   Eharris(eV)      E_KS(eV)   FreeEng(eV)   dDmax  Ef(eV)
siesta:    1   -12900.7331   -13233.5881   -13233.5881  6.3525 -6.6790
timer: Routine,Calls,Time,% = IterSCF        1    3007.070  99.59
elaps: Routine,Calls,Wall,% = IterSCF        1     251.190  99.59
siesta:    2   -21296.7986   -11831.6897   -11831.7270 14.7300-10.6196
siesta:    3   -12862.2426   -13058.2134   -13058.2211  3.0539 -5.2468
siesta:    4   -12805.0971   -12922.7729   -12922.8270  1.3189 -4.4347
siesta:    5   -12739.4828   -12815.7970   -12815.8576  0.8763 -3.7681
siesta:    6   -12732.5479   -12768.1916   -12768.2160  0.7452 -3.5512
siesta:    7   -12720.8572   -12742.5058   -12742.5230  0.8182 -3.6413
siesta:    8   -12719.4135   -12732.2224   -12732.2501  0.6924 -3.7515
siesta:    9   -12719.0188   -12713.4939   -12713.5343  0.4696 -3.8928
siesta:   10   -12718.3365   -12706.7742   -12706.8195  0.3127 -3.8719
siesta:   11   -12718.4259   -12697.7237   -12697.7984  0.2846 -3.8398
siesta:   12   -12718.4196   -12695.2197   -12695.2717  0.1925 -3.7730
siesta:   13   -12717.6885   -12694.2941   -12694.3638  0.2075 -3.7175
siesta:   14   -12717.2425   -12698.3984   -12698.4636  0.1424 -3.7130
siesta:   15   -12716.8491   -12703.2922   -12703.3604  0.1078 -3.7411
siesta:   16   -12716.7053   -12705.2381   -12705.3142  0.0859 -3.7542
siesta:   17   -12716.6345   -12707.8782   -12707.9565  0.0832 -3.7390
siesta:   18   -12716.5961   -12710.7724   -12710.8482  0.0608 -3.7490
siesta:   19   -12716.5614   -12712.9594   -12713.0374  0.0381 -3.7609
siesta:   20   -12716.5513   -12714.6937   -12714.7692  0.0356 -3.7632
siesta:   21   -12716.5458   -12716.0523   -12716.1298  0.0307 -3.7598
siesta:   22   -12716.5421   -12717.0617   -12717.1399  0.0321 -3.7620
siesta:   23   -12716.5413   -12717.9518   -12718.0292  0.0302 -3.7649
siesta:   24   -12716.5392   -12717.7994   -12717.8767  0.0175 -3.7552
siesta:   25   -12716.5384   -12717.8222   -12717.8992  0.0106 -3.7503
siesta:   26   -12716.5369   -12717.3675   -12717.4449  0.0057 -3.7491
siesta:   27   -12716.5366   -12717.2518   -12717.3294  0.0031 -3.7494
siesta:   28   -12716.5364   -12717.1727   -12717.2503  0.0032 -3.7493
siesta:   29   -12716.5363   -12717.0580   -12717.1356  0.0028 -3.7492
siesta:   30   -12716.5363   -12716.9120   -12716.9896  0.0016 -3.7500
siesta:   31   -12716.5363   -12716.6089   -12716.6866  0.0013 -3.7513
siesta:   32   -12716.5363   -12716.5307   -12716.6084  0.0010 -3.7518
siesta:   33   -12716.5363   -12716.5628   -12716.6405  0.0005 -3.7516
siesta:   34   -12716.5363   -12716.5576   -12716.6353  0.0003 -3.7514
siesta:   35   -12716.5363   -12716.5281   -12716.6058  0.0003 -3.7512
siesta:   36   -12716.5363   -12716.5263   -12716.6039  0.0003 -3.7512
siesta:   37   -12716.5363   -12716.5249   -12716.6025  0.0002 -3.7513
siesta:   38   -12716.5363   -12716.5277   -12716.6054  0.0002 -3.7513
siesta:   39   -12716.5363   -12716.5300   -12716.6076  0.0001 -3.7512
siesta:   40   -12716.5363   -12716.5316   -12716.6092  0.0001 -3.7512

siesta: E_KS(eV) =           -12716.5330

siesta: E_KS - E_eggbox =    -12716.5330

siesta: Atomic forces (eV/Ang):
----------------------------------------
   Tot   -0.167614   -0.114152    0.000000
----------------------------------------
   Max  567.411720
   Res  161.501107    sqrt( Sum f_i^2 / 3N )
----------------------------------------
   Max  567.411720    constrained

Stress-tensor-Voigt (kbar):     -708.09    -2804.16        0.00       -8.03        0.00        0.00
(Free)E + p*V (eV/cell)   -11333.1940
Target enthalpy (eV/cell)   -12716.6107

siesta: Stress tensor (static) (eV/Ang**3):
        -0.441951   -0.005014    0.000000
        -0.005014   -1.750203    0.000000
         0.000000    0.000000   -0.000003

siesta: Pressure (static):       1170.75337229  kBar

siesta: Stress tensor (total) (eV/Ang**3):
        -0.441951   -0.005014    0.000000
        -0.005014   -1.750203    0.000000
         0.000000    0.000000   -0.000003

siesta: Pressure (total):       1170.75337229  kBar

siesta: Temp_ion =       0.000 K

* Maximum dynamic memory allocated =   148 MB
Computing bands...

siesta: Program's energy decomposition (eV):
siesta: Ebs     =     -5046.204479
siesta: Eions   =     21617.947954
siesta: Ena     =      4909.678330
siesta: Ekin    =     10950.412695
siesta: Enl     =     -1535.071647
siesta: DEna    =      -711.697059
siesta: DUscf   =       101.454676
siesta: DUext   =         0.000000
siesta: Exc     =     -4813.362062
siesta: eta*DQ  =         0.000000
siesta: Emadel  =         0.000000
siesta: Emeta   =         0.000000
siesta: Emolmec =         0.000000
siesta: Ekinion =         0.000000
siesta: Eharris =    -12716.536260
siesta: Etot    =    -12716.533021
siesta: FreeEng =    -12716.610666

siesta: Final energy (eV):
siesta:  Band Struct. =   -5046.204479
siesta:       Kinetic =   10950.412695
siesta:       Hartree =   34502.107584
siesta:    Ext. field =       0.000000
siesta:   Exch.-corr. =   -4813.362062
siesta:  Ion-electron =  -79531.436679
siesta:       Ion-ion =   26175.745441
siesta:       Ekinion =       0.000000
siesta:         Total =  -12716.533021

siesta: Atomic forces (eV/Ang):
siesta:      1    0.138448    1.751814    0.000000
siesta:      2    1.436943    1.863067    0.000000
siesta:      3    0.141131   -1.257752    0.000000
siesta:      4   -0.078515   -1.127526    0.000000
siesta:      5    0.938738   -3.811547    0.000000
siesta:      6    0.319715   -1.464273    0.000000
siesta:      7    0.005941    0.753334    0.000000
siesta:      8    0.189381   -1.779697    0.000000
siesta:      9   -1.499506   -0.903086    0.000000
siesta:     10   -1.934828    1.335524    0.000000
siesta:     11   -1.228209   -3.624187    0.000000
siesta:     12    1.236850    1.942856    0.000000
siesta:     13    1.118232   -1.493172    0.000000
siesta:     14    1.570167    3.171223    0.000000
siesta:     15    1.402141   -3.109008    0.000000
siesta:     16   -1.347470    3.166805    0.000000
siesta:     17    1.487887   -0.507978    0.000000
siesta:     18   -1.056897   -2.224904    0.000000
siesta:     19    0.170699    4.134678    0.000000
siesta:     20   -0.324879    1.450128    0.000000
siesta:     21   -0.511551  544.896244    0.000000
siesta:     22    0.710707 -128.437883    0.000000
siesta:     23    1.026340  127.377639    0.000000
siesta:     24  -16.521205 -549.312374    0.000000
siesta:     25   -1.338555  126.914333    0.000000
siesta:     26   14.873466 -548.158363    0.000000
siesta:     27   25.494841    7.455615    0.000000
siesta:     28   34.645148 -551.018928    0.000000
siesta:     29   -1.508975   -2.339718    0.000000
siesta:     30  -26.300410    7.191448    0.000000
siesta:     31  -33.889569 -550.265199    0.000000
siesta:     32   17.603456  549.599289    0.000000
siesta:     33   -0.819447 -126.451366    0.000000
siesta:     34   33.564374  550.495580    0.000000
siesta:     35   26.650766   -6.254896    0.000000
siesta:     36   -3.017757   -1.786942    0.000000
siesta:     37    2.349453    0.132150    0.000000
siesta:     38   -1.695930   -0.166015    0.000000
siesta:     39    1.427485   -1.668170    0.000000
siesta:     40    0.105646    5.127893    0.000000
siesta:     41   -1.792709   -2.283456    0.000000
siesta:     42  -15.915946  549.033863    0.000000
siesta:     43    0.566932 -127.034072    0.000000
siesta:     44    0.276195  542.516099    0.000000
siesta:     45   -0.190990 -127.187179    0.000000
siesta:     46   21.810117  557.297589    0.000000
siesta:     47   22.819092   -6.169204    0.000000
siesta:     48   -1.857128    3.097104    0.000000
siesta:     49   -0.665663    0.077719    0.000000
siesta:     50   -0.269632    1.420269    0.000000
siesta:     51  -34.068332  550.349479    0.000000
siesta:     52  -26.448320   -7.036248    0.000000
siesta:     53  -19.383661  558.067327    0.000000
siesta:     54  -23.339352   -5.278807    0.000000
siesta:     55    1.043728  566.348509    0.000000
siesta:     56    2.544752   -0.832054    0.000000
siesta:     57   -0.995755    0.512559    0.000000
siesta:     58    1.879474    2.660699    0.000000
siesta:     59   -1.080372    2.608987    0.000000
siesta:     60   -0.970772   -2.600995    0.000000
siesta:     61    1.394358 -567.411720    0.000000
siesta:     62    1.816158   -3.017949    0.000000
siesta:     63   22.922371    8.146273    0.000000
siesta:     64   17.900454 -560.454643    0.000000
siesta:     65  -23.751244    6.506475    0.000000
siesta:     66  -19.697223 -558.740697    0.000000
siesta:     67   -1.203190   -0.307210    0.000000
siesta:     68    2.550234    0.865023    0.000000
siesta:     69    0.163009  126.801866    0.000000
siesta:     70   -0.329038 -542.006395    0.000000
siesta:     71   -0.513502  127.702182    0.000000
siesta:     72   -0.915909 -545.362182    0.000000
siesta: ----------------------------------------
siesta:    Tot   -0.167614   -0.114152    0.000000

siesta: Stress tensor (static) (eV/Ang**3):
siesta:    -0.441951   -0.005014    0.000000
siesta:    -0.005014   -1.750203    0.000000
siesta:     0.000000    0.000000   -0.000003

siesta: Cell volume =       1893.226884 Ang**3

siesta: Pressure (static):
siesta:                Solid            Molecule  Units
siesta:           0.00795846          0.12571291  Ry/Bohr**3
siesta:           0.73071888         11.54253233  eV/Ang**3
siesta:        1170.75337229      18493.37548971  kBar
(Free)E+ p_basis*V_orbitals  =      -12688.732320
(Free)Eharris+ p_basis*V_orbitals  =      -12688.737008

siesta: Electric dipole (a.u.)  =    0.000000    0.000000    0.000000
siesta: Electric dipole (Debye) =    0.000000    0.000000    0.000000

* Maximum dynamic memory allocated : Node    0 =   143 MB
* Maximum dynamic memory allocated : Node    1 =    57 MB
* Maximum dynamic memory allocated : Node    2 =    60 MB
* Maximum dynamic memory allocated : Node    3 =   132 MB
* Maximum dynamic memory allocated : Node    4 =   148 MB
* Maximum dynamic memory allocated : Node    5 =    54 MB
* Maximum dynamic memory allocated : Node    6 =    55 MB
* Maximum dynamic memory allocated : Node    7 =   139 MB
* Maximum dynamic memory allocated : Node    8 =   120 MB
* Maximum dynamic memory allocated : Node    9 =    50 MB
* Maximum dynamic memory allocated : Node   10 =    53 MB
* Maximum dynamic memory allocated : Node   11 =   117 MB

* Maximum memory occured during matrixMtoO                    

timer: CPU execution times:
timer:  Routine       Calls   Time/call    Tot.time        %
timer:  siesta            1  118068.335  118068.335   100.00
timer:  Setup             1       3.581       3.581     0.00
timer:  bands             3     226.645     679.936     0.58
timer:  writewave         1       0.023       0.023     0.00
timer:  KSV_init          1       0.002       0.002     0.00
timer:  IterMD            1  117377.816  117377.816    99.42
timer:  hsparse           1       0.161       0.161     0.00
timer:  overlap           1       8.011       8.011     0.01
timer:  IterSCF          40    2931.306  117252.223    99.31
timer:  kinefsm           2       4.050       8.099     0.01
timer:  nlefsm            2      17.758      35.516     0.03
timer:  DHSCF            41      63.109    2587.451     2.19
timer:  DHSCF1            1       0.906       0.906     0.00
timer:  DHSCF2            1      24.932      24.932     0.02
timer:  REORD           330       0.003       0.859     0.00
timer:  POISON           42       0.447      18.788     0.02
timer:  DHSCF3           41      61.975    2540.980     2.15
timer:  rhoofd           41      12.022     492.920     0.42
timer:  cellXC           41       2.388      97.908     0.08
timer:  vmat             41      29.138    1194.654     1.01
timer:  MolMec            2       0.000       0.000     0.00
timer:  diagon           40    2867.019  114680.741    97.13
timer:  c-eigval       9361       5.604   52460.491    44.43
timer:  c-buildHS      9361       0.032     299.077     0.25
timer:  cdiag         18601       5.709  106199.367    89.95
timer:  cdiag1        18601       0.261    4863.627     4.12
timer:  cdiag2        18601       1.835   34135.993    28.91
timer:  cdiag3        18601       3.401   63260.072    53.58
timer:  cdiag4        18601       0.089    1655.777     1.40
timer:  c-eigvec       9240       5.875   54282.419    45.98
timer:  c-buildD       9240       0.927    8566.858     7.26
timer:  DHSCF4            1      20.356      20.356     0.02
timer:  dfscf             1      18.952      18.952     0.02
timer:  overfsm           1       0.281       0.281     0.00
timer:  optical           1       6.390       6.390     0.01
  

elaps: ELAPSED times:
elaps:  Routine       Calls   Time/call    Tot.time        %
elaps:  siesta            1    9862.123    9862.123   100.00
elaps:  Setup             1       0.298       0.298     0.00
elaps:  bands             3      18.948      56.843     0.58
elaps:  writewave         1       0.002       0.002     0.00
elaps:  KSV_init          1       0.000       0.000     0.00
elaps:  IterMD            1    9804.446    9804.446    99.42
elaps:  hsparse           1       0.016       0.016     0.00
elaps:  overlap           1       0.708       0.708     0.01
elaps:  IterSCF          40     244.849    9793.956    99.31
elaps:  kinefsm           2       0.361       0.722     0.01
elaps:  nlefsm            2       1.620       3.240     0.03
elaps:  DHSCF            41       5.312     217.796     2.21
elaps:  DHSCF1            1       0.077       0.077     0.00
elaps:  DHSCF2            1       2.082       2.082     0.02
elaps:  REORD           330       0.000       0.096     0.00
elaps:  POISON           42       0.038       1.581     0.02
elaps:  DHSCF3           41       5.177     212.257     2.15
elaps:  rhoofd           41       2.139      87.690     0.89
elaps:  cellXC           41       0.199       8.160     0.08
elaps:  vmat             41       2.434      99.808     1.01
elaps:  MolMec            2       0.000       0.000     0.00
elaps:  diagon           40     239.483    9579.310    97.13
elaps:  c-eigval       9361       0.468    4381.907    44.43
elaps:  c-buildHS      9361       0.003      30.899     0.31
elaps:  cdiag         18601       0.474    8810.731    89.34
elaps:  cdiag1        18601       0.022     400.504     4.06
elaps:  cdiag2        18601       0.153    2853.936    28.94
elaps:  cdiag3        18601       0.285    5292.138    53.66
elaps:  cdiag4        18601       0.007     132.660     1.35
elaps:  c-eigvec       9240       0.485    4485.688    45.48
elaps:  c-buildD       9240       0.083     763.757     7.74
elaps:  DHSCF4            1       3.326       3.326     0.03
elaps:  dfscf             1       3.140       3.140     0.03
elaps:  overfsm           1       0.030       0.030     0.00
elaps:  optical           1       0.000       0.000     0.00
  
>> End of run:  29-APR-2016   2:17:49
