Siesta Version:                                        siesta-3.2-pl-3
Architecture  : x86_64-unknown-linux-gnu--unknown
Compiler flags: mpiifort -g -O2 -fPIC -xSSE4.1 -fp-model source -shared-intel 
PARALLEL version

* Running on   12 nodes in parallel
>> Start of run:   5-MAY-2016  23:59:07

                           ***********************       
                           *  WELCOME TO SIESTA  *       
                           ***********************       

reinit: Reading from standard input
************************** Dump of input data file ****************************
#(1) General system descriptors
SystemName            GRP_doping    # Descriptive name of the system
SystemLabel           GRP_doping    # Short name for naming files
%include STRUCT.fdf
%include KPT.fdf
%include BASIS.fdf
#%include TS.fdf # for transiesta calculation
#(4) DFT, Grid, SCF
XC.functional         GGA           # LDA or GGA (default = LDA)
XC.authors            PBE           # CA (Ceperley-Aldr) = PZ
                                    #    (Perdew-Zunger) - LDA - Default
                                    # PW92 (Perdew-Wang-92) - LDA
                                    # PBE (Perdew-Burke-Ernzerhof) - GGA
MeshCutoff            200.000000    Ry      # Default: 50.0 Ry ~ 0.444 Bohr
                                    #         100.0 Ry ~ 0.314 Bohr
MaxSCFIterations      500           # Default: 50
DM.MixingWeight       0.05          # Default: 0.25
DM.NumberPulay        10            # Default: 0
DM.PulayOnFile        F             # SystemLabel.P1, SystemLabel.P2
DM.Tolerance          1.d-4         # Default: 1.d-4
DM.UseSaveDM          .true.        # because of the bug
SCFMustConverge       .true.
NeglNonOverlapInt     F             # Default: F
#(5) Eigenvalue problem: order-N or diagonalization
SolutionMethod        Diagon        # or Transiesta
ElectronicTemperature 300.0 K       # Default: 300.0 K
#(6) Molecular dynamics and relaxations
#MD.TypeOfRun          CG            # Type of dynamics:
#MD.VariableCell       F
#MD.NumCGsteps         0           # 0 for single-point / 100 for gopt
#MD.MaxCGDispl         0.2 Bohr      # Default: 0.2 Bohr
#MD.MaxForceTol        0.02 eV/Ang   # Default: 0.04 eV/Ang
#MD.MaxStressTol       1.0 GPa       # Default: 1.0 GPa
# Geometry Constraints
#%block GeometryConstraints
#	position from 1 to 44
#%endblock GeometryConstraints
BandLinesScale   pi/a
%block BandLines
 1   0.00000000  0.00000000  0.00000000
50   0.00000000  0.07809418  0.00000000
50   0.04509075  0.07809242  0.00000000
20   0.00000000  0.00000000  0.00000000
%endblock BandLines
************************** End of input data file *****************************

reinit: -----------------------------------------------------------------------
reinit: System Name: GRP_doping
reinit: -----------------------------------------------------------------------
reinit: System Label: GRP_doping                                                  
reinit: -----------------------------------------------------------------------

initatom: Reading input for the pseudopotentials and atomic orbitals ----------
 Species number:            1  Label: N Atomic number:           7
 Species number:            2  Label: C Atomic number:           6
Ground state valence configuration:   2s02  2p03
Reading pseudopotential information in formatted form from N.psf

Valence configuration for pseudopotential generation:
2s( 2.00) rc: 1.48
2p( 3.00) rc: 1.48
3d( 0.00) rc: 1.48
4f( 0.00) rc: 1.48
Ground state valence configuration:   2s02  2p02
Reading pseudopotential information in formatted form from C.psf

Valence configuration for pseudopotential generation:
2s( 2.00) rc: 1.54
2p( 2.00) rc: 1.54
3d( 0.00) rc: 1.54
4f( 0.00) rc: 1.54
For N, standard SIESTA heuristics set lmxkb to 3
 (one more than the basis l, including polarization orbitals).
Use PS.lmax or PS.KBprojectors blocks to override.
For C, standard SIESTA heuristics set lmxkb to 3
 (one more than the basis l, including polarization orbitals).
Use PS.lmax or PS.KBprojectors blocks to override.

<basis_specs>
===============================================================================
N                    Z=   7    Mass=  14.010        Charge= 0.17977+309
Lmxo=1 Lmxkb= 3    BasisType=split      Semic=F
L=0  Nsemic=0  Cnfigmx=2
          n=1  nzeta=2  polorb=0
            splnorm:   0.15000    
               vcte:    0.0000    
               rinn:    0.0000    
                rcs:    0.0000      0.0000    
            lambdas:    1.0000      1.0000    
L=1  Nsemic=0  Cnfigmx=2
          n=1  nzeta=2  polorb=1
            splnorm:   0.15000    
               vcte:    0.0000    
               rinn:    0.0000    
                rcs:    0.0000      0.0000    
            lambdas:    1.0000      1.0000    
-------------------------------------------------------------------------------
L=0  Nkbl=1  erefs: 0.17977+309
L=1  Nkbl=1  erefs: 0.17977+309
L=2  Nkbl=1  erefs: 0.17977+309
L=3  Nkbl=1  erefs: 0.17977+309
===============================================================================
</basis_specs>

atom: Called for N                     (Z =   7)

read_vps: Pseudopotential generation method:
read_vps: ATM3      Troullier-Martins                       
Total valence charge:    5.00000

read_vps: Pseudopotential includes a core correction:
read_vps: Pseudo-core for xc-correction

xc_check: Exchange-correlation functional:
xc_check: GGA Perdew, Burke & Ernzerhof 1996
V l=0 = -2*Zval/r beyond r=  1.4606
V l=1 = -2*Zval/r beyond r=  1.4606
V l=2 = -2*Zval/r beyond r=  1.4606
V l=3 = -2*Zval/r beyond r=  1.4606
All V_l potentials equal beyond r=  1.4606
This should be close to max(r_c) in ps generation
All pots = -2*Zval/r beyond r=  1.4606

VLOCAL1: 99.0% of the norm of Vloc inside     20.347 Ry
VLOCAL1: 99.9% of the norm of Vloc inside     46.372 Ry
atom: Maximum radius for 4*pi*r*r*local-pseudopot. charge    1.76189
atom: Maximum radius for r*vlocal+2*Zval:    1.53550
GHOST: No ghost state for L =  0
GHOST: No ghost state for L =  1
GHOST: No ghost state for L =  2
GHOST: No ghost state for L =  3

KBgen: Kleinman-Bylander projectors: 
   l= 0   rc=  1.634559   el= -1.363963   Ekb=  5.296955   kbcos=  0.335621
   l= 1   rc=  1.614250   el= -0.521451   Ekb= -5.259161   kbcos= -0.433408
   l= 2   rc=  1.718383   el=  0.001991   Ekb= -1.271464   kbcos= -0.007566
   l= 3   rc=  1.761893   el=  0.003093   Ekb= -0.494769   kbcos= -0.001015

KBgen: Total number of  Kleinman-Bylander projectors:   16
atom: -------------------------------------------------------------------------

atom: SANKEY-TYPE ORBITALS:
atom: Selected multiple-zeta basis: split     

SPLIT: Orbitals with angular momentum L= 0

SPLIT: Basis orbitals for state 2s

SPLIT: PAO cut-off radius determined from an
SPLIT: energy shift=  0.007350 Ry

   izeta = 1
                 lambda =    1.000000
                     rc =    4.071465
                 energy =   -1.356470
                kinetic =    1.176977
    potential(screened) =   -2.533447
       potential(ionic) =   -8.057990

   izeta = 2
                 rmatch =    2.905100
              splitnorm =    0.150000
                 energy =   -1.158343
                kinetic =    1.813009
    potential(screened) =   -2.971352
       potential(ionic) =   -8.901931

SPLIT: Orbitals with angular momentum L= 1

SPLIT: Basis orbitals for state 2p

SPLIT: PAO cut-off radius determined from an
SPLIT: energy shift=  0.007350 Ry

   izeta = 1
                 lambda =    1.000000
                     rc =    4.972977
                 energy =   -0.513884
                kinetic =    3.441732
    potential(screened) =   -3.955616
       potential(ionic) =   -9.287901

   izeta = 2
                 rmatch =    3.054066
              splitnorm =    0.150000
                 energy =   -0.318226
                kinetic =    5.125348
    potential(screened) =   -5.443573
       potential(ionic) =  -11.380999

POLgen: Perturbative polarization orbital with L=  2

POLgen: Polarization orbital for state 2p

   izeta = 1
                     rc =    4.972977
                 energy =    1.607437
                kinetic =    3.268125
    potential(screened) =   -1.660688
       potential(ionic) =   -5.973652
atom: Total number of Sankey-type orbitals: 13

atm_pop: Valence configuration (for local Pseudopot. screening):
 2s( 2.00)                                                            
 2p( 3.00)                                                            
Vna: chval, zval:    5.00000   5.00000

Vna:  Cut-off radius for the neutral-atom potential:   4.972977
comcore: Pseudo-core radius Rcore=  1.554824

atom: _________________________________________________________________________

<basis_specs>
===============================================================================
C                    Z=   6    Mass=  12.010        Charge= 0.17977+309
Lmxo=1 Lmxkb= 3    BasisType=split      Semic=F
L=0  Nsemic=0  Cnfigmx=2
          n=1  nzeta=2  polorb=0
            splnorm:   0.15000    
               vcte:    0.0000    
               rinn:    0.0000    
                rcs:    0.0000      0.0000    
            lambdas:    1.0000      1.0000    
L=1  Nsemic=0  Cnfigmx=2
          n=1  nzeta=2  polorb=1
            splnorm:   0.15000    
               vcte:    0.0000    
               rinn:    0.0000    
                rcs:    0.0000      0.0000    
            lambdas:    1.0000      1.0000    
-------------------------------------------------------------------------------
L=0  Nkbl=1  erefs: 0.17977+309
L=1  Nkbl=1  erefs: 0.17977+309
L=2  Nkbl=1  erefs: 0.17977+309
L=3  Nkbl=1  erefs: 0.17977+309
===============================================================================
</basis_specs>

atom: Called for C                     (Z =   6)

read_vps: Pseudopotential generation method:
read_vps: ATM3      Troullier-Martins                       
Total valence charge:    4.00000

read_vps: Pseudopotential includes a core correction:
read_vps: Pseudo-core for xc-correction

xc_check: Exchange-correlation functional:
xc_check: GGA Perdew, Burke & Ernzerhof 1996
V l=0 = -2*Zval/r beyond r=  1.5227
V l=1 = -2*Zval/r beyond r=  1.5227
V l=2 = -2*Zval/r beyond r=  1.5227
V l=3 = -2*Zval/r beyond r=  1.5038
All V_l potentials equal beyond r=  1.5227
This should be close to max(r_c) in ps generation
All pots = -2*Zval/r beyond r=  1.5227

VLOCAL1: 99.0% of the norm of Vloc inside     18.722 Ry
VLOCAL1: 99.9% of the norm of Vloc inside     42.668 Ry
atom: Maximum radius for 4*pi*r*r*local-pseudopot. charge    1.83678
atom: Maximum radius for r*vlocal+2*Zval:    1.58088
GHOST: No ghost state for L =  0
GHOST: No ghost state for L =  1
GHOST: No ghost state for L =  2
GHOST: No ghost state for L =  3

KBgen: Kleinman-Bylander projectors: 
   l= 0   rc=  1.704034   el= -1.009801   Ekb=  5.335044   kbcos=  0.316824
   l= 1   rc=  1.704034   el= -0.388707   Ekb= -3.785862   kbcos= -0.366464
   l= 2   rc=  1.791422   el=  0.001971   Ekb= -0.970471   kbcos= -0.009212
   l= 3   rc=  1.859892   el=  0.003065   Ekb= -0.399525   kbcos= -0.001223

KBgen: Total number of  Kleinman-Bylander projectors:   16
atom: -------------------------------------------------------------------------

atom: SANKEY-TYPE ORBITALS:
atom: Selected multiple-zeta basis: split     

SPLIT: Orbitals with angular momentum L= 0

SPLIT: Basis orbitals for state 2s

SPLIT: PAO cut-off radius determined from an
SPLIT: energy shift=  0.007350 Ry

   izeta = 1
                 lambda =    1.000000
                     rc =    4.632753
                 energy =   -1.002270
                kinetic =    0.855760
    potential(screened) =   -1.858031
       potential(ionic) =   -5.417575

   izeta = 2
                 rmatch =    3.431921
              splitnorm =    0.150000
                 energy =   -0.867111
                kinetic =    1.300804
    potential(screened) =   -2.167915
       potential(ionic) =   -5.962684

SPLIT: Orbitals with angular momentum L= 1

SPLIT: Basis orbitals for state 2p

SPLIT: PAO cut-off radius determined from an
SPLIT: energy shift=  0.007350 Ry

   izeta = 1
                 lambda =    1.000000
                     rc =    5.658549
                 energy =   -0.381140
                kinetic =    2.399701
    potential(screened) =   -2.780841
       potential(ionic) =   -6.206085

   izeta = 2
                 rmatch =    3.653288
              splitnorm =    0.150000
                 energy =   -0.249149
                kinetic =    3.542762
    potential(screened) =   -3.791911
       potential(ionic) =   -7.581078

POLgen: Perturbative polarization orbital with L=  2

POLgen: Polarization orbital for state 2p

   izeta = 1
                     rc =    5.658549
                 energy =    1.109913
                kinetic =    2.304789
    potential(screened) =   -1.194876
       potential(ionic) =   -4.013592
atom: Total number of Sankey-type orbitals: 13

atm_pop: Valence configuration (for local Pseudopot. screening):
 2s( 2.00)                                                            
 2p( 2.00)                                                            
Vna: chval, zval:    4.00000   4.00000

Vna:  Cut-off radius for the neutral-atom potential:   5.658549
comcore: Pseudo-core radius Rcore=  1.791422

atom: _________________________________________________________________________

prinput: Basis input ----------------------------------------------------------

PAO.BasisType split     

%block ChemicalSpeciesLabel
    1    7 N                       # Species index, atomic number, species label
    2    6 C                       # Species index, atomic number, species label
%endblock ChemicalSpeciesLabel

%block PAO.Basis                 # Define Basis set
N                     2                    # Species label, number of l-shells
 n=2   0   2                         # n, l, Nzeta 
   4.071      2.905   
   1.000      1.000   
 n=2   1   2 P   1                   # n, l, Nzeta, Polarization, NzetaPol
   4.973      3.054   
   1.000      1.000   
C                     2                    # Species label, number of l-shells
 n=2   0   2                         # n, l, Nzeta 
   4.633      3.432   
   1.000      1.000   
 n=2   1   2 P   1                   # n, l, Nzeta, Polarization, NzetaPol
   5.659      3.653   
   1.000      1.000   
%endblock PAO.Basis

prinput: ----------------------------------------------------------------------

coor:   Atomic-coordinates input format  =     Fractional

siesta: Atomic coordinates (Bohr) and species
siesta:      6.95932  17.38257   0.00000  1        1
siesta:     -0.02582  10.66124   0.00000  1        2
siesta:     -0.02582  13.34970   0.00000  1        3
siesta:      4.63094  18.72698   0.00000  1        4
siesta:      4.63094  21.41544   0.00000  1        5
siesta:     -0.02582  18.72698   0.00000  1        6
siesta:     -0.02582  21.41544   0.00000  1        7
siesta:      2.30256  22.75985   0.00000  1        8
siesta:     -2.35420  22.75985   0.00000  1        9
siesta:     -2.35420  25.44831   0.00000  1       10
siesta:     -4.68258  26.79272   0.00000  1       11
siesta:     -4.68258  29.48119   0.00000  1       12
siesta:     -2.35420  30.82560   0.00000  1       13
siesta:     -2.35420  33.51406   0.00000  1       14
siesta:     -0.02582  34.85847   0.00000  1       15
siesta:     -0.02582  37.54693   0.00000  1       16
siesta:     -0.02582   2.59549   0.00000  2       17
siesta:     -0.02582   5.28395   0.00000  2       18
siesta:     -2.35420  38.89134   0.00000  2       19
siesta:     -2.35420  41.57980   0.00000  2       20
siesta:      2.30256  38.89134   0.00000  2       21
siesta:      2.30256  41.57980   0.00000  2       22
siesta:      4.63094  34.85847   0.00000  2       23
siesta:      4.63094  37.54693   0.00000  2       24
siesta:      6.95932  30.82560   0.00000  2       25
siesta:      6.95932  33.51406   0.00000  2       26
siesta:      9.28770  26.79272   0.00000  2       27
siesta:      9.28770  29.48119   0.00000  2       28
siesta:     -4.68258  34.85847   0.00000  2       29
siesta:     -4.68258  37.54693   0.00000  2       30
siesta:      2.30256   6.62836   0.00000  2       31
siesta:      2.30256   9.31683   0.00000  2       32
siesta:      4.63094  10.66124   0.00000  2       33
siesta:      4.63094  13.34970   0.00000  2       34
siesta:      6.95932  14.69411   0.00000  2       35
siesta:      9.28770  18.72698   0.00000  2       36
siesta:      9.28770  21.41544   0.00000  2       37
siesta:     11.61608  22.75985   0.00000  2       38
siesta:     11.61608  25.44831   0.00000  2       39
siesta:     -2.35420   6.62836   0.00000  2       40
siesta:     -2.35420   9.31683   0.00000  2       41
siesta:      2.30256  14.69411   0.00000  2       42
siesta:      2.30256  17.38257   0.00000  2       43
siesta:      6.95932  22.75985   0.00000  2       44
siesta:      6.95932  25.44831   0.00000  2       45
siesta:     -4.68258  10.66124   0.00000  2       46
siesta:     -4.68258  13.34970   0.00000  2       47
siesta:     -2.35420  14.69411   0.00000  2       48
siesta:     -2.35420  17.38257   0.00000  2       49
siesta:      2.30256  25.44831   0.00000  2       50
siesta:     -7.01096  14.69411   0.00000  2       51
siesta:     -7.01096  17.38257   0.00000  2       52
siesta:     -4.68258  18.72698   0.00000  2       53
siesta:     -4.68258  21.41544   0.00000  2       54
siesta:     -9.33934  18.72698   0.00000  2       55
siesta:     -9.33934  21.41544   0.00000  2       56
siesta:     -7.01096  22.75985   0.00000  2       57
siesta:     -7.01096  25.44831   0.00000  2       58
siesta:    -11.66772  22.75985   0.00000  2       59
siesta:    -11.66772  25.44831   0.00000  2       60
siesta:     -9.33934  26.79272   0.00000  2       61
siesta:     -9.33934  29.48119   0.00000  2       62
siesta:      4.63094  26.79272   0.00000  2       63
siesta:      4.63094  29.48119   0.00000  2       64
siesta:     -0.02582  26.79272   0.00000  2       65
siesta:     -0.02582  29.48119   0.00000  2       66
siesta:      2.30256  30.82560   0.00000  2       67
siesta:      2.30256  33.51406   0.00000  2       68
siesta:     -7.01096  30.82560   0.00000  2       69
siesta:     -7.01096  33.51406   0.00000  2       70
siesta:     -0.02582  42.92421   0.00000  2       71
siesta:     -0.02582  45.61267   0.00000  2       72

siesta: System type = slab      

initatomlists: Number of atoms, orbitals, and projectors:     72   936  1152

siesta: ******************** Simulation parameters ****************************
siesta:
siesta: The following are some of the parameters of the simulation.
siesta: A complete list of the parameters used, including default values,
siesta: can be found in file out.fdf
siesta:
redata: Non-Collinear-spin run           =     F
redata: SpinPolarized (Up/Down) run      =     F
redata: Number of spin components        =     1
redata: Long output                      =     F
redata: Number of Atomic Species         =        2
redata: Charge density info will appear in .RHO file
redata: Write Mulliken Pop.              =     NO
redata: Mesh Cutoff                      =   200.0000  Ry
redata: Net charge of the system         =     0.0000 |e|
redata: Max. number of SCF Iter          =      500
redata: SCF convergence failure will abort job
redata: Performing Pulay mixing using    =    10 iterations
redata: Mix DM in first SCF step ?       =     F
redata: Write Pulay info on disk?        =     F
redata: Discard 1st Pulay DM after  kick =     F
redata: New DM Mixing Weight             =     0.0500
redata: New DM Occupancy tolerance       = 0.000000000001
redata: No kicks to SCF
redata: DM Mixing Weight for Kicks       =     0.5000
redata: DM Tolerance for SCF             =     0.000100
redata: Require Energy convergence for SCF =     F
redata: DM Energy tolerance for SCF      =     0.000100 eV
redata: Require Harris convergence for SCF =     F
redata: DM Harris energy tolerance for SCF =     0.000100 eV
redata: Using Saved Data (generic)   =     F
redata: Use continuation files for DM    =     T
redata: Neglect nonoverlap interactions  =     F
redata: Method of Calculation            =     Diagonalization
redata: Divide and Conquer               =     T
redata: Electronic Temperature           =     0.0019  Ry
redata: Fix the spin of the system       =     F
redata: Dynamics option                  =     Verlet MD run
redata: Initial MD time step             =        1
redata:   Final MD time step             =        1
redata: Length of MD time step           =     1.0000  fs
redata: Initial Temperature of MD run    =     0.0000  K
redata: Perform a MD quench              =     F
redata: ***********************************************************************
Total number of electrons:   304.000000
Total ionic charge:   304.000000

* ProcessorY, Blocksize:    3  24

k-point displ. along   1 input, could be:     0.50    0.00
k-point displ. along   2 input, could be:     0.50    0.00
 Kpoints in:          231 . Kpoints trimmed:          231

siesta: k-grid: Number of k-points =   231
siesta: k-grid: Cutoff (effective) =     5.000 Ang
siesta: k-grid: Supercell and displacements
siesta: k-grid:   21   0   0      0.500
siesta: k-grid:    0  21   0      0.500
siesta: k-grid:    0   0   1      0.000
Naive supercell factors:     2    2    2

superc: Internal auxiliary supercell:     2 x     2 x     2  =       8
superc: Number of atoms, orbitals, and projectors:    576   7488   9216

* Maximum dynamic memory allocated =     4 MB

siesta:                 ==============================
                            Begin MD step =      1
                        ==============================

superc: Internal auxiliary supercell:     2 x     2 x     2  =       8
superc: Number of atoms, orbitals, and projectors:    576   7488   9216

outcell: Unit cell vectors (Ang):
       12.804619    7.392750    0.000000
        0.000000   14.785500    0.000000
        0.000000    0.000000   10.000000

outcell: Cell vector modules (Ang)   :   14.785500   14.785500   10.000000
outcell: Cell angles (23,13,12) (deg):     90.0000     90.0000     60.0000
outcell: Cell volume (Ang**3)        :   1893.2269
New_DM. Step:     1
Initializing Density Matrix...

InitMesh: MESH =   120 x   120 x    90 =     1296000
InitMesh: Mesh cutoff (required, used) =   200.000   223.865 Ry

* Maximum dynamic memory allocated =   133 MB

stepf: Fermi-Dirac step function

siesta: Program's energy decomposition (eV):
siesta: Ebs     =     -6201.023973
siesta: Eions   =     20974.960578
siesta: Ena     =      4893.816704
siesta: Ekin    =      7720.939539
siesta: Enl     =       153.531438
siesta: DEna    =        -0.000015
siesta: DUscf   =         0.000000
siesta: DUext   =         0.000000
siesta: Exc     =     -4574.045949
siesta: eta*DQ  =         0.000000
siesta: Emadel  =         0.000000
siesta: Emeta   =         0.000000
siesta: Emolmec =         0.000000
siesta: Ekinion =         0.000000
siesta: Eharris =    -12400.476384
siesta: Etot    =    -12780.718860
siesta: FreeEng =    -12780.718860

siesta: iscf   Eharris(eV)      E_KS(eV)   FreeEng(eV)   dDmax  Ef(eV)
siesta:    1   -12400.4764   -12780.7189   -12780.7189  8.5957 -6.8657
timer: Routine,Calls,Time,% = IterSCF        1    3012.031  99.60
elaps: Routine,Calls,Wall,% = IterSCF        1     251.600  99.60
siesta:    2   -16253.7956   -11824.2565   -11824.3246 15.4357 -3.7313
siesta:    3   -12298.6625   -12578.1496   -12578.1940  3.1976 -5.2337
siesta:    4   -12280.6561   -12413.4910   -12413.5126  1.1158 -4.4192
siesta:    5   -12253.5097   -12337.9746   -12338.0106  0.9265 -3.9733
siesta:    6   -12249.5432   -12323.2342   -12323.2814  0.8632 -3.8784
siesta:    7   -12246.5612   -12310.2744   -12310.3284  0.7620 -3.8660
siesta:    8   -12242.6072   -12282.0278   -12282.0941  0.5475 -3.8785
siesta:    9   -12242.3056   -12268.2245   -12268.2732  0.4783 -3.8278
siesta:   10   -12242.8542   -12245.8987   -12245.9482  0.3381 -3.8536
siesta:   11   -12241.8289   -12242.7606   -12242.8362  0.2747 -3.8178
siesta:   12   -12241.9199   -12232.3416   -12232.4009  0.1961 -3.7813
siesta:   13   -12241.7212   -12229.0976   -12229.1497  0.1462 -3.7922
siesta:   14   -12241.5010   -12230.7588   -12230.8297  0.1638 -3.8300
siesta:   15   -12241.3340   -12232.3006   -12232.3680  0.1324 -3.8501
siesta:   16   -12241.2212   -12234.6162   -12234.6841  0.1027 -3.8566
siesta:   17   -12241.1894   -12235.8258   -12235.8936  0.0484 -3.8585
siesta:   18   -12241.1800   -12237.4163   -12237.4854  0.0453 -3.8536
siesta:   19   -12241.1736   -12238.8222   -12238.8906  0.0294 -3.8474
siesta:   20   -12241.1705   -12239.5550   -12239.6253  0.0195 -3.8479
siesta:   21   -12241.1674   -12241.0867   -12241.1568  0.0091 -3.8494
siesta:   22   -12241.1660   -12241.1372   -12241.2069  0.0075 -3.8485
siesta:   23   -12241.1656   -12241.2118   -12241.2815  0.0061 -3.8473
siesta:   24   -12241.1652   -12241.2196   -12241.2891  0.0035 -3.8459
siesta:   25   -12241.1650   -12241.1621   -12241.2316  0.0024 -3.8449
siesta:   26   -12241.1649   -12241.1299   -12241.1995  0.0015 -3.8443
siesta:   27   -12241.1649   -12241.1481   -12241.2177  0.0009 -3.8446
siesta:   28   -12241.1649   -12241.1456   -12241.2152  0.0007 -3.8448
siesta:   29   -12241.1648   -12241.1588   -12241.2285  0.0010 -3.8450
siesta:   30   -12241.1648   -12241.1755   -12241.2451  0.0003 -3.8450
siesta:   31   -12241.1648   -12241.1905   -12241.2601  0.0003 -3.8451
siesta:   32   -12241.1648   -12241.1840   -12241.2536  0.0002 -3.8452
siesta:   33   -12241.1648   -12241.1762   -12241.2458  0.0001 -3.8452

siesta: E_KS(eV) =           -12241.1735

siesta: E_KS - E_eggbox =    -12241.1735

siesta: Atomic forces (eV/Ang):
----------------------------------------
   Tot   -0.396437    0.181578    0.000000
----------------------------------------
   Max  755.927619
   Res  176.874450    sqrt( Sum f_i^2 / 3N )
----------------------------------------
   Max  755.927619    constrained

Stress-tensor-Voigt (kbar):     -652.12    -3163.67       -0.11       23.64        0.00        0.00
(Free)E + p*V (eV/cell)   -10738.2298
Target enthalpy (eV/cell)   -12241.2431

siesta: Stress tensor (static) (eV/Ang**3):
        -0.407019    0.014756    0.000000
         0.014756   -1.974584    0.000000
         0.000000    0.000000   -0.000066

siesta: Pressure (static):       1271.96523614  kBar

siesta: Stress tensor (total) (eV/Ang**3):
        -0.407019    0.014756    0.000000
         0.014756   -1.974584    0.000000
         0.000000    0.000000   -0.000066

siesta: Pressure (total):       1271.96523614  kBar

siesta: Temp_ion =       0.000 K

* Maximum dynamic memory allocated =   145 MB
Computing bands...

siesta: Program's energy decomposition (eV):
siesta: Ebs     =     -4961.224665
siesta: Eions   =     20974.960578
siesta: Ena     =      4893.816704
siesta: Ekin    =     10839.459326
siesta: Enl     =     -1560.142471
siesta: DEna    =      -799.029415
siesta: DUscf   =       108.856193
siesta: DUext   =         0.000000
siesta: Exc     =     -4749.173245
siesta: eta*DQ  =         0.000000
siesta: Emadel  =         0.000000
siesta: Emeta   =         0.000000
siesta: Emolmec =         0.000000
siesta: Ekinion =         0.000000
siesta: Eharris =    -12241.164842
siesta: Etot    =    -12241.173485
siesta: FreeEng =    -12241.243103

siesta: Final energy (eV):
siesta:  Band Struct. =   -4961.224665
siesta:       Kinetic =   10839.459326
siesta:       Hartree =   35539.152462
siesta:    Ext. field =       0.000000
siesta:   Exch.-corr. =   -4749.173245
siesta:  Ion-electron =  -81479.387501
siesta:       Ion-ion =   27608.775472
siesta:       Ekinion =       0.000000
siesta:         Total =  -12241.173485

siesta: Atomic forces (eV/Ang):
siesta:      1    3.956036   -1.343070    0.000000
siesta:      2   -0.958381  755.927619    0.000000
siesta:      3    0.254286 -109.155809    0.000000
siesta:      4   -3.067128    2.827757    0.000000
siesta:      5    1.541262    0.567593    0.000000
siesta:      6    7.996073  679.638570    0.000000
siesta:      7   -0.267117   -1.885316    0.000000
siesta:      8    1.151037    0.310666    0.000000
siesta:      9   -2.206972    1.174892    0.000000
siesta:     10    0.020251    2.072958    0.000000
siesta:     11   -1.135427   -0.772691    0.000000
siesta:     12   -0.559928   -3.806193    0.000000
siesta:     13  -28.003350    3.810847    0.000000
siesta:     14   -6.051670 -672.797202    0.000000
siesta:     15    1.993394  107.521696    0.000000
siesta:     16    0.713943 -754.769689    0.000000
siesta:     17  -16.818939  550.134127    0.000000
siesta:     18    0.718069 -122.099156    0.000000
siesta:     19    1.114157  125.964977    0.000000
siesta:     20    2.687864 -548.829126    0.000000
siesta:     21   -0.639888  125.159958    0.000000
siesta:     22    1.192204 -548.785586    0.000000
siesta:     23   26.683657    5.754562    0.000000
siesta:     24   31.235821 -552.643142    0.000000
siesta:     25    1.977377    0.020243    0.000000
siesta:     26   -2.567102    1.841564    0.000000
siesta:     27    2.156182    1.780806    0.000000
siesta:     28   -1.018443    0.549116    0.000000
siesta:     29  -26.924157    9.902985    0.000000
siesta:     30  -30.889068 -552.451040    0.000000
siesta:     31   -6.903280  547.846336    0.000000
siesta:     32   -1.399905 -124.438509    0.000000
siesta:     33   32.771845  553.261551    0.000000
siesta:     34   25.822626   -6.814035    0.000000
siesta:     35   -1.969845    1.336485    0.000000
siesta:     36   -1.393706   -1.722011    0.000000
siesta:     37    0.773640   -2.102494    0.000000
siesta:     38   -0.256673    6.550629    0.000000
siesta:     39   -0.237305   -7.134156    0.000000
siesta:     40  -13.104043  658.730994    0.000000
siesta:     41   -1.184725 -120.436765    0.000000
siesta:     42   23.010017  565.678168    0.000000
siesta:     43   27.627216   -9.320665    0.000000
siesta:     44   -1.371365    0.824499    0.000000
siesta:     45   -0.692327   -1.079067    0.000000
siesta:     46  -31.737309  552.502753    0.000000
siesta:     47  -26.833053   -5.883590    0.000000
siesta:     48  -26.293396  565.359206    0.000000
siesta:     49  -26.984674  -10.481664    0.000000
siesta:     50   -1.683723   -0.365739    0.000000
siesta:     51    2.867483   -1.772514    0.000000
siesta:     52   -2.368675   -0.162962    0.000000
siesta:     53    1.424159    4.298535    0.000000
siesta:     54    0.571526   -1.046857    0.000000
siesta:     55    1.166465   -0.593337    0.000000
siesta:     56   -1.970922   -1.884818    0.000000
siesta:     57    1.017263    1.213614    0.000000
siesta:     58    0.816864   -0.262312    0.000000
siesta:     59    0.308299    7.037091    0.000000
siesta:     60    0.256800   -6.998563    0.000000
siesta:     61   -1.252166    1.933279    0.000000
siesta:     62    1.414231    0.708498    0.000000
siesta:     63    0.444833    0.374250    0.000000
siesta:     64   -1.682484   -2.977804    0.000000
siesta:     65    0.280587   -1.748522    0.000000
siesta:     66   18.793601 -575.434108    0.000000
siesta:     67   24.293092    4.673864    0.000000
siesta:     68   27.259430 -565.068189    0.000000
siesta:     69   -2.072509    0.555395    0.000000
siesta:     70    2.384720    0.472156    0.000000
siesta:     71    0.629732  119.323178    0.000000
siesta:     72   -7.222826 -650.393145    0.000000
siesta: ----------------------------------------
siesta:    Tot   -0.396437    0.181578    0.000000

siesta: Stress tensor (static) (eV/Ang**3):
siesta:    -0.407019    0.014756    0.000000
siesta:     0.014756   -1.974584    0.000000
siesta:     0.000000    0.000000   -0.000066

siesta: Cell volume =       1893.226884 Ang**3

siesta: Pressure (static):
siesta:                Solid            Molecule  Units
siesta:           0.00864647          0.13954092  Ry/Bohr**3
siesta:           0.79388968         12.81217238  eV/Ang**3
siesta:        1271.96523614      20527.58509852  kBar
(Free)E+ p_basis*V_orbitals  =      -12212.792903
(Free)Eharris+ p_basis*V_orbitals  =      -12212.781542

siesta: Electric dipole (a.u.)  =    0.000000    0.000000    0.000000
siesta: Electric dipole (Debye) =    0.000000    0.000000    0.000000

* Maximum dynamic memory allocated : Node    0 =   145 MB
* Maximum dynamic memory allocated : Node    1 =    58 MB
* Maximum dynamic memory allocated : Node    2 =    59 MB
* Maximum dynamic memory allocated : Node    3 =   134 MB
* Maximum dynamic memory allocated : Node    4 =   143 MB
* Maximum dynamic memory allocated : Node    5 =    52 MB
* Maximum dynamic memory allocated : Node    6 =    54 MB
* Maximum dynamic memory allocated : Node    7 =   134 MB
* Maximum dynamic memory allocated : Node    8 =   127 MB
* Maximum dynamic memory allocated : Node    9 =    52 MB
* Maximum dynamic memory allocated : Node   10 =    54 MB
* Maximum dynamic memory allocated : Node   11 =   123 MB

* Maximum memory occured during matrixMtoO                    

timer: CPU execution times:
timer:  Routine       Calls   Time/call    Tot.time        %
timer:  siesta            1   97017.809   97017.809   100.00
timer:  Setup             1       3.324       3.324     0.00
timer:  bands             3     225.514     676.541     0.70
timer:  writewave         1       0.022       0.022     0.00
timer:  KSV_init          1       0.003       0.003     0.00
timer:  IterMD            1   96331.008   96331.008    99.29
timer:  hsparse           1       0.170       0.170     0.00
timer:  overlap           1       7.363       7.363     0.01
timer:  IterSCF          33    2915.468   96210.433    99.17
timer:  kinefsm           2       3.727       7.453     0.01
timer:  nlefsm            2      18.478      36.955     0.04
timer:  DHSCF            34      59.494    2022.791     2.08
timer:  DHSCF1            1       0.898       0.898     0.00
timer:  DHSCF2            1      24.311      24.311     0.03
timer:  REORD           274       0.002       0.657     0.00
timer:  POISON           35       0.451      15.783     0.02
timer:  DHSCF3           34      58.139    1976.717     2.04
timer:  rhoofd           34      12.092     411.115     0.42
timer:  cellXC           34       2.431      82.654     0.09
timer:  vmat             34      27.411     931.985     0.96
timer:  MolMec            2       0.000       0.000     0.00
timer:  diagon           33    2854.719   94205.735    97.10
timer:  c-eigval       7744       5.577   43185.468    44.51
timer:  c-buildHS      7744       0.033     252.018     0.26
timer:  cdiag         15367       5.678   87255.731    89.94
timer:  cdiag1        15367       0.260    4000.605     4.12
timer:  cdiag2        15367       1.834   28175.721    29.04
timer:  cdiag3        15367       3.375   51864.241    53.46
timer:  cdiag4        15367       0.088    1356.132     1.40
timer:  c-eigvec       7623       5.842   44531.923    45.90
timer:  c-buildD       7623       0.934    7123.132     7.34
timer:  DHSCF4            1      20.621      20.621     0.02
timer:  dfscf             1      19.193      19.193     0.02
timer:  overfsm           1       0.282       0.282     0.00
timer:  optical           1       6.328       6.328     0.01
  

elaps: ELAPSED times:
elaps:  Routine       Calls   Time/call    Tot.time        %
elaps:  siesta            1    8103.855    8103.855   100.00
elaps:  Setup             1       0.277       0.277     0.00
elaps:  bands             3      18.852      56.557     0.70
elaps:  writewave         1       0.002       0.002     0.00
elaps:  KSV_init          1       0.000       0.000     0.00
elaps:  IterMD            1    8046.486    8046.486    99.29
elaps:  hsparse           1       0.016       0.016     0.00
elaps:  overlap           1       0.711       0.711     0.01
elaps:  IterSCF          33     243.528    8036.414    99.17
elaps:  kinefsm           2       0.363       0.726     0.01
elaps:  nlefsm            2       1.610       3.220     0.04
elaps:  DHSCF            34       5.020     170.671     2.11
elaps:  DHSCF1            1       0.077       0.077     0.00
elaps:  DHSCF2            1       2.029       2.029     0.03
elaps:  REORD           274       0.000       0.082     0.00
elaps:  POISON           35       0.038       1.334     0.02
elaps:  DHSCF3           34       4.857     165.143     2.04
elaps:  rhoofd           34       2.137      72.645     0.90
elaps:  cellXC           34       0.203       6.888     0.08
elaps:  vmat             34       2.290      77.871     0.96
elaps:  MolMec            2       0.000       0.000     0.00
elaps:  diagon           33     238.461    7869.204    97.10
elaps:  c-eigval       7744       0.466    3607.236    44.51
elaps:  c-buildHS      7744       0.003      26.924     0.33
elaps:  cdiag         15367       0.469    7212.627    89.00
elaps:  cdiag1        15367       0.021     326.934     4.03
elaps:  cdiag2        15367       0.153    2355.611    29.07
elaps:  cdiag3        15367       0.282    4338.258    53.53
elaps:  cdiag4        15367       0.007     109.305     1.35
elaps:  c-eigvec       7623       0.480    3655.399    45.11
elaps:  c-buildD       7623       0.086     659.181     8.13
elaps:  DHSCF4            1       3.389       3.389     0.04
elaps:  dfscf             1       3.196       3.196     0.04
elaps:  overfsm           1       0.030       0.030     0.00
elaps:  optical           1       0.000       0.000     0.00
  
>> End of run:   6-MAY-2016   2:14:11
