Siesta Version:                                        siesta-3.2-pl-3
Architecture  : x86_64-unknown-linux-gnu--unknown
Compiler flags: mpiifort -g -O2 -fPIC -xSSE4.1 -fp-model source -shared-intel 
PARALLEL version

* Running on    8 nodes in parallel
>> Start of run:  21-APR-2016   7:23:15

                           ***********************       
                           *  WELCOME TO SIESTA  *       
                           ***********************       

reinit: Reading from standard input
************************** Dump of input data file ****************************
#(1) General system descriptors
SystemName            GRP_doping    # Descriptive name of the system
SystemLabel           GRP_doping    # Short name for naming files
%include STRUCT.fdf
%include KPT.fdf
%include BASIS.fdf
#%include TS.fdf # for transiesta calculation
#(4) DFT, Grid, SCF
XC.functional         GGA           # LDA or GGA (default = LDA)
XC.authors            PBE           # CA (Ceperley-Aldr) = PZ
                                    #    (Perdew-Zunger) - LDA - Default
                                    # PW92 (Perdew-Wang-92) - LDA
                                    # PBE (Perdew-Burke-Ernzerhof) - GGA
MeshCutoff            200.000000    Ry      # Default: 50.0 Ry ~ 0.444 Bohr
                                    #         100.0 Ry ~ 0.314 Bohr
MaxSCFIterations      500           # Default: 50
DM.MixingWeight       0.05          # Default: 0.25
DM.NumberPulay        10            # Default: 0
DM.PulayOnFile        F             # SystemLabel.P1, SystemLabel.P2
DM.Tolerance          1.d-4         # Default: 1.d-4
DM.UseSaveDM          .true.        # because of the bug
SCFMustConverge       .true.
NeglNonOverlapInt     F             # Default: F
#(5) Eigenvalue problem: order-N or diagonalization
SolutionMethod        Diagon        # or Transiesta
ElectronicTemperature 300.0 K       # Default: 300.0 K
#(6) Molecular dynamics and relaxations
#MD.TypeOfRun          CG            # Type of dynamics:
#MD.VariableCell       F
#MD.NumCGsteps         0           # 0 for single-point / 100 for gopt
#MD.MaxCGDispl         0.2 Bohr      # Default: 0.2 Bohr
#MD.MaxForceTol        0.02 eV/Ang   # Default: 0.04 eV/Ang
#MD.MaxStressTol       1.0 GPa       # Default: 1.0 GPa
# Geometry Constraints
#%block GeometryConstraints
#	position from 1 to 44
#%endblock GeometryConstraints
BandLinesScale   pi/a
%block BandLines
 1   0.00000000  0.00000000  0.00000000
50   0.00000000  0.07809418  0.00000000
50   0.04509075  0.07809242  0.00000000
20   0.00000000  0.00000000  0.00000000
%endblock BandLines
************************** End of input data file *****************************

reinit: -----------------------------------------------------------------------
reinit: System Name: GRP_doping
reinit: -----------------------------------------------------------------------
reinit: System Label: GRP_doping                                                  
reinit: -----------------------------------------------------------------------

initatom: Reading input for the pseudopotentials and atomic orbitals ----------
 Species number:            1  Label: B Atomic number:           5
 Species number:            2  Label: C Atomic number:           6
Ground state valence configuration:   2s02  2p01
Reading pseudopotential information in formatted form from B.psf

Valence configuration for pseudopotential generation:
2s( 2.00) rc: 1.74
2p( 1.00) rc: 1.74
3d( 0.00) rc: 1.74
4f( 0.00) rc: 1.74
Ground state valence configuration:   2s02  2p02
Reading pseudopotential information in formatted form from C.psf

Valence configuration for pseudopotential generation:
2s( 2.00) rc: 1.54
2p( 2.00) rc: 1.54
3d( 0.00) rc: 1.54
4f( 0.00) rc: 1.54
For B, standard SIESTA heuristics set lmxkb to 3
 (one more than the basis l, including polarization orbitals).
Use PS.lmax or PS.KBprojectors blocks to override.
For C, standard SIESTA heuristics set lmxkb to 3
 (one more than the basis l, including polarization orbitals).
Use PS.lmax or PS.KBprojectors blocks to override.

<basis_specs>
===============================================================================
B                    Z=   5    Mass=  10.810        Charge= 0.17977+309
Lmxo=1 Lmxkb= 3    BasisType=split      Semic=F
L=0  Nsemic=0  Cnfigmx=2
          n=1  nzeta=2  polorb=0
            splnorm:   0.15000    
               vcte:    0.0000    
               rinn:    0.0000    
                rcs:    0.0000      0.0000    
            lambdas:    1.0000      1.0000    
L=1  Nsemic=0  Cnfigmx=2
          n=1  nzeta=2  polorb=1
            splnorm:   0.15000    
               vcte:    0.0000    
               rinn:    0.0000    
                rcs:    0.0000      0.0000    
            lambdas:    1.0000      1.0000    
-------------------------------------------------------------------------------
L=0  Nkbl=1  erefs: 0.17977+309
L=1  Nkbl=1  erefs: 0.17977+309
L=2  Nkbl=1  erefs: 0.17977+309
L=3  Nkbl=1  erefs: 0.17977+309
===============================================================================
</basis_specs>

atom: Called for B                     (Z =   5)

read_vps: Pseudopotential generation method:
read_vps: ATM3      Troullier-Martins                       
Total valence charge:    3.00000

read_vps: Pseudopotential includes a core correction:
read_vps: Pseudo-core for xc-correction

xc_check: Exchange-correlation functional:
xc_check: GGA Perdew, Burke & Ernzerhof 1996
V l=0 = -2*Zval/r beyond r=  1.7165
V l=1 = -2*Zval/r beyond r=  1.7165
V l=2 = -2*Zval/r beyond r=  1.7165
V l=3 = -2*Zval/r beyond r=  1.6951
All V_l potentials equal beyond r=  1.7165
This should be close to max(r_c) in ps generation
All pots = -2*Zval/r beyond r=  1.7165

VLOCAL1: 99.0% of the norm of Vloc inside     14.733 Ry
VLOCAL1: 99.9% of the norm of Vloc inside     33.577 Ry
atom: Maximum radius for 4*pi*r*r*local-pseudopot. charge    2.04484
atom: Maximum radius for r*vlocal+2*Zval:    1.75994
GHOST: No ghost state for L =  0
GHOST: No ghost state for L =  1
GHOST: No ghost state for L =  2
GHOST: No ghost state for L =  3

KBgen: Kleinman-Bylander projectors: 
   l= 0   rc=  1.897051   el= -0.693730   Ekb=  4.595746   kbcos=  0.286105
   l= 1   rc=  1.920920   el= -0.265236   Ekb= -2.350715   kbcos= -0.315747
   l= 2   rc=  2.044840   el=  0.002055   Ekb= -0.690767   kbcos= -0.013822
   l= 3   rc=  2.149707   el=  0.003188   Ekb= -0.315358   kbcos= -0.002055

KBgen: Total number of  Kleinman-Bylander projectors:   16
atom: -------------------------------------------------------------------------

atom: SANKEY-TYPE ORBITALS:
atom: Selected multiple-zeta basis: split     

SPLIT: Orbitals with angular momentum L= 0

SPLIT: Basis orbitals for state 2s

SPLIT: PAO cut-off radius determined from an
SPLIT: energy shift=  0.007350 Ry

   izeta = 1
                 lambda =    1.000000
                     rc =    5.422032
                 energy =   -0.686029
                kinetic =    0.576707
    potential(screened) =   -1.262736
       potential(ionic) =   -3.271094

   izeta = 2
                 rmatch =    4.222573
              splitnorm =    0.150000
                 energy =   -0.602132
                kinetic =    0.858975
    potential(screened) =   -1.461107
       potential(ionic) =   -3.582536

SPLIT: Orbitals with angular momentum L= 1

SPLIT: Basis orbitals for state 2p

SPLIT: PAO cut-off radius determined from an
SPLIT: energy shift=  0.007350 Ry

   izeta = 1
                 lambda =    1.000000
                     rc =    6.790259
                 energy =   -0.258578
                kinetic =    1.481412
    potential(screened) =   -1.739989
       potential(ionic) =   -3.657461

   izeta = 2
                 rmatch =    4.608740
              splitnorm =    0.150000
                 energy =   -0.173757
                kinetic =    2.186690
    potential(screened) =   -2.360447
       potential(ionic) =   -4.464260

POLgen: Perturbative polarization orbital with L=  2

POLgen: Polarization orbital for state 2p

   izeta = 1
                     rc =    6.790259
                 energy =    0.684082
                kinetic =    1.471481
    potential(screened) =   -0.787399
       potential(ionic) =   -2.406985
atom: Total number of Sankey-type orbitals: 13

atm_pop: Valence configuration (for local Pseudopot. screening):
 2s( 2.00)                                                            
 2p( 1.00)                                                            
Vna: chval, zval:    3.00000   3.00000

Vna:  Cut-off radius for the neutral-atom potential:   6.790259
comcore: Pseudo-core radius Rcore=  2.122997

atom: _________________________________________________________________________

<basis_specs>
===============================================================================
C                    Z=   6    Mass=  12.010        Charge= 0.17977+309
Lmxo=1 Lmxkb= 3    BasisType=split      Semic=F
L=0  Nsemic=0  Cnfigmx=2
          n=1  nzeta=2  polorb=0
            splnorm:   0.15000    
               vcte:    0.0000    
               rinn:    0.0000    
                rcs:    0.0000      0.0000    
            lambdas:    1.0000      1.0000    
L=1  Nsemic=0  Cnfigmx=2
          n=1  nzeta=2  polorb=1
            splnorm:   0.15000    
               vcte:    0.0000    
               rinn:    0.0000    
                rcs:    0.0000      0.0000    
            lambdas:    1.0000      1.0000    
-------------------------------------------------------------------------------
L=0  Nkbl=1  erefs: 0.17977+309
L=1  Nkbl=1  erefs: 0.17977+309
L=2  Nkbl=1  erefs: 0.17977+309
L=3  Nkbl=1  erefs: 0.17977+309
===============================================================================
</basis_specs>

atom: Called for C                     (Z =   6)

read_vps: Pseudopotential generation method:
read_vps: ATM3      Troullier-Martins                       
Total valence charge:    4.00000

read_vps: Pseudopotential includes a core correction:
read_vps: Pseudo-core for xc-correction

xc_check: Exchange-correlation functional:
xc_check: GGA Perdew, Burke & Ernzerhof 1996
V l=0 = -2*Zval/r beyond r=  1.5227
V l=1 = -2*Zval/r beyond r=  1.5227
V l=2 = -2*Zval/r beyond r=  1.5227
V l=3 = -2*Zval/r beyond r=  1.5038
All V_l potentials equal beyond r=  1.5227
This should be close to max(r_c) in ps generation
All pots = -2*Zval/r beyond r=  1.5227

VLOCAL1: 99.0% of the norm of Vloc inside     18.722 Ry
VLOCAL1: 99.9% of the norm of Vloc inside     42.668 Ry
atom: Maximum radius for 4*pi*r*r*local-pseudopot. charge    1.83678
atom: Maximum radius for r*vlocal+2*Zval:    1.58088
GHOST: No ghost state for L =  0
GHOST: No ghost state for L =  1
GHOST: No ghost state for L =  2
GHOST: No ghost state for L =  3

KBgen: Kleinman-Bylander projectors: 
   l= 0   rc=  1.704034   el= -1.009801   Ekb=  5.335044   kbcos=  0.316824
   l= 1   rc=  1.704034   el= -0.388707   Ekb= -3.785862   kbcos= -0.366464
   l= 2   rc=  1.791422   el=  0.001971   Ekb= -0.970471   kbcos= -0.009212
   l= 3   rc=  1.859892   el=  0.003065   Ekb= -0.399525   kbcos= -0.001223

KBgen: Total number of  Kleinman-Bylander projectors:   16
atom: -------------------------------------------------------------------------

atom: SANKEY-TYPE ORBITALS:
atom: Selected multiple-zeta basis: split     

SPLIT: Orbitals with angular momentum L= 0

SPLIT: Basis orbitals for state 2s

SPLIT: PAO cut-off radius determined from an
SPLIT: energy shift=  0.007350 Ry

   izeta = 1
                 lambda =    1.000000
                     rc =    4.632753
                 energy =   -1.002270
                kinetic =    0.855760
    potential(screened) =   -1.858031
       potential(ionic) =   -5.417575

   izeta = 2
                 rmatch =    3.431921
              splitnorm =    0.150000
                 energy =   -0.867111
                kinetic =    1.300804
    potential(screened) =   -2.167915
       potential(ionic) =   -5.962684

SPLIT: Orbitals with angular momentum L= 1

SPLIT: Basis orbitals for state 2p

SPLIT: PAO cut-off radius determined from an
SPLIT: energy shift=  0.007350 Ry

   izeta = 1
                 lambda =    1.000000
                     rc =    5.658549
                 energy =   -0.381140
                kinetic =    2.399701
    potential(screened) =   -2.780841
       potential(ionic) =   -6.206085

   izeta = 2
                 rmatch =    3.653288
              splitnorm =    0.150000
                 energy =   -0.249149
                kinetic =    3.542762
    potential(screened) =   -3.791911
       potential(ionic) =   -7.581078

POLgen: Perturbative polarization orbital with L=  2

POLgen: Polarization orbital for state 2p

   izeta = 1
                     rc =    5.658549
                 energy =    1.109913
                kinetic =    2.304789
    potential(screened) =   -1.194876
       potential(ionic) =   -4.013592
atom: Total number of Sankey-type orbitals: 13

atm_pop: Valence configuration (for local Pseudopot. screening):
 2s( 2.00)                                                            
 2p( 2.00)                                                            
Vna: chval, zval:    4.00000   4.00000

Vna:  Cut-off radius for the neutral-atom potential:   5.658549
comcore: Pseudo-core radius Rcore=  1.791422

atom: _________________________________________________________________________

prinput: Basis input ----------------------------------------------------------

PAO.BasisType split     

%block ChemicalSpeciesLabel
    1    5 B                       # Species index, atomic number, species label
    2    6 C                       # Species index, atomic number, species label
%endblock ChemicalSpeciesLabel

%block PAO.Basis                 # Define Basis set
B                     2                    # Species label, number of l-shells
 n=2   0   2                         # n, l, Nzeta 
   5.422      4.223   
   1.000      1.000   
 n=2   1   2 P   1                   # n, l, Nzeta, Polarization, NzetaPol
   6.790      4.609   
   1.000      1.000   
C                     2                    # Species label, number of l-shells
 n=2   0   2                         # n, l, Nzeta 
   4.633      3.432   
   1.000      1.000   
 n=2   1   2 P   1                   # n, l, Nzeta, Polarization, NzetaPol
   5.659      3.653   
   1.000      1.000   
%endblock PAO.Basis

prinput: ----------------------------------------------------------------------

coor:   Atomic-coordinates input format  =     Fractional

siesta: Atomic coordinates (Bohr) and species
siesta:     -0.02582   2.59549   0.00000  1        1
siesta:     -0.02582   5.28395   0.00000  1        2
siesta:     -2.35420  38.89134   0.00000  1        3
siesta:     -2.35420  41.57980   0.00000  1        4
siesta:      4.63094  34.85847   0.00000  1        5
siesta:     -4.68258  34.85847   0.00000  1        6
siesta:     -4.68258  37.54693   0.00000  1        7
siesta:     11.61608  22.75985   0.00000  1        8
siesta:     -2.35420   6.62836   0.00000  1        9
siesta:     -2.35420   9.31683   0.00000  1       10
siesta:     -4.68258  10.66124   0.00000  1       11
siesta:     -4.68258  13.34970   0.00000  1       12
siesta:     -7.01096  14.69411   0.00000  1       13
siesta:     -7.01096  17.38257   0.00000  1       14
siesta:     -2.35420  22.75985   0.00000  1       15
siesta:     -9.33934  18.72698   0.00000  1       16
siesta:     -9.33934  21.41544   0.00000  1       17
siesta:    -11.66772  22.75985   0.00000  1       18
siesta:    -11.66772  25.44831   0.00000  1       19
siesta:     -9.33934  26.79272   0.00000  1       20
siesta:     -9.33934  29.48119   0.00000  1       21
siesta:     -7.01096  30.82560   0.00000  1       22
siesta:     -7.01096  33.51406   0.00000  1       23
siesta:     -0.02582  42.92421   0.00000  1       24
siesta:     -0.02582  45.61267   0.00000  1       25
siesta:      2.30256  38.89134   0.00000  2       26
siesta:      2.30256  41.57980   0.00000  2       27
siesta:      4.63094  37.54693   0.00000  2       28
siesta:      6.95932  30.82560   0.00000  2       29
siesta:      6.95932  33.51406   0.00000  2       30
siesta:      9.28770  26.79272   0.00000  2       31
siesta:      9.28770  29.48119   0.00000  2       32
siesta:      2.30256   6.62836   0.00000  2       33
siesta:      2.30256   9.31683   0.00000  2       34
siesta:      4.63094  10.66124   0.00000  2       35
siesta:      4.63094  13.34970   0.00000  2       36
siesta:      6.95932  14.69411   0.00000  2       37
siesta:      6.95932  17.38257   0.00000  2       38
siesta:      9.28770  18.72698   0.00000  2       39
siesta:      9.28770  21.41544   0.00000  2       40
siesta:     11.61608  25.44831   0.00000  2       41
siesta:     -0.02582  10.66124   0.00000  2       42
siesta:     -0.02582  13.34970   0.00000  2       43
siesta:      2.30256  14.69411   0.00000  2       44
siesta:      2.30256  17.38257   0.00000  2       45
siesta:      4.63094  18.72698   0.00000  2       46
siesta:      4.63094  21.41544   0.00000  2       47
siesta:      6.95932  22.75985   0.00000  2       48
siesta:      6.95932  25.44831   0.00000  2       49
siesta:     -2.35420  14.69411   0.00000  2       50
siesta:     -2.35420  17.38257   0.00000  2       51
siesta:     -0.02582  18.72698   0.00000  2       52
siesta:     -0.02582  21.41544   0.00000  2       53
siesta:      2.30256  22.75985   0.00000  2       54
siesta:      2.30256  25.44831   0.00000  2       55
siesta:     -4.68258  18.72698   0.00000  2       56
siesta:     -4.68258  21.41544   0.00000  2       57
siesta:     -2.35420  25.44831   0.00000  2       58
siesta:     -7.01096  22.75985   0.00000  2       59
siesta:     -7.01096  25.44831   0.00000  2       60
siesta:      4.63094  26.79272   0.00000  2       61
siesta:      4.63094  29.48119   0.00000  2       62
siesta:     -0.02582  26.79272   0.00000  2       63
siesta:     -0.02582  29.48119   0.00000  2       64
siesta:     -4.68258  26.79272   0.00000  2       65
siesta:     -4.68258  29.48119   0.00000  2       66
siesta:      2.30256  30.82560   0.00000  2       67
siesta:      2.30256  33.51406   0.00000  2       68
siesta:     -2.35420  30.82560   0.00000  2       69
siesta:     -2.35420  33.51406   0.00000  2       70
siesta:     -0.02582  34.85847   0.00000  2       71
siesta:     -0.02582  37.54693   0.00000  2       72

siesta: System type = slab      

initatomlists: Number of atoms, orbitals, and projectors:     72   936  1152

siesta: ******************** Simulation parameters ****************************
siesta:
siesta: The following are some of the parameters of the simulation.
siesta: A complete list of the parameters used, including default values,
siesta: can be found in file out.fdf
siesta:
redata: Non-Collinear-spin run           =     F
redata: SpinPolarized (Up/Down) run      =     F
redata: Number of spin components        =     1
redata: Long output                      =     F
redata: Number of Atomic Species         =        2
redata: Charge density info will appear in .RHO file
redata: Write Mulliken Pop.              =     NO
redata: Mesh Cutoff                      =   200.0000  Ry
redata: Net charge of the system         =     0.0000 |e|
redata: Max. number of SCF Iter          =      500
redata: SCF convergence failure will abort job
redata: Performing Pulay mixing using    =    10 iterations
redata: Mix DM in first SCF step ?       =     F
redata: Write Pulay info on disk?        =     F
redata: Discard 1st Pulay DM after  kick =     F
redata: New DM Mixing Weight             =     0.0500
redata: New DM Occupancy tolerance       = 0.000000000001
redata: No kicks to SCF
redata: DM Mixing Weight for Kicks       =     0.5000
redata: DM Tolerance for SCF             =     0.000100
redata: Require Energy convergence for SCF =     F
redata: DM Energy tolerance for SCF      =     0.000100 eV
redata: Require Harris convergence for SCF =     F
redata: DM Harris energy tolerance for SCF =     0.000100 eV
redata: Using Saved Data (generic)   =     F
redata: Use continuation files for DM    =     T
redata: Neglect nonoverlap interactions  =     F
redata: Method of Calculation            =     Diagonalization
redata: Divide and Conquer               =     T
redata: Electronic Temperature           =     0.0019  Ry
redata: Fix the spin of the system       =     F
redata: Dynamics option                  =     Verlet MD run
redata: Initial MD time step             =        1
redata:   Final MD time step             =        1
redata: Length of MD time step           =     1.0000  fs
redata: Initial Temperature of MD run    =     0.0000  K
redata: Perform a MD quench              =     F
redata: ***********************************************************************
Total number of electrons:   263.000000
Total ionic charge:   263.000000

* ProcessorY, Blocksize:    2  24

k-point displ. along   1 input, could be:     0.50    0.00
k-point displ. along   2 input, could be:     0.50    0.00
 Kpoints in:          231 . Kpoints trimmed:          231

siesta: k-grid: Number of k-points =   231
siesta: k-grid: Cutoff (effective) =     5.000 Ang
siesta: k-grid: Supercell and displacements
siesta: k-grid:   21   0   0      0.500
siesta: k-grid:    0  21   0      0.500
siesta: k-grid:    0   0   1      0.000
Naive supercell factors:     2    2    2

superc: Internal auxiliary supercell:     2 x     2 x     2  =       8
superc: Number of atoms, orbitals, and projectors:    576   7488   9216

* Maximum dynamic memory allocated =     4 MB

siesta:                 ==============================
                            Begin MD step =      1
                        ==============================

superc: Internal auxiliary supercell:     2 x     2 x     2  =       8
superc: Number of atoms, orbitals, and projectors:    576   7488   9216

outcell: Unit cell vectors (Ang):
       12.804619    7.392750    0.000000
        0.000000   14.785500    0.000000
        0.000000    0.000000   10.000000

outcell: Cell vector modules (Ang)   :   14.785500   14.785500   10.000000
outcell: Cell angles (23,13,12) (deg):     90.0000     90.0000     60.0000
outcell: Cell volume (Ang**3)        :   1893.2269
New_DM. Step:     1
Initializing Density Matrix...

InitMesh: MESH =   120 x   120 x    90 =     1296000
InitMesh: Mesh cutoff (required, used) =   200.000   223.865 Ry

* Maximum dynamic memory allocated =   236 MB

stepf: Fermi-Dirac step function

siesta: Program's energy decomposition (eV):
siesta: Ebs     =     -5413.916819
siesta: Eions   =     15201.593291
siesta: Ena     =      4124.073107
siesta: Ekin    =      5059.728642
siesta: Enl     =       853.825379
siesta: DEna    =        -0.000006
siesta: DUscf   =         0.000000
siesta: DUext   =         0.000000
siesta: Exc     =     -4198.651661
siesta: eta*DQ  =         0.000000
siesta: Emadel  =         0.000000
siesta: Emeta   =         0.000000
siesta: Emolmec =         0.000000
siesta: Ekinion =         0.000000
siesta: Eharris =     -9187.764732
siesta: Etot    =     -9362.617830
siesta: FreeEng =     -9362.617830

siesta: iscf   Eharris(eV)      E_KS(eV)   FreeEng(eV)   dDmax  Ef(eV)
siesta:    1    -9187.7647    -9362.6178    -9362.6178  7.6897 -8.5524
timer: Routine,Calls,Time,% = IterSCF        1    4683.153  99.75
elaps: Routine,Calls,Wall,% = IterSCF        1     586.172  99.75
siesta:    2   -15026.0538    -8243.1879    -8243.2415 12.5061 -7.0883
siesta:    3    -9405.8249    -9125.4607    -9125.5284  1.5511 -4.9808
siesta:    4    -9227.4787    -9101.0115    -9101.0510  1.4611 -5.1116
siesta:    5    -9169.2886    -9072.6824    -9072.7255  1.4124 -4.8548
siesta:    6    -9128.7137    -9052.7828    -9052.8424  1.3427 -4.7630
siesta:    7    -9048.3007    -9033.0417    -9033.0988  1.0889 -5.0215
siesta:    8    -9036.2140    -9022.1546    -9022.1734  0.9415 -4.8987
siesta:    9    -9032.3823    -9017.3094    -9017.3420  0.7646 -4.9751
siesta:   10    -9031.4282    -9014.4427    -9014.4827  0.7492 -4.9582
siesta:   11    -9031.0198    -9013.1889    -9013.2307  0.7645 -4.8885
siesta:   12    -9030.3856    -9005.3378    -9005.3610  0.5759 -4.8807
siesta:   13    -9027.6302    -9006.9954    -9007.0463  0.4142 -4.9607
siesta:   14    -9027.0986    -9009.5139    -9009.5553  0.5071 -4.9783
siesta:   15    -9026.7025    -9013.9821    -9014.0273  0.3528 -5.0121
siesta:   16    -9026.5654    -9020.1627    -9020.2178  0.6058 -5.0148
siesta:   17    -9026.2784    -9020.8894    -9020.9443  0.6395 -5.1297
siesta:   18    -9025.9514    -9023.1080    -9023.1580  0.3418 -5.1468
siesta:   19    -9025.8962    -9026.0407    -9026.1227  0.3487 -5.2025
siesta:   20    -9025.8784    -9027.9896    -9028.0803  0.3301 -5.2084
siesta:   21    -9025.8868    -9029.2196    -9029.3241  0.4029 -5.2326
siesta:   22    -9025.5928    -9028.4598    -9028.5220  0.2403 -5.2338
siesta:   23    -9025.4166    -9026.3124    -9026.4132  0.1457 -5.1590
siesta:   24    -9025.3953    -9025.7537    -9025.8570  0.3054 -5.1571
siesta:   25    -9025.4027    -9025.0429    -9025.1343  0.2589 -5.1186
siesta:   26    -9025.3663    -9025.9809    -9026.0760  0.1708 -5.1734
siesta:   27    -9025.2961    -9024.8743    -9024.9757  0.1060 -5.1522
siesta:   28    -9025.3054    -9024.4744    -9024.5870  0.0878 -5.1610
siesta:   29    -9025.2936    -9024.9971    -9025.0999  0.0956 -5.1611
siesta:   30    -9025.2786    -9024.9377    -9025.0492  0.0506 -5.1571
siesta:   31    -9025.2723    -9025.0686    -9025.1829  0.0387 -5.1556
siesta:   32    -9025.2702    -9024.8802    -9024.9949  0.0375 -5.1567
siesta:   33    -9025.2704    -9024.8675    -9024.9819  0.0512 -5.1565
siesta:   34    -9025.2699    -9024.8599    -9024.9740  0.0480 -5.1563
siesta:   35    -9025.2699    -9024.8550    -9024.9693  0.0466 -5.1560
siesta:   36    -9025.2696    -9024.8053    -9024.9197  0.0578 -5.1556
siesta:   37    -9025.2698    -9024.8387    -9024.9530  0.0468 -5.1566
siesta:   38    -9025.2675    -9024.8375    -9024.9514  0.0295 -5.1564
siesta:   39    -9025.2657    -9024.8881    -9025.0031  0.0158 -5.1581
siesta:   40    -9025.2641    -9025.1424    -9025.2572  0.0086 -5.1600
siesta:   41    -9025.2638    -9025.2272    -9025.3416  0.0149 -5.1604
siesta:   42    -9025.2636    -9025.2245    -9025.3391  0.0084 -5.1605
siesta:   43    -9025.2631    -9025.3002    -9025.4149  0.0107 -5.1603
siesta:   44    -9025.2629    -9025.3481    -9025.4632  0.0061 -5.1605
siesta:   45    -9025.2629    -9025.3569    -9025.4720  0.0044 -5.1601
siesta:   46    -9025.2629    -9025.3722    -9025.4873  0.0039 -5.1599
siesta:   47    -9025.2630    -9025.3219    -9025.4370  0.0060 -5.1588
siesta:   48    -9025.2629    -9025.3167    -9025.4317  0.0023 -5.1585
siesta:   49    -9025.2629    -9025.3168    -9025.4318  0.0008 -5.1585
siesta:   50    -9025.2629    -9025.2969    -9025.4120  0.0018 -5.1586
siesta:   51    -9025.2629    -9025.2855    -9025.4006  0.0010 -5.1586
siesta:   52    -9025.2629    -9025.2870    -9025.4021  0.0004 -5.1587
siesta:   53    -9025.2629    -9025.2820    -9025.3971  0.0003 -5.1587
siesta:   54    -9025.2629    -9025.2784    -9025.3934  0.0003 -5.1587
siesta:   55    -9025.2629    -9025.2702    -9025.3853  0.0001 -5.1587
siesta:   56    -9025.2629    -9025.2682    -9025.3832  0.0001 -5.1587
siesta:   57    -9025.2629    -9025.2655    -9025.3805  0.0001 -5.1587

siesta: E_KS(eV) =            -9025.2635

siesta: E_KS - E_eggbox =     -9025.2635

siesta: Atomic forces (eV/Ang):
----------------------------------------
   Tot   -0.022072   -0.113441    0.000000
----------------------------------------
   Max  561.004006
   Res  137.095489    sqrt( Sum f_i^2 / 3N )
----------------------------------------
   Max  561.004006    constrained

Stress-tensor-Voigt (kbar):     -715.22    -2488.67       -0.71       -1.89        0.00        0.00
(Free)E + p*V (eV/cell)    -7763.1465
Target enthalpy (eV/cell)    -9025.3786

siesta: Stress tensor (static) (eV/Ang**3):
        -0.446399   -0.001178    0.000000
        -0.001178   -1.553287    0.000000
         0.000000    0.000000   -0.000442

siesta: Pressure (static):       1068.19767809  kBar

siesta: Stress tensor (total) (eV/Ang**3):
        -0.446399   -0.001178    0.000000
        -0.001178   -1.553287    0.000000
         0.000000    0.000000   -0.000442

siesta: Pressure (total):       1068.19767809  kBar

siesta: Temp_ion =       0.000 K

* Maximum dynamic memory allocated =   254 MB
Computing bands...

siesta: Program's energy decomposition (eV):
siesta: Ebs     =     -4029.897275
siesta: Eions   =     15201.593291
siesta: Ena     =      4124.073107
siesta: Ekin    =      7837.734708
siesta: Enl     =      -765.942749
siesta: DEna    =      -757.441361
siesta: DUscf   =       103.312604
siesta: DUext   =         0.000000
siesta: Exc     =     -4365.406558
siesta: eta*DQ  =         0.000000
siesta: Emadel  =         0.000000
siesta: Emeta   =         0.000000
siesta: Emolmec =         0.000000
siesta: Ekinion =         0.000000
siesta: Eharris =     -9025.262870
siesta: Etot    =     -9025.263540
siesta: FreeEng =     -9025.378602

siesta: Final energy (eV):
siesta:  Band Struct. =   -4029.897275
siesta:       Kinetic =    7837.734708
siesta:       Hartree =   25676.288926
siesta:    Ext. field =       0.000000
siesta:   Exch.-corr. =   -4365.406558
siesta:  Ion-electron =  -58903.082908
siesta:       Ion-ion =   20729.202292
siesta:       Ekinion =       0.000000
siesta:         Total =   -9025.263540

siesta: Atomic forces (eV/Ang):
siesta:      1    0.379062  409.431327    0.000000
siesta:      2   -2.592004 -107.680050    0.000000
siesta:      3   -1.724946  103.234712    0.000000
siesta:      4    1.767166 -402.227396    0.000000
siesta:      5   21.697479    1.980079    0.000000
siesta:      6  -16.705665   -0.674708    0.000000
siesta:      7  -21.087250 -289.261812    0.000000
siesta:      8    1.996103    2.902740    0.000000
siesta:      9    1.780084  401.660731    0.000000
siesta:     10   -1.584621 -103.279213    0.000000
siesta:     11  -20.809972  289.184307    0.000000
siesta:     12  -16.577812    0.845231    0.000000
siesta:     13   -4.084100   -2.479281    0.000000
siesta:     14    0.398393   -2.181126    0.000000
siesta:     15    0.841146   -0.781576    0.000000
siesta:     16   -4.952624   -2.129138    0.000000
siesta:     17   -0.537766    1.058378    0.000000
siesta:     18   -6.190113   -2.683240    0.000000
siesta:     19   -6.194968    2.668576    0.000000
siesta:     20   -0.388798   -0.960413    0.000000
siesta:     21   -5.050606    2.073791    0.000000
siesta:     22    0.611353    2.113282    0.000000
siesta:     23   -3.879429    2.273244    0.000000
siesta:     24   -4.152870  107.605770    0.000000
siesta:     25    0.422167 -409.941927    0.000000
siesta:     26    2.501629  128.753329    0.000000
siesta:     27    9.841165 -545.011766    0.000000
siesta:     28   29.035327 -548.591920    0.000000
siesta:     29    2.522903    0.230626    0.000000
siesta:     30   -0.557353    0.330574    0.000000
siesta:     31    2.647334    0.887928    0.000000
siesta:     32   -0.490428    0.687063    0.000000
siesta:     33    4.755593  539.226317    0.000000
siesta:     34    3.372816 -132.409854    0.000000
siesta:     35   33.973937  554.766436    0.000000
siesta:     36   26.296190   -3.684675    0.000000
siesta:     37   -2.315409   -2.168085    0.000000
siesta:     38    1.472497   -0.191549    0.000000
siesta:     39   -0.402413   -0.171986    0.000000
siesta:     40   -0.668395   -3.711298    0.000000
siesta:     41   -0.030837   -0.414037    0.000000
siesta:     42  -10.153075  544.048791    0.000000
siesta:     43   -9.746874 -130.768614    0.000000
siesta:     44   33.116388  561.004006    0.000000
siesta:     45   20.842583   -5.316954    0.000000
siesta:     46   -0.461735    1.221455    0.000000
siesta:     47    0.632144    0.094010    0.000000
siesta:     48   -0.477140    0.504726    0.000000
siesta:     49   -0.818808   -0.651428    0.000000
siesta:     50  -33.774209  414.804756    0.000000
siesta:     51  -21.569094   -0.464737    0.000000
siesta:     52   -0.765366  421.368022    0.000000
siesta:     53    2.930922    1.025343    0.000000
siesta:     54   -0.950865   -0.808457    0.000000
siesta:     55   -0.671021    0.423513    0.000000
siesta:     56    4.292507    2.322448    0.000000
siesta:     57   -2.825049   -0.688085    0.000000
siesta:     58    1.355995    4.175563    0.000000
siesta:     59    3.964085    0.571068    0.000000
siesta:     60    4.082075   -0.913709    0.000000
siesta:     61    0.581088   -0.203968    0.000000
siesta:     62   -0.614641   -1.065079    0.000000
siesta:     63   -0.503002   -3.059687    0.000000
siesta:     64   -0.884019 -420.818868    0.000000
siesta:     65   -0.056815   -0.701990    0.000000
siesta:     66    4.388996   -2.109350    0.000000
siesta:     67   20.708857    5.265970    0.000000
siesta:     68   37.137557 -554.978911    0.000000
siesta:     69  -21.680120    0.638105    0.000000
siesta:     70  -34.449268 -414.016606    0.000000
siesta:     71   -9.323010  131.034231    0.000000
siesta:     72   -9.665125 -543.328397    0.000000
siesta: ----------------------------------------
siesta:    Tot   -0.022072   -0.113441    0.000000

siesta: Stress tensor (static) (eV/Ang**3):
siesta:    -0.446399   -0.001178    0.000000
siesta:    -0.001178   -1.553287    0.000000
siesta:     0.000000    0.000000   -0.000442

siesta: Cell volume =       1893.226884 Ang**3

siesta: Pressure (static):
siesta:                Solid            Molecule  Units
siesta:           0.00726132          0.10366811  Ry/Bohr**3
siesta:           0.66670934          9.51845288  eV/Ang**3
siesta:        1068.19767809      15250.40763001  kBar
(Free)E+ p_basis*V_orbitals  =       -8986.742150
(Free)Eharris+ p_basis*V_orbitals  =       -8986.739537

siesta: Electric dipole (a.u.)  =    0.000000    0.000000    0.000000
siesta: Electric dipole (Debye) =    0.000000    0.000000    0.000000

* Maximum dynamic memory allocated : Node    0 =   254 MB
* Maximum dynamic memory allocated : Node    1 =    90 MB
* Maximum dynamic memory allocated : Node    2 =    92 MB
* Maximum dynamic memory allocated : Node    3 =   241 MB
* Maximum dynamic memory allocated : Node    4 =   232 MB
* Maximum dynamic memory allocated : Node    5 =    85 MB
* Maximum dynamic memory allocated : Node    6 =    88 MB
* Maximum dynamic memory allocated : Node    7 =   213 MB

* Maximum memory occured during matrixMtoO                    

timer: CPU execution times:
timer:  Routine       Calls   Time/call    Tot.time        %
timer:  siesta            1  264595.372  264595.372   100.00
timer:  Setup             1       3.078       3.078     0.00
timer:  bands             3     272.166     816.498     0.31
timer:  writewave         1       0.017       0.017     0.00
timer:  KSV_init          1       0.000       0.000     0.00
timer:  IterMD            1  263769.928  263769.928    99.69
timer:  hsparse           1       0.397       0.397     0.00
timer:  overlap           1       7.799       7.799     0.00
timer:  IterSCF          57    4623.160  263520.131    99.59
timer:  kinefsm           2       4.044       8.088     0.00
timer:  nlefsm            2      22.809      45.618     0.02
timer:  DHSCF            58     134.110    7778.355     2.94
timer:  DHSCF1            1       0.998       0.998     0.00
timer:  DHSCF2            1      46.848      46.848     0.02
timer:  REORD           466       0.011       5.022     0.00
timer:  POISON           59       2.405     141.912     0.05
timer:  DHSCF3           58     132.447    7681.950     2.90
timer:  rhoofd           58      27.177    1576.271     0.60
timer:  cellXC           58       3.447     199.928     0.08
timer:  vmat             58      65.953    3825.281     1.45
timer:  MolMec            2       0.000       0.000     0.00
timer:  diagon           57    4487.803  255804.767    96.68
timer:  c-eigval      13288       6.759   89807.826    33.94
timer:  c-buildHS     13288       0.140    1855.082     0.70
timer:  cdiag         26455       6.933  183414.694    69.32
timer:  cdiag1        26455       0.434   11472.540     4.34
timer:  cdiag2        26455       1.919   50776.859    19.19
timer:  cdiag3        26455       3.977  105217.969    39.77
timer:  cdiag4        26455       0.225    5960.963     2.25
timer:  c-eigvec      13167       7.332   96534.532    36.48
timer:  c-buildD      13167       5.332   70205.242    26.53
timer:  DHSCF4            1      45.203      45.203     0.02
timer:  dfscf             1      42.449      42.449     0.02
timer:  overfsm           1       0.496       0.496     0.00
timer:  optical           1       5.121       5.121     0.00
  

elaps: ELAPSED times:
elaps:  Routine       Calls   Time/call    Tot.time        %
elaps:  siesta            1   33115.716   33115.716   100.00
elaps:  Setup             1       0.383       0.383     0.00
elaps:  bands             3      34.073     102.218     0.31
elaps:  writewave         1       0.002       0.002     0.00
elaps:  KSV_init          1       0.000       0.000     0.00
elaps:  IterMD            1   33012.439   33012.439    99.69
elaps:  hsparse           1       0.052       0.052     0.00
elaps:  overlap           1       0.978       0.978     0.00
elaps:  IterSCF          57     578.617   32981.193    99.59
elaps:  kinefsm           2       0.509       1.018     0.00
elaps:  nlefsm            2       2.747       5.494     0.02
elaps:  DHSCF            58      16.880     979.068     2.96
elaps:  DHSCF1            1       0.129       0.129     0.00
elaps:  DHSCF2            1       5.857       5.857     0.02
elaps:  REORD           466       0.001       0.673     0.00
elaps:  POISON           59       0.301      17.736     0.05
elaps:  DHSCF3           58      16.570     961.036     2.90
elaps:  rhoofd           58       7.480     433.830     1.31
elaps:  cellXC           58       0.430      24.968     0.08
elaps:  vmat             58       8.251     478.534     1.45
elaps:  MolMec            2       0.000       0.000     0.00
elaps:  diagon           57     561.705   32017.192    96.68
elaps:  c-eigval      13288       0.846   11236.641    33.93
elaps:  c-buildHS     13288       0.019     248.646     0.75
elaps:  cdiag         26455       0.856   22637.457    68.36
elaps:  cdiag1        26455       0.054    1417.289     4.28
elaps:  cdiag2        26455       0.240    6354.043    19.19
elaps:  cdiag3        26455       0.498   13182.502    39.81
elaps:  cdiag4        26455       0.028     749.585     2.26
elaps:  c-eigvec      13167       0.896   11799.111    35.63
elaps:  c-buildD      13167       0.689    9072.776    27.40
elaps:  DHSCF4            1      11.586      11.586     0.03
elaps:  dfscf             1      11.042      11.042     0.03
elaps:  overfsm           1       0.059       0.059     0.00
elaps:  optical           1       0.001       0.001     0.00
  
>> End of run:  21-APR-2016  16:35:11
