Siesta Version:                                        siesta-3.2-pl-3
Architecture  : x86_64-unknown-linux-gnu--unknown
Compiler flags: mpiifort -g -O2 -fPIC -xSSE4.1 -fp-model source -shared-intel 
PARALLEL version

* Running on   12 nodes in parallel
>> Start of run:  30-APR-2016   0:32:01

                           ***********************       
                           *  WELCOME TO SIESTA  *       
                           ***********************       

reinit: Reading from standard input
************************** Dump of input data file ****************************
#(1) General system descriptors
SystemName            GRP_doping    # Descriptive name of the system
SystemLabel           GRP_doping    # Short name for naming files
%include STRUCT.fdf
%include KPT.fdf
%include BASIS.fdf
#%include TS.fdf # for transiesta calculation
#(4) DFT, Grid, SCF
XC.functional         GGA           # LDA or GGA (default = LDA)
XC.authors            PBE           # CA (Ceperley-Aldr) = PZ
                                    #    (Perdew-Zunger) - LDA - Default
                                    # PW92 (Perdew-Wang-92) - LDA
                                    # PBE (Perdew-Burke-Ernzerhof) - GGA
MeshCutoff            200.000000    Ry      # Default: 50.0 Ry ~ 0.444 Bohr
                                    #         100.0 Ry ~ 0.314 Bohr
MaxSCFIterations      500           # Default: 50
DM.MixingWeight       0.05          # Default: 0.25
DM.NumberPulay        10            # Default: 0
DM.PulayOnFile        F             # SystemLabel.P1, SystemLabel.P2
DM.Tolerance          1.d-4         # Default: 1.d-4
DM.UseSaveDM          .true.        # because of the bug
SCFMustConverge       .true.
NeglNonOverlapInt     F             # Default: F
#(5) Eigenvalue problem: order-N or diagonalization
SolutionMethod        Diagon        # or Transiesta
ElectronicTemperature 300.0 K       # Default: 300.0 K
#(6) Molecular dynamics and relaxations
#MD.TypeOfRun          CG            # Type of dynamics:
#MD.VariableCell       F
#MD.NumCGsteps         0           # 0 for single-point / 100 for gopt
#MD.MaxCGDispl         0.2 Bohr      # Default: 0.2 Bohr
#MD.MaxForceTol        0.02 eV/Ang   # Default: 0.04 eV/Ang
#MD.MaxStressTol       1.0 GPa       # Default: 1.0 GPa
# Geometry Constraints
#%block GeometryConstraints
#	position from 1 to 44
#%endblock GeometryConstraints
BandLinesScale   pi/a
%block BandLines
 1   0.00000000  0.00000000  0.00000000
50   0.00000000  0.07809418  0.00000000
50   0.04509075  0.07809242  0.00000000
20   0.00000000  0.00000000  0.00000000
%endblock BandLines
************************** End of input data file *****************************

reinit: -----------------------------------------------------------------------
reinit: System Name: GRP_doping
reinit: -----------------------------------------------------------------------
reinit: System Label: GRP_doping                                                  
reinit: -----------------------------------------------------------------------

initatom: Reading input for the pseudopotentials and atomic orbitals ----------
 Species number:            1  Label: N Atomic number:           7
 Species number:            2  Label: C Atomic number:           6
Ground state valence configuration:   2s02  2p03
Reading pseudopotential information in formatted form from N.psf

Valence configuration for pseudopotential generation:
2s( 2.00) rc: 1.48
2p( 3.00) rc: 1.48
3d( 0.00) rc: 1.48
4f( 0.00) rc: 1.48
Ground state valence configuration:   2s02  2p02
Reading pseudopotential information in formatted form from C.psf

Valence configuration for pseudopotential generation:
2s( 2.00) rc: 1.54
2p( 2.00) rc: 1.54
3d( 0.00) rc: 1.54
4f( 0.00) rc: 1.54
For N, standard SIESTA heuristics set lmxkb to 3
 (one more than the basis l, including polarization orbitals).
Use PS.lmax or PS.KBprojectors blocks to override.
For C, standard SIESTA heuristics set lmxkb to 3
 (one more than the basis l, including polarization orbitals).
Use PS.lmax or PS.KBprojectors blocks to override.

<basis_specs>
===============================================================================
N                    Z=   7    Mass=  14.010        Charge= 0.17977+309
Lmxo=1 Lmxkb= 3    BasisType=split      Semic=F
L=0  Nsemic=0  Cnfigmx=2
          n=1  nzeta=2  polorb=0
            splnorm:   0.15000    
               vcte:    0.0000    
               rinn:    0.0000    
                rcs:    0.0000      0.0000    
            lambdas:    1.0000      1.0000    
L=1  Nsemic=0  Cnfigmx=2
          n=1  nzeta=2  polorb=1
            splnorm:   0.15000    
               vcte:    0.0000    
               rinn:    0.0000    
                rcs:    0.0000      0.0000    
            lambdas:    1.0000      1.0000    
-------------------------------------------------------------------------------
L=0  Nkbl=1  erefs: 0.17977+309
L=1  Nkbl=1  erefs: 0.17977+309
L=2  Nkbl=1  erefs: 0.17977+309
L=3  Nkbl=1  erefs: 0.17977+309
===============================================================================
</basis_specs>

atom: Called for N                     (Z =   7)

read_vps: Pseudopotential generation method:
read_vps: ATM3      Troullier-Martins                       
Total valence charge:    5.00000

read_vps: Pseudopotential includes a core correction:
read_vps: Pseudo-core for xc-correction

xc_check: Exchange-correlation functional:
xc_check: GGA Perdew, Burke & Ernzerhof 1996
V l=0 = -2*Zval/r beyond r=  1.4606
V l=1 = -2*Zval/r beyond r=  1.4606
V l=2 = -2*Zval/r beyond r=  1.4606
V l=3 = -2*Zval/r beyond r=  1.4606
All V_l potentials equal beyond r=  1.4606
This should be close to max(r_c) in ps generation
All pots = -2*Zval/r beyond r=  1.4606

VLOCAL1: 99.0% of the norm of Vloc inside     20.347 Ry
VLOCAL1: 99.9% of the norm of Vloc inside     46.372 Ry
atom: Maximum radius for 4*pi*r*r*local-pseudopot. charge    1.76189
atom: Maximum radius for r*vlocal+2*Zval:    1.53550
GHOST: No ghost state for L =  0
GHOST: No ghost state for L =  1
GHOST: No ghost state for L =  2
GHOST: No ghost state for L =  3

KBgen: Kleinman-Bylander projectors: 
   l= 0   rc=  1.634559   el= -1.363963   Ekb=  5.296955   kbcos=  0.335621
   l= 1   rc=  1.614250   el= -0.521451   Ekb= -5.259161   kbcos= -0.433408
   l= 2   rc=  1.718383   el=  0.001991   Ekb= -1.271464   kbcos= -0.007566
   l= 3   rc=  1.761893   el=  0.003093   Ekb= -0.494769   kbcos= -0.001015

KBgen: Total number of  Kleinman-Bylander projectors:   16
atom: -------------------------------------------------------------------------

atom: SANKEY-TYPE ORBITALS:
atom: Selected multiple-zeta basis: split     

SPLIT: Orbitals with angular momentum L= 0

SPLIT: Basis orbitals for state 2s

SPLIT: PAO cut-off radius determined from an
SPLIT: energy shift=  0.007350 Ry

   izeta = 1
                 lambda =    1.000000
                     rc =    4.071465
                 energy =   -1.356470
                kinetic =    1.176977
    potential(screened) =   -2.533447
       potential(ionic) =   -8.057990

   izeta = 2
                 rmatch =    2.905100
              splitnorm =    0.150000
                 energy =   -1.158343
                kinetic =    1.813009
    potential(screened) =   -2.971352
       potential(ionic) =   -8.901931

SPLIT: Orbitals with angular momentum L= 1

SPLIT: Basis orbitals for state 2p

SPLIT: PAO cut-off radius determined from an
SPLIT: energy shift=  0.007350 Ry

   izeta = 1
                 lambda =    1.000000
                     rc =    4.972977
                 energy =   -0.513884
                kinetic =    3.441732
    potential(screened) =   -3.955616
       potential(ionic) =   -9.287901

   izeta = 2
                 rmatch =    3.054066
              splitnorm =    0.150000
                 energy =   -0.318226
                kinetic =    5.125348
    potential(screened) =   -5.443573
       potential(ionic) =  -11.380999

POLgen: Perturbative polarization orbital with L=  2

POLgen: Polarization orbital for state 2p

   izeta = 1
                     rc =    4.972977
                 energy =    1.607437
                kinetic =    3.268125
    potential(screened) =   -1.660688
       potential(ionic) =   -5.973652
atom: Total number of Sankey-type orbitals: 13

atm_pop: Valence configuration (for local Pseudopot. screening):
 2s( 2.00)                                                            
 2p( 3.00)                                                            
Vna: chval, zval:    5.00000   5.00000

Vna:  Cut-off radius for the neutral-atom potential:   4.972977
comcore: Pseudo-core radius Rcore=  1.554824

atom: _________________________________________________________________________

<basis_specs>
===============================================================================
C                    Z=   6    Mass=  12.010        Charge= 0.17977+309
Lmxo=1 Lmxkb= 3    BasisType=split      Semic=F
L=0  Nsemic=0  Cnfigmx=2
          n=1  nzeta=2  polorb=0
            splnorm:   0.15000    
               vcte:    0.0000    
               rinn:    0.0000    
                rcs:    0.0000      0.0000    
            lambdas:    1.0000      1.0000    
L=1  Nsemic=0  Cnfigmx=2
          n=1  nzeta=2  polorb=1
            splnorm:   0.15000    
               vcte:    0.0000    
               rinn:    0.0000    
                rcs:    0.0000      0.0000    
            lambdas:    1.0000      1.0000    
-------------------------------------------------------------------------------
L=0  Nkbl=1  erefs: 0.17977+309
L=1  Nkbl=1  erefs: 0.17977+309
L=2  Nkbl=1  erefs: 0.17977+309
L=3  Nkbl=1  erefs: 0.17977+309
===============================================================================
</basis_specs>

atom: Called for C                     (Z =   6)

read_vps: Pseudopotential generation method:
read_vps: ATM3      Troullier-Martins                       
Total valence charge:    4.00000

read_vps: Pseudopotential includes a core correction:
read_vps: Pseudo-core for xc-correction

xc_check: Exchange-correlation functional:
xc_check: GGA Perdew, Burke & Ernzerhof 1996
V l=0 = -2*Zval/r beyond r=  1.5227
V l=1 = -2*Zval/r beyond r=  1.5227
V l=2 = -2*Zval/r beyond r=  1.5227
V l=3 = -2*Zval/r beyond r=  1.5038
All V_l potentials equal beyond r=  1.5227
This should be close to max(r_c) in ps generation
All pots = -2*Zval/r beyond r=  1.5227

VLOCAL1: 99.0% of the norm of Vloc inside     18.722 Ry
VLOCAL1: 99.9% of the norm of Vloc inside     42.668 Ry
atom: Maximum radius for 4*pi*r*r*local-pseudopot. charge    1.83678
atom: Maximum radius for r*vlocal+2*Zval:    1.58088
GHOST: No ghost state for L =  0
GHOST: No ghost state for L =  1
GHOST: No ghost state for L =  2
GHOST: No ghost state for L =  3

KBgen: Kleinman-Bylander projectors: 
   l= 0   rc=  1.704034   el= -1.009801   Ekb=  5.335044   kbcos=  0.316824
   l= 1   rc=  1.704034   el= -0.388707   Ekb= -3.785862   kbcos= -0.366464
   l= 2   rc=  1.791422   el=  0.001971   Ekb= -0.970471   kbcos= -0.009212
   l= 3   rc=  1.859892   el=  0.003065   Ekb= -0.399525   kbcos= -0.001223

KBgen: Total number of  Kleinman-Bylander projectors:   16
atom: -------------------------------------------------------------------------

atom: SANKEY-TYPE ORBITALS:
atom: Selected multiple-zeta basis: split     

SPLIT: Orbitals with angular momentum L= 0

SPLIT: Basis orbitals for state 2s

SPLIT: PAO cut-off radius determined from an
SPLIT: energy shift=  0.007350 Ry

   izeta = 1
                 lambda =    1.000000
                     rc =    4.632753
                 energy =   -1.002270
                kinetic =    0.855760
    potential(screened) =   -1.858031
       potential(ionic) =   -5.417575

   izeta = 2
                 rmatch =    3.431921
              splitnorm =    0.150000
                 energy =   -0.867111
                kinetic =    1.300804
    potential(screened) =   -2.167915
       potential(ionic) =   -5.962684

SPLIT: Orbitals with angular momentum L= 1

SPLIT: Basis orbitals for state 2p

SPLIT: PAO cut-off radius determined from an
SPLIT: energy shift=  0.007350 Ry

   izeta = 1
                 lambda =    1.000000
                     rc =    5.658549
                 energy =   -0.381140
                kinetic =    2.399701
    potential(screened) =   -2.780841
       potential(ionic) =   -6.206085

   izeta = 2
                 rmatch =    3.653288
              splitnorm =    0.150000
                 energy =   -0.249149
                kinetic =    3.542762
    potential(screened) =   -3.791911
       potential(ionic) =   -7.581078

POLgen: Perturbative polarization orbital with L=  2

POLgen: Polarization orbital for state 2p

   izeta = 1
                     rc =    5.658549
                 energy =    1.109913
                kinetic =    2.304789
    potential(screened) =   -1.194876
       potential(ionic) =   -4.013592
atom: Total number of Sankey-type orbitals: 13

atm_pop: Valence configuration (for local Pseudopot. screening):
 2s( 2.00)                                                            
 2p( 2.00)                                                            
Vna: chval, zval:    4.00000   4.00000

Vna:  Cut-off radius for the neutral-atom potential:   5.658549
comcore: Pseudo-core radius Rcore=  1.791422

atom: _________________________________________________________________________

prinput: Basis input ----------------------------------------------------------

PAO.BasisType split     

%block ChemicalSpeciesLabel
    1    7 N                       # Species index, atomic number, species label
    2    6 C                       # Species index, atomic number, species label
%endblock ChemicalSpeciesLabel

%block PAO.Basis                 # Define Basis set
N                     2                    # Species label, number of l-shells
 n=2   0   2                         # n, l, Nzeta 
   4.071      2.905   
   1.000      1.000   
 n=2   1   2 P   1                   # n, l, Nzeta, Polarization, NzetaPol
   4.973      3.054   
   1.000      1.000   
C                     2                    # Species label, number of l-shells
 n=2   0   2                         # n, l, Nzeta 
   4.633      3.432   
   1.000      1.000   
 n=2   1   2 P   1                   # n, l, Nzeta, Polarization, NzetaPol
   5.659      3.653   
   1.000      1.000   
%endblock PAO.Basis

prinput: ----------------------------------------------------------------------

coor:   Atomic-coordinates input format  =     Fractional

siesta: Atomic coordinates (Bohr) and species
siesta:     -2.35420  38.89134   0.00000  1        1
siesta:     -2.35420  41.57980   0.00000  1        2
siesta:      2.30256  38.89134   0.00000  1        3
siesta:      2.30256  41.57980   0.00000  1        4
siesta:     -0.02582  13.34970   0.00000  1        5
siesta:     -4.68258  13.34970   0.00000  1        6
siesta:     -2.35420  14.69411   0.00000  1        7
siesta:     -7.01096  14.69411   0.00000  1        8
siesta:     -7.01096  17.38257   0.00000  1        9
siesta:     -9.33934  18.72698   0.00000  1       10
siesta:     -4.68258  26.79272   0.00000  1       11
siesta:     -4.68258  29.48119   0.00000  1       12
siesta:     -2.35420  30.82560   0.00000  1       13
siesta:     -2.35420  33.51406   0.00000  1       14
siesta:     -0.02582  34.85847   0.00000  1       15
siesta:     -0.02582  37.54693   0.00000  1       16
siesta:     -0.02582  42.92421   0.00000  1       17
siesta:     -0.02582   2.59549   0.00000  2       18
siesta:     -0.02582   5.28395   0.00000  2       19
siesta:      4.63094  34.85847   0.00000  2       20
siesta:      4.63094  37.54693   0.00000  2       21
siesta:      6.95932  30.82560   0.00000  2       22
siesta:      6.95932  33.51406   0.00000  2       23
siesta:      9.28770  26.79272   0.00000  2       24
siesta:      9.28770  29.48119   0.00000  2       25
siesta:     -4.68258  34.85847   0.00000  2       26
siesta:     -4.68258  37.54693   0.00000  2       27
siesta:      2.30256   6.62836   0.00000  2       28
siesta:      2.30256   9.31683   0.00000  2       29
siesta:      4.63094  10.66124   0.00000  2       30
siesta:      4.63094  13.34970   0.00000  2       31
siesta:      6.95932  14.69411   0.00000  2       32
siesta:      6.95932  17.38257   0.00000  2       33
siesta:      9.28770  18.72698   0.00000  2       34
siesta:      9.28770  21.41544   0.00000  2       35
siesta:     11.61608  22.75985   0.00000  2       36
siesta:     11.61608  25.44831   0.00000  2       37
siesta:     -2.35420   6.62836   0.00000  2       38
siesta:     -2.35420   9.31683   0.00000  2       39
siesta:     -0.02582  10.66124   0.00000  2       40
siesta:      2.30256  14.69411   0.00000  2       41
siesta:      2.30256  17.38257   0.00000  2       42
siesta:      4.63094  18.72698   0.00000  2       43
siesta:      4.63094  21.41544   0.00000  2       44
siesta:      6.95932  22.75985   0.00000  2       45
siesta:      6.95932  25.44831   0.00000  2       46
siesta:     -4.68258  10.66124   0.00000  2       47
siesta:     -2.35420  17.38257   0.00000  2       48
siesta:     -0.02582  18.72698   0.00000  2       49
siesta:     -0.02582  21.41544   0.00000  2       50
siesta:      2.30256  22.75985   0.00000  2       51
siesta:      2.30256  25.44831   0.00000  2       52
siesta:     -4.68258  18.72698   0.00000  2       53
siesta:     -4.68258  21.41544   0.00000  2       54
siesta:     -2.35420  22.75985   0.00000  2       55
siesta:     -2.35420  25.44831   0.00000  2       56
siesta:     -9.33934  21.41544   0.00000  2       57
siesta:     -7.01096  22.75985   0.00000  2       58
siesta:     -7.01096  25.44831   0.00000  2       59
siesta:    -11.66772  22.75985   0.00000  2       60
siesta:    -11.66772  25.44831   0.00000  2       61
siesta:     -9.33934  26.79272   0.00000  2       62
siesta:     -9.33934  29.48119   0.00000  2       63
siesta:      4.63094  26.79272   0.00000  2       64
siesta:      4.63094  29.48119   0.00000  2       65
siesta:     -0.02582  26.79272   0.00000  2       66
siesta:     -0.02582  29.48119   0.00000  2       67
siesta:      2.30256  30.82560   0.00000  2       68
siesta:      2.30256  33.51406   0.00000  2       69
siesta:     -7.01096  30.82560   0.00000  2       70
siesta:     -7.01096  33.51406   0.00000  2       71
siesta:     -0.02582  45.61267   0.00000  2       72

siesta: System type = slab      

initatomlists: Number of atoms, orbitals, and projectors:     72   936  1152

siesta: ******************** Simulation parameters ****************************
siesta:
siesta: The following are some of the parameters of the simulation.
siesta: A complete list of the parameters used, including default values,
siesta: can be found in file out.fdf
siesta:
redata: Non-Collinear-spin run           =     F
redata: SpinPolarized (Up/Down) run      =     F
redata: Number of spin components        =     1
redata: Long output                      =     F
redata: Number of Atomic Species         =        2
redata: Charge density info will appear in .RHO file
redata: Write Mulliken Pop.              =     NO
redata: Mesh Cutoff                      =   200.0000  Ry
redata: Net charge of the system         =     0.0000 |e|
redata: Max. number of SCF Iter          =      500
redata: SCF convergence failure will abort job
redata: Performing Pulay mixing using    =    10 iterations
redata: Mix DM in first SCF step ?       =     F
redata: Write Pulay info on disk?        =     F
redata: Discard 1st Pulay DM after  kick =     F
redata: New DM Mixing Weight             =     0.0500
redata: New DM Occupancy tolerance       = 0.000000000001
redata: No kicks to SCF
redata: DM Mixing Weight for Kicks       =     0.5000
redata: DM Tolerance for SCF             =     0.000100
redata: Require Energy convergence for SCF =     F
redata: DM Energy tolerance for SCF      =     0.000100 eV
redata: Require Harris convergence for SCF =     F
redata: DM Harris energy tolerance for SCF =     0.000100 eV
redata: Using Saved Data (generic)   =     F
redata: Use continuation files for DM    =     T
redata: Neglect nonoverlap interactions  =     F
redata: Method of Calculation            =     Diagonalization
redata: Divide and Conquer               =     T
redata: Electronic Temperature           =     0.0019  Ry
redata: Fix the spin of the system       =     F
redata: Dynamics option                  =     Verlet MD run
redata: Initial MD time step             =        1
redata:   Final MD time step             =        1
redata: Length of MD time step           =     1.0000  fs
redata: Initial Temperature of MD run    =     0.0000  K
redata: Perform a MD quench              =     F
redata: ***********************************************************************
Total number of electrons:   305.000000
Total ionic charge:   305.000000

* ProcessorY, Blocksize:    3  24

k-point displ. along   1 input, could be:     0.50    0.00
k-point displ. along   2 input, could be:     0.50    0.00
 Kpoints in:          231 . Kpoints trimmed:          231

siesta: k-grid: Number of k-points =   231
siesta: k-grid: Cutoff (effective) =     5.000 Ang
siesta: k-grid: Supercell and displacements
siesta: k-grid:   21   0   0      0.500
siesta: k-grid:    0  21   0      0.500
siesta: k-grid:    0   0   1      0.000
Naive supercell factors:     2    2    2

superc: Internal auxiliary supercell:     2 x     2 x     2  =       8
superc: Number of atoms, orbitals, and projectors:    576   7488   9216

* Maximum dynamic memory allocated =     4 MB

siesta:                 ==============================
                            Begin MD step =      1
                        ==============================

superc: Internal auxiliary supercell:     2 x     2 x     2  =       8
superc: Number of atoms, orbitals, and projectors:    576   7488   9216

outcell: Unit cell vectors (Ang):
       12.804619    7.392750    0.000000
        0.000000   14.785500    0.000000
        0.000000    0.000000   10.000000

outcell: Cell vector modules (Ang)   :   14.785500   14.785500   10.000000
outcell: Cell angles (23,13,12) (deg):     90.0000     90.0000     60.0000
outcell: Cell volume (Ang**3)        :   1893.2269
New_DM. Step:     1
Initializing Density Matrix...

InitMesh: MESH =   120 x   120 x    90 =     1296000
InitMesh: Mesh cutoff (required, used) =   200.000   223.865 Ry

* Maximum dynamic memory allocated =   132 MB

stepf: Fermi-Dirac step function

siesta: Program's energy decomposition (eV):
siesta: Ebs     =     -6247.188093
siesta: Eions   =     21135.707422
siesta: Ena     =      4902.196887
siesta: Ekin    =      7804.862351
siesta: Enl     =       105.067958
siesta: DEna    =        -0.000015
siesta: DUscf   =         0.000000
siesta: DUext   =         0.000000
siesta: Exc     =     -4607.043001
siesta: eta*DQ  =         0.000000
siesta: Emadel  =         0.000000
siesta: Emeta   =         0.000000
siesta: Emolmec =         0.000000
siesta: Ekinion =         0.000000
siesta: Eharris =    -12516.161258
siesta: Etot    =    -12930.623242
siesta: FreeEng =    -12930.623242

siesta: iscf   Eharris(eV)      E_KS(eV)   FreeEng(eV)   dDmax  Ef(eV)
siesta:    1   -12516.1613   -12930.6232   -12930.6232  6.1685 -6.9512
timer: Routine,Calls,Time,% = IterSCF        1    3013.705  99.59
elaps: Routine,Calls,Wall,% = IterSCF        1     251.739  99.59
siesta:    2   -14118.1721   -12133.2148   -12133.2791  7.1026 -1.0184
siesta:    3   -12419.9474   -12636.2711   -12636.3295  1.3575 -4.2841
siesta:    4   -12399.0145   -12571.8386   -12571.8982  0.9013 -4.0961
siesta:    5   -12381.8196   -12529.9637   -12530.0037  0.8698 -4.1041
siesta:    6   -12379.0349   -12510.4005   -12510.4369  0.8260 -4.0057
siesta:    7   -12375.7744   -12478.5147   -12478.5772  0.5766 -4.0608
siesta:    8   -12374.9543   -12458.9849   -12459.0344  0.4788 -4.0849
siesta:    9   -12375.9091   -12418.7733   -12418.8151  0.3295 -4.0377
siesta:   10   -12375.0440   -12401.6194   -12401.6590  0.4069 -4.0455
siesta:   11   -12374.5425   -12378.6621   -12378.7039  0.6034 -3.9538
siesta:   12   -12374.0831   -12375.2869   -12375.3170  0.5415 -3.8969
siesta:   13   -12374.1304   -12371.1281   -12371.1781  0.3504 -3.9599
siesta:   14   -12373.9121   -12369.3034   -12369.3286  0.3352 -3.9735
siesta:   15   -12373.6043   -12368.1581   -12368.2034  0.3244 -4.0060
siesta:   16   -12373.4600   -12369.7132   -12369.7628  0.3031 -4.0219
siesta:   17   -12373.3185   -12370.5953   -12370.6382  0.1318 -4.0289
siesta:   18   -12373.3070   -12370.8850   -12370.9399  0.1228 -4.0318
siesta:   19   -12373.2884   -12371.5814   -12371.6368  0.1223 -4.0437
siesta:   20   -12373.2911   -12372.5679   -12372.6230  0.2160 -4.0217
siesta:   21   -12373.3258   -12371.4098   -12371.4744  0.2280 -4.0446
siesta:   22   -12373.2648   -12375.3057   -12375.3519  0.1057 -4.0285
siesta:   23   -12373.2725   -12375.4898   -12375.5549  0.0923 -4.0370
siesta:   24   -12373.2635   -12375.4458   -12375.5011  0.0308 -4.0322
siesta:   25   -12373.2607   -12374.5428   -12374.6026  0.0172 -4.0291
siesta:   26   -12373.2588   -12374.1820   -12374.2434  0.0184 -4.0258
siesta:   27   -12373.2599   -12373.8086   -12373.8714  0.0035 -4.0268
siesta:   28   -12373.2600   -12373.6734   -12373.7346  0.0049 -4.0269
siesta:   29   -12373.2598   -12373.4856   -12373.5467  0.0041 -4.0267
siesta:   30   -12373.2594   -12373.4057   -12373.4668  0.0022 -4.0267
siesta:   31   -12373.2601   -12373.3381   -12373.3997  0.0091 -4.0279
siesta:   32   -12373.2593   -12373.2909   -12373.3518  0.0027 -4.0276
siesta:   33   -12373.2594   -12373.3125   -12373.3741  0.0022 -4.0281
siesta:   34   -12373.2596   -12373.2588   -12373.3203  0.0010 -4.0283
siesta:   35   -12373.2596   -12373.2519   -12373.3132  0.0002 -4.0282
siesta:   36   -12373.2595   -12373.2541   -12373.3155  0.0003 -4.0282
siesta:   37   -12373.2596   -12373.2632   -12373.3247  0.0001 -4.0282
siesta:   38   -12373.2596   -12373.2646   -12373.3261  0.0001 -4.0282
siesta:   39   -12373.2596   -12373.2606   -12373.3220  0.0001 -4.0282

siesta: E_KS(eV) =           -12373.2587

siesta: E_KS - E_eggbox =    -12373.2587

siesta: Atomic forces (eV/Ang):
----------------------------------------
   Tot   -0.273314    0.439092    0.000000
----------------------------------------
   Max  782.981975
   Res  181.385301    sqrt( Sum f_i^2 / 3N )
----------------------------------------
   Max  782.981975    constrained

Stress-tensor-Voigt (kbar):     -621.42    -3289.17       -0.14       -4.85        0.00        0.00
(Free)E + p*V (eV/cell)   -10832.9565
Target enthalpy (eV/cell)   -12373.3202

siesta: Stress tensor (static) (eV/Ang**3):
        -0.387855   -0.003030    0.000000
        -0.003030   -2.052913    0.000000
         0.000000    0.000000   -0.000086

siesta: Pressure (static):       1303.57399888  kBar

siesta: Stress tensor (total) (eV/Ang**3):
        -0.387855   -0.003030    0.000000
        -0.003030   -2.052913    0.000000
         0.000000    0.000000   -0.000086

siesta: Pressure (total):       1303.57399888  kBar

siesta: Temp_ion =       0.000 K

* Maximum dynamic memory allocated =   145 MB
Computing bands...

siesta: Program's energy decomposition (eV):
siesta: Ebs     =     -4990.289870
siesta: Eions   =     21135.707422
siesta: Ena     =      4902.196887
siesta: Ekin    =     11007.840384
siesta: Enl     =     -1640.494087
siesta: DEna    =      -827.170069
siesta: DUscf   =       109.819065
siesta: DUext   =         0.000000
siesta: Exc     =     -4789.743500
siesta: eta*DQ  =         0.000000
siesta: Emadel  =         0.000000
siesta: Emeta   =         0.000000
siesta: Emolmec =         0.000000
siesta: Ekinion =         0.000000
siesta: Eharris =    -12373.259557
siesta: Etot    =    -12373.258742
siesta: FreeEng =    -12373.320160

siesta: Final energy (eV):
siesta:  Band Struct. =   -4990.289870
siesta:       Kinetic =   11007.840384
siesta:       Hartree =   36523.562533
siesta:    Ext. field =       0.000000
siesta:   Exch.-corr. =   -4789.743500
siesta:  Ion-electron =  -83595.484954
siesta:       Ion-ion =   28480.566795
siesta:       Ekinion =       0.000000
siesta:         Total =  -12373.258742

siesta: Atomic forces (eV/Ang):
siesta:      1    1.020099  111.470119    0.000000
siesta:      2  -24.256126 -750.819760    0.000000
siesta:      3   -1.750546  108.226182    0.000000
siesta:      4   17.897728 -662.971601    0.000000
siesta:      5    4.368860 -118.174630    0.000000
siesta:      6  -32.023139  -10.326694    0.000000
siesta:      7    1.060288  782.981975    0.000000
siesta:      8   -0.824263    3.575704    0.000000
siesta:      9    0.778670    0.754380    0.000000
siesta:     10    0.773531   -0.689176    0.000000
siesta:     11    0.425420   -1.661882    0.000000
siesta:     12   -0.835921   -3.756367    0.000000
siesta:     13  -27.684490    3.884540    0.000000
siesta:     14   -5.864873 -675.588806    0.000000
siesta:     15    2.999359  110.472050    0.000000
siesta:     16   -1.990077 -670.379791    0.000000
siesta:     17    2.159695  116.480255    0.000000
siesta:     18  -14.988646  550.378719    0.000000
siesta:     19    0.003902 -124.037887    0.000000
siesta:     20   27.523277    4.620766    0.000000
siesta:     21   35.130393 -554.591596    0.000000
siesta:     22    1.730193    0.020741    0.000000
siesta:     23   -2.805599    1.718586    0.000000
siesta:     24    1.805756    2.275005    0.000000
siesta:     25   -1.384555   -0.089695    0.000000
siesta:     26  -28.149258    8.653378    0.000000
siesta:     27  -37.576738 -556.437276    0.000000
siesta:     28   -2.837415  548.619865    0.000000
siesta:     29    1.217738 -119.888162    0.000000
siesta:     30   18.843495  549.659723    0.000000
siesta:     31   27.669648   -3.416302    0.000000
siesta:     32   -3.407140   -1.368244    0.000000
siesta:     33    1.810815   -0.287509    0.000000
siesta:     34   -1.067952    0.088560    0.000000
siesta:     35    2.189575   -2.580116    0.000000
siesta:     36   -0.319765    7.628828    0.000000
siesta:     37   -0.007681   -7.612668    0.000000
siesta:     38  -13.800497  660.564730    0.000000
siesta:     39   -4.007695 -113.609399    0.000000
siesta:     40    0.370749  673.248405    0.000000
siesta:     41    5.048107  689.637604    0.000000
siesta:     42   25.154324   -0.457892    0.000000
siesta:     43   -1.883613    2.477698    0.000000
siesta:     44    0.631469   -0.051348    0.000000
siesta:     45   -0.378542    0.721190    0.000000
siesta:     46   -0.160196   -0.771586    0.000000
siesta:     47  -10.843573  548.550778    0.000000
siesta:     48  -21.316675   -2.085243    0.000000
siesta:     49    6.823914  575.133934    0.000000
siesta:     50   -0.135568    1.943260    0.000000
siesta:     51   -0.100538   -0.166121    0.000000
siesta:     52   -0.142863   -0.088051    0.000000
siesta:     53   -0.312364    0.945313    0.000000
siesta:     54   -0.951591   -0.208404    0.000000
siesta:     55    0.156239   -0.730025    0.000000
siesta:     56   -0.592406    1.700805    0.000000
siesta:     57   -0.745481   -3.116632    0.000000
siesta:     58    0.899161    1.151946    0.000000
siesta:     59    0.416804   -0.245537    0.000000
siesta:     60    0.363196    5.826332    0.000000
siesta:     61    0.214770   -7.207538    0.000000
siesta:     62   -1.442757    2.045762    0.000000
siesta:     63    1.202459    0.438093    0.000000
siesta:     64    0.431145    0.328084    0.000000
siesta:     65   -1.210274   -2.572566    0.000000
siesta:     66   -0.569548   -0.891458    0.000000
siesta:     67   16.520705 -573.738625    0.000000
siesta:     68   24.724926    4.744610    0.000000
siesta:     69   23.060766 -563.408909    0.000000
siesta:     70   -1.389713    1.000099    0.000000
siesta:     71    1.786566   -0.514468    0.000000
siesta:     72   -9.728983 -546.986961    0.000000
siesta: ----------------------------------------
siesta:    Tot   -0.273314    0.439092    0.000000

siesta: Stress tensor (static) (eV/Ang**3):
siesta:    -0.387855   -0.003030    0.000000
siesta:    -0.003030   -2.052913    0.000000
siesta:     0.000000    0.000000   -0.000086

siesta: Cell volume =       1893.226884 Ang**3

siesta: Pressure (static):
siesta:                Solid            Molecule  Units
siesta:           0.00886134          0.14432676  Ry/Bohr**3
siesta:           0.81361810         13.25159226  eV/Ang**3
siesta:        1303.57399888      21231.62096483  kBar
(Free)E+ p_basis*V_orbitals  =      -12345.012923
(Free)Eharris+ p_basis*V_orbitals  =      -12345.011928

siesta: Electric dipole (a.u.)  =    0.000000    0.000000    0.000000
siesta: Electric dipole (Debye) =    0.000000    0.000000    0.000000

* Maximum dynamic memory allocated : Node    0 =   145 MB
* Maximum dynamic memory allocated : Node    1 =    58 MB
* Maximum dynamic memory allocated : Node    2 =    61 MB
* Maximum dynamic memory allocated : Node    3 =   135 MB
* Maximum dynamic memory allocated : Node    4 =   141 MB
* Maximum dynamic memory allocated : Node    5 =    52 MB
* Maximum dynamic memory allocated : Node    6 =    53 MB
* Maximum dynamic memory allocated : Node    7 =   133 MB
* Maximum dynamic memory allocated : Node    8 =   130 MB
* Maximum dynamic memory allocated : Node    9 =    53 MB
* Maximum dynamic memory allocated : Node   10 =    55 MB
* Maximum dynamic memory allocated : Node   11 =   124 MB

* Maximum memory occured during matrixMtoO                    

timer: CPU execution times:
timer:  Routine       Calls   Time/call    Tot.time        %
timer:  siesta            1  115196.780  115196.780   100.00
timer:  Setup             1       3.467       3.467     0.00
timer:  bands             3     226.512     679.535     0.59
timer:  writewave         1       0.022       0.022     0.00
timer:  KSV_init          1       0.005       0.005     0.00
timer:  IterMD            1  114506.814  114506.814    99.40
timer:  hsparse           1       0.165       0.165     0.00
timer:  overlap           1       7.571       7.571     0.01
timer:  IterSCF          39    2933.067  114389.594    99.30
timer:  kinefsm           2       3.832       7.664     0.01
timer:  nlefsm            2      18.175      36.351     0.03
timer:  DHSCF            40      60.673    2426.928     2.11
timer:  DHSCF1            1       0.901       0.901     0.00
timer:  DHSCF2            1      23.894      23.894     0.02
timer:  REORD           322       0.002       0.709     0.00
timer:  POISON           41       0.450      18.460     0.02
timer:  DHSCF3           40      59.531    2381.235     2.07
timer:  rhoofd           40      12.034     481.367     0.42
timer:  cellXC           40       2.398      95.909     0.08
timer:  vmat             40      30.052    1202.063     1.04
timer:  MolMec            2       0.000       0.000     0.00
timer:  diagon           39    2871.094  111972.657    97.20
timer:  c-eigval       9130       5.587   51013.160    44.28
timer:  c-buildHS      9130       0.033     300.328     0.26
timer:  cdiag         18139       5.697  103337.125    89.70
timer:  cdiag1        18139       0.260    4719.772     4.10
timer:  cdiag2        18139       1.840   33379.158    28.98
timer:  cdiag3        18139       3.379   61290.756    53.21
timer:  cdiag4        18139       0.088    1590.121     1.38
timer:  c-eigvec       9009       5.868   52868.357    45.89
timer:  c-buildD       9009       0.968    8721.562     7.57
timer:  DHSCF4            1      20.646      20.646     0.02
timer:  dfscf             1      19.234      19.234     0.02
timer:  overfsm           1       0.282       0.282     0.00
timer:  optical           1       6.352       6.352     0.01
  

elaps: ELAPSED times:
elaps:  Routine       Calls   Time/call    Tot.time        %
elaps:  siesta            1    9622.296    9622.296   100.00
elaps:  Setup             1       0.288       0.288     0.00
elaps:  bands             3      18.935      56.806     0.59
elaps:  writewave         1       0.002       0.002     0.00
elaps:  KSV_init          1       0.000       0.000     0.00
elaps:  IterMD            1    9564.665    9564.665    99.40
elaps:  hsparse           1       0.016       0.016     0.00
elaps:  overlap           1       0.709       0.709     0.01
elaps:  IterSCF          39     244.997    9554.873    99.30
elaps:  kinefsm           2       0.361       0.722     0.01
elaps:  nlefsm            2       1.592       3.184     0.03
elaps:  DHSCF            40       5.111     204.440     2.12
elaps:  DHSCF1            1       0.077       0.077     0.00
elaps:  DHSCF2            1       1.994       1.994     0.02
elaps:  REORD           322       0.000       0.093     0.00
elaps:  POISON           41       0.038       1.555     0.02
elaps:  DHSCF3           40       4.973     198.907     2.07
elaps:  rhoofd           40       2.177      87.089     0.91
elaps:  cellXC           40       0.200       7.989     0.08
elaps:  vmat             40       2.511     100.422     1.04
elaps:  MolMec            2       0.000       0.000     0.00
elaps:  diagon           39     239.825    9353.159    97.20
elaps:  c-eigval       9130       0.467    4261.038    44.28
elaps:  c-buildHS      9130       0.003      31.218     0.32
elaps:  cdiag         18139       0.472    8567.143    89.03
elaps:  cdiag1        18139       0.021     384.923     4.00
elaps:  cdiag2        18139       0.154    2790.652    29.00
elaps:  cdiag3        18139       0.283    5126.772    53.28
elaps:  cdiag4        18139       0.007     127.317     1.32
elaps:  c-eigvec       9009       0.484    4363.154    45.34
elaps:  c-buildD       9009       0.087     781.209     8.12
elaps:  DHSCF4            1       3.410       3.410     0.04
elaps:  dfscf             1       3.222       3.222     0.03
elaps:  overfsm           1       0.028       0.028     0.00
elaps:  optical           1       0.000       0.000     0.00
  
>> End of run:  30-APR-2016   3:12:23
