Siesta Version:                                        siesta-3.2-pl-3
Architecture  : x86_64-unknown-linux-gnu--unknown
Compiler flags: mpiifort -g -O2 -fPIC -xSSE4.1 -fp-model source -shared-intel 
PARALLEL version

* Running on   12 nodes in parallel
>> Start of run:   6-APR-2016  11:49:11

                           ***********************       
                           *  WELCOME TO SIESTA  *       
                           ***********************       

reinit: Reading from standard input
************************** Dump of input data file ****************************
#(1) General system descriptors
SystemName            GRP_doping    # Descriptive name of the system
SystemLabel           GRP_doping    # Short name for naming files
%include STRUCT.fdf
%include KPT.fdf
%include BASIS.fdf
#%include TS.fdf # for transiesta calculation
#(4) DFT, Grid, SCF
XC.functional         GGA           # LDA or GGA (default = LDA)
XC.authors            PBE           # CA (Ceperley-Aldr) = PZ
                                    #    (Perdew-Zunger) - LDA - Default
                                    # PW92 (Perdew-Wang-92) - LDA
                                    # PBE (Perdew-Burke-Ernzerhof) - GGA
MeshCutoff            200.000000    Ry      # Default: 50.0 Ry ~ 0.444 Bohr
                                    #         100.0 Ry ~ 0.314 Bohr
MaxSCFIterations      500           # Default: 50
DM.MixingWeight       0.05          # Default: 0.25
DM.NumberPulay        10            # Default: 0
DM.PulayOnFile        F             # SystemLabel.P1, SystemLabel.P2
DM.Tolerance          1.d-4         # Default: 1.d-4
DM.UseSaveDM          .true.        # because of the bug
SCFMustConverge       .true.
NeglNonOverlapInt     F             # Default: F
Diag.ParallelOverK    .true.
#(5) Eigenvalue problem: order-N or diagonalization
SolutionMethod        Diagon        # or Transiesta
ElectronicTemperature 300.0 K       # Default: 300.0 K
#(6) Molecular dynamics and relaxations
#MD.TypeOfRun          CG            # Type of dynamics:
#MD.VariableCell       F
#MD.NumCGsteps         0           # 0 for single-point / 100 for gopt
#MD.MaxCGDispl         0.2 Bohr      # Default: 0.2 Bohr
#MD.MaxForceTol        0.02 eV/Ang   # Default: 0.04 eV/Ang
#MD.MaxStressTol       1.0 GPa       # Default: 1.0 GPa
************************** End of input data file *****************************

reinit: -----------------------------------------------------------------------
reinit: System Name: GRP_doping
reinit: -----------------------------------------------------------------------
reinit: System Label: GRP_doping                                                  
reinit: -----------------------------------------------------------------------

initatom: Reading input for the pseudopotentials and atomic orbitals ----------
 Species number:            1  Label: B Atomic number:           5
 Species number:            2  Label: C Atomic number:           6
Ground state valence configuration:   2s02  2p01
Reading pseudopotential information in formatted form from B.psf

Valence configuration for pseudopotential generation:
2s( 2.00) rc: 1.74
2p( 1.00) rc: 1.74
3d( 0.00) rc: 1.74
4f( 0.00) rc: 1.74
Ground state valence configuration:   2s02  2p02
Reading pseudopotential information in formatted form from C.psf

Valence configuration for pseudopotential generation:
2s( 2.00) rc: 1.54
2p( 2.00) rc: 1.54
3d( 0.00) rc: 1.54
4f( 0.00) rc: 1.54
For B, standard SIESTA heuristics set lmxkb to 3
 (one more than the basis l, including polarization orbitals).
Use PS.lmax or PS.KBprojectors blocks to override.
For C, standard SIESTA heuristics set lmxkb to 3
 (one more than the basis l, including polarization orbitals).
Use PS.lmax or PS.KBprojectors blocks to override.

<basis_specs>
===============================================================================
B                    Z=   5    Mass=  10.810        Charge= 0.17977+309
Lmxo=1 Lmxkb= 3    BasisType=split      Semic=F
L=0  Nsemic=0  Cnfigmx=2
          n=1  nzeta=2  polorb=0
            splnorm:   0.15000    
               vcte:    0.0000    
               rinn:    0.0000    
                rcs:    0.0000      0.0000    
            lambdas:    1.0000      1.0000    
L=1  Nsemic=0  Cnfigmx=2
          n=1  nzeta=2  polorb=1
            splnorm:   0.15000    
               vcte:    0.0000    
               rinn:    0.0000    
                rcs:    0.0000      0.0000    
            lambdas:    1.0000      1.0000    
-------------------------------------------------------------------------------
L=0  Nkbl=1  erefs: 0.17977+309
L=1  Nkbl=1  erefs: 0.17977+309
L=2  Nkbl=1  erefs: 0.17977+309
L=3  Nkbl=1  erefs: 0.17977+309
===============================================================================
</basis_specs>

atom: Called for B                     (Z =   5)

read_vps: Pseudopotential generation method:
read_vps: ATM3      Troullier-Martins                       
Total valence charge:    3.00000

read_vps: Pseudopotential includes a core correction:
read_vps: Pseudo-core for xc-correction

xc_check: Exchange-correlation functional:
xc_check: GGA Perdew, Burke & Ernzerhof 1996
V l=0 = -2*Zval/r beyond r=  1.7165
V l=1 = -2*Zval/r beyond r=  1.7165
V l=2 = -2*Zval/r beyond r=  1.7165
V l=3 = -2*Zval/r beyond r=  1.6951
All V_l potentials equal beyond r=  1.7165
This should be close to max(r_c) in ps generation
All pots = -2*Zval/r beyond r=  1.7165

VLOCAL1: 99.0% of the norm of Vloc inside     14.733 Ry
VLOCAL1: 99.9% of the norm of Vloc inside     33.577 Ry
atom: Maximum radius for 4*pi*r*r*local-pseudopot. charge    2.04484
atom: Maximum radius for r*vlocal+2*Zval:    1.75994
GHOST: No ghost state for L =  0
GHOST: No ghost state for L =  1
GHOST: No ghost state for L =  2
GHOST: No ghost state for L =  3

KBgen: Kleinman-Bylander projectors: 
   l= 0   rc=  1.897051   el= -0.693730   Ekb=  4.595746   kbcos=  0.286105
   l= 1   rc=  1.920920   el= -0.265236   Ekb= -2.350715   kbcos= -0.315747
   l= 2   rc=  2.044840   el=  0.002055   Ekb= -0.690767   kbcos= -0.013822
   l= 3   rc=  2.149707   el=  0.003188   Ekb= -0.315358   kbcos= -0.002055

KBgen: Total number of  Kleinman-Bylander projectors:   16
atom: -------------------------------------------------------------------------

atom: SANKEY-TYPE ORBITALS:
atom: Selected multiple-zeta basis: split     

SPLIT: Orbitals with angular momentum L= 0

SPLIT: Basis orbitals for state 2s

SPLIT: PAO cut-off radius determined from an
SPLIT: energy shift=  0.007350 Ry

   izeta = 1
                 lambda =    1.000000
                     rc =    5.422032
                 energy =   -0.686029
                kinetic =    0.576707
    potential(screened) =   -1.262736
       potential(ionic) =   -3.271094

   izeta = 2
                 rmatch =    4.222573
              splitnorm =    0.150000
                 energy =   -0.602132
                kinetic =    0.858975
    potential(screened) =   -1.461107
       potential(ionic) =   -3.582536

SPLIT: Orbitals with angular momentum L= 1

SPLIT: Basis orbitals for state 2p

SPLIT: PAO cut-off radius determined from an
SPLIT: energy shift=  0.007350 Ry

   izeta = 1
                 lambda =    1.000000
                     rc =    6.790259
                 energy =   -0.258578
                kinetic =    1.481412
    potential(screened) =   -1.739989
       potential(ionic) =   -3.657461

   izeta = 2
                 rmatch =    4.608740
              splitnorm =    0.150000
                 energy =   -0.173757
                kinetic =    2.186690
    potential(screened) =   -2.360447
       potential(ionic) =   -4.464260

POLgen: Perturbative polarization orbital with L=  2

POLgen: Polarization orbital for state 2p

   izeta = 1
                     rc =    6.790259
                 energy =    0.684082
                kinetic =    1.471481
    potential(screened) =   -0.787399
       potential(ionic) =   -2.406985
atom: Total number of Sankey-type orbitals: 13

atm_pop: Valence configuration (for local Pseudopot. screening):
 2s( 2.00)                                                            
 2p( 1.00)                                                            
Vna: chval, zval:    3.00000   3.00000

Vna:  Cut-off radius for the neutral-atom potential:   6.790259
comcore: Pseudo-core radius Rcore=  2.122997

atom: _________________________________________________________________________

<basis_specs>
===============================================================================
C                    Z=   6    Mass=  12.010        Charge= 0.17977+309
Lmxo=1 Lmxkb= 3    BasisType=split      Semic=F
L=0  Nsemic=0  Cnfigmx=2
          n=1  nzeta=2  polorb=0
            splnorm:   0.15000    
               vcte:    0.0000    
               rinn:    0.0000    
                rcs:    0.0000      0.0000    
            lambdas:    1.0000      1.0000    
L=1  Nsemic=0  Cnfigmx=2
          n=1  nzeta=2  polorb=1
            splnorm:   0.15000    
               vcte:    0.0000    
               rinn:    0.0000    
                rcs:    0.0000      0.0000    
            lambdas:    1.0000      1.0000    
-------------------------------------------------------------------------------
L=0  Nkbl=1  erefs: 0.17977+309
L=1  Nkbl=1  erefs: 0.17977+309
L=2  Nkbl=1  erefs: 0.17977+309
L=3  Nkbl=1  erefs: 0.17977+309
===============================================================================
</basis_specs>

atom: Called for C                     (Z =   6)

read_vps: Pseudopotential generation method:
read_vps: ATM3      Troullier-Martins                       
Total valence charge:    4.00000

read_vps: Pseudopotential includes a core correction:
read_vps: Pseudo-core for xc-correction

xc_check: Exchange-correlation functional:
xc_check: GGA Perdew, Burke & Ernzerhof 1996
V l=0 = -2*Zval/r beyond r=  1.5227
V l=1 = -2*Zval/r beyond r=  1.5227
V l=2 = -2*Zval/r beyond r=  1.5227
V l=3 = -2*Zval/r beyond r=  1.5038
All V_l potentials equal beyond r=  1.5227
This should be close to max(r_c) in ps generation
All pots = -2*Zval/r beyond r=  1.5227

VLOCAL1: 99.0% of the norm of Vloc inside     18.722 Ry
VLOCAL1: 99.9% of the norm of Vloc inside     42.668 Ry
atom: Maximum radius for 4*pi*r*r*local-pseudopot. charge    1.83678
atom: Maximum radius for r*vlocal+2*Zval:    1.58088
GHOST: No ghost state for L =  0
GHOST: No ghost state for L =  1
GHOST: No ghost state for L =  2
GHOST: No ghost state for L =  3

KBgen: Kleinman-Bylander projectors: 
   l= 0   rc=  1.704034   el= -1.009801   Ekb=  5.335044   kbcos=  0.316824
   l= 1   rc=  1.704034   el= -0.388707   Ekb= -3.785862   kbcos= -0.366464
   l= 2   rc=  1.791422   el=  0.001971   Ekb= -0.970471   kbcos= -0.009212
   l= 3   rc=  1.859892   el=  0.003065   Ekb= -0.399525   kbcos= -0.001223

KBgen: Total number of  Kleinman-Bylander projectors:   16
atom: -------------------------------------------------------------------------

atom: SANKEY-TYPE ORBITALS:
atom: Selected multiple-zeta basis: split     

SPLIT: Orbitals with angular momentum L= 0

SPLIT: Basis orbitals for state 2s

SPLIT: PAO cut-off radius determined from an
SPLIT: energy shift=  0.007350 Ry

   izeta = 1
                 lambda =    1.000000
                     rc =    4.632753
                 energy =   -1.002270
                kinetic =    0.855760
    potential(screened) =   -1.858031
       potential(ionic) =   -5.417575

   izeta = 2
                 rmatch =    3.431921
              splitnorm =    0.150000
                 energy =   -0.867111
                kinetic =    1.300804
    potential(screened) =   -2.167915
       potential(ionic) =   -5.962684

SPLIT: Orbitals with angular momentum L= 1

SPLIT: Basis orbitals for state 2p

SPLIT: PAO cut-off radius determined from an
SPLIT: energy shift=  0.007350 Ry

   izeta = 1
                 lambda =    1.000000
                     rc =    5.658549
                 energy =   -0.381140
                kinetic =    2.399701
    potential(screened) =   -2.780841
       potential(ionic) =   -6.206085

   izeta = 2
                 rmatch =    3.653288
              splitnorm =    0.150000
                 energy =   -0.249149
                kinetic =    3.542762
    potential(screened) =   -3.791911
       potential(ionic) =   -7.581078

POLgen: Perturbative polarization orbital with L=  2

POLgen: Polarization orbital for state 2p

   izeta = 1
                     rc =    5.658549
                 energy =    1.109913
                kinetic =    2.304789
    potential(screened) =   -1.194876
       potential(ionic) =   -4.013592
atom: Total number of Sankey-type orbitals: 13

atm_pop: Valence configuration (for local Pseudopot. screening):
 2s( 2.00)                                                            
 2p( 2.00)                                                            
Vna: chval, zval:    4.00000   4.00000

Vna:  Cut-off radius for the neutral-atom potential:   5.658549
comcore: Pseudo-core radius Rcore=  1.791422

atom: _________________________________________________________________________

prinput: Basis input ----------------------------------------------------------

PAO.BasisType split     

%block ChemicalSpeciesLabel
    1    5 B                       # Species index, atomic number, species label
    2    6 C                       # Species index, atomic number, species label
%endblock ChemicalSpeciesLabel

%block PAO.Basis                 # Define Basis set
B                     2                    # Species label, number of l-shells
 n=2   0   2                         # n, l, Nzeta 
   5.422      4.223   
   1.000      1.000   
 n=2   1   2 P   1                   # n, l, Nzeta, Polarization, NzetaPol
   6.790      4.609   
   1.000      1.000   
C                     2                    # Species label, number of l-shells
 n=2   0   2                         # n, l, Nzeta 
   4.633      3.432   
   1.000      1.000   
 n=2   1   2 P   1                   # n, l, Nzeta, Polarization, NzetaPol
   5.659      3.653   
   1.000      1.000   
%endblock PAO.Basis

prinput: ----------------------------------------------------------------------

coor:   Atomic-coordinates input format  =     Cartesian coordinates
coor:                                          (in Angstroms)

siesta: Atomic coordinates (Bohr) and species
siesta:      2.23549   1.32088   0.00000  1        1
siesta:      4.56357   2.66443   0.00000  2        2
siesta:     32.50244  21.48363   0.00000  2        3
siesta:     34.83052  22.82718   0.00000  2        4
siesta:     34.83048  17.45108   0.00000  2        5
siesta:     37.15856  18.79463   0.00000  2        6
siesta:     32.50239  13.41853   0.00000  2        7
siesta:     34.83046  14.76208   0.00000  2        8
siesta:     30.17428   9.38598   0.00000  2        9
siesta:     32.50237  10.72953   0.00000  2       10
siesta:     27.84618   5.35343   0.00000  2       11
siesta:     30.17426   6.69698   0.00000  2       12
siesta:     27.84630  21.48363   0.00000  2       13
siesta:     30.17438  22.82718   0.00000  2       14
siesta:      6.89163   1.32088   0.00000  2       15
siesta:      9.21971   2.66443   0.00000  2       16
siesta:     11.54777   1.32088   0.00000  2       17
siesta:     13.87585   2.66443   0.00000  2       18
siesta:     16.20391   1.32088   0.00000  2       19
siesta:     18.53199   2.66443   0.00000  2       20
siesta:     20.86194   1.32088   0.00000  2       21
siesta:     23.19002   2.66443   0.00000  2       22
siesta:     25.51808   1.32088   0.00000  2       23
siesta:     27.84616   2.66443   0.00000  2       24
siesta:      4.56359   5.35343   0.00000  2       25
siesta:      6.89167   6.69698   0.00000  2       26
siesta:      9.21973   5.35343   0.00000  2       27
siesta:     11.54781   6.69698   0.00000  2       28
siesta:     13.87587   5.35343   0.00000  2       29
siesta:     16.20395   6.69698   0.00000  2       30
siesta:     18.53390   5.35343   0.00000  2       31
siesta:     20.86198   6.69698   0.00000  2       32
siesta:     23.19004   5.35343   0.00000  2       33
siesta:     25.51812   6.69698   0.00000  2       34
siesta:      6.89169   9.38598   0.00000  2       35
siesta:      9.21977  10.72953   0.00000  2       36
siesta:     11.54783   9.38598   0.00000  2       37
siesta:     13.87591  10.72953   0.00000  2       38
siesta:     16.20397   9.38598   0.00000  2       39
siesta:     18.53205  10.72953   0.00000  2       40
siesta:     20.86200   9.38598   0.00000  2       41
siesta:     23.19008  10.72953   0.00000  2       42
siesta:      9.21979  13.41853   0.00000  2       43
siesta:     11.54787  14.76208   0.00000  2       44
siesta:     13.87593  13.41853   0.00000  2       45
siesta:     16.20401  14.76208   0.00000  2       46
siesta:     18.53396  13.41853   0.00000  2       47
siesta:     20.86204  14.76208   0.00000  2       48
siesta:     11.54789  17.45108   0.00000  2       49
siesta:     13.87597  18.79463   0.00000  2       50
siesta:     16.20403  17.45108   0.00000  2       51
siesta:     18.53211  18.79463   0.00000  2       52
siesta:     13.87599  21.48363   0.00000  2       53
siesta:     16.20407  22.82718   0.00000  2       54
siesta:     18.53402  21.48363   0.00000  2       55
siesta:     20.86210  22.82718   0.00000  2       56
siesta:     25.51814   9.38598   0.00000  2       57
siesta:     27.84622  10.72953   0.00000  2       58
siesta:     23.19010  13.41853   0.00000  2       59
siesta:     25.51818  14.76208   0.00000  2       60
siesta:     20.86206  17.45108   0.00000  2       61
siesta:     23.19014  18.79463   0.00000  2       62
siesta:     27.84624  13.41853   0.00000  2       63
siesta:     30.17432  14.76208   0.00000  2       64
siesta:     25.51820  17.45108   0.00000  2       65
siesta:     27.84628  18.79463   0.00000  2       66
siesta:     23.19016  21.48363   0.00000  2       67
siesta:     25.51824  22.82718   0.00000  2       68
siesta:     30.17434  17.45108   0.00000  2       69
siesta:     32.50243  18.79463   0.00000  2       70
siesta:     37.16048  21.48363   0.00000  2       71
siesta:     39.48855  22.82718   0.00000  2       72

siesta: System type = slab      

initatomlists: Number of atoms, orbitals, and projectors:     72   936  1152

siesta: ******************** Simulation parameters ****************************
siesta:
siesta: The following are some of the parameters of the simulation.
siesta: A complete list of the parameters used, including default values,
siesta: can be found in file out.fdf
siesta:
redata: Non-Collinear-spin run           =     F
redata: SpinPolarized (Up/Down) run      =     F
redata: Number of spin components        =     1
redata: Long output                      =     F
redata: Number of Atomic Species         =        2
redata: Charge density info will appear in .RHO file
redata: Write Mulliken Pop.              =     NO
redata: Mesh Cutoff                      =   200.0000  Ry
redata: Net charge of the system         =     0.0000 |e|
redata: Max. number of SCF Iter          =      500
redata: SCF convergence failure will abort job
redata: Performing Pulay mixing using    =    10 iterations
redata: Mix DM in first SCF step ?       =     F
redata: Write Pulay info on disk?        =     F
redata: Discard 1st Pulay DM after  kick =     F
redata: New DM Mixing Weight             =     0.0500
redata: New DM Occupancy tolerance       = 0.000000000001
redata: No kicks to SCF
redata: DM Mixing Weight for Kicks       =     0.5000
redata: DM Tolerance for SCF             =     0.000100
redata: Require Energy convergence for SCF =     F
redata: DM Energy tolerance for SCF      =     0.000100 eV
redata: Require Harris convergence for SCF =     F
redata: DM Harris energy tolerance for SCF =     0.000100 eV
redata: Using Saved Data (generic)   =     F
redata: Use continuation files for DM    =     T
redata: Neglect nonoverlap interactions  =     F
redata: Method of Calculation            =     Diagonalization
redata: Divide and Conquer               =     T
redata: Electronic Temperature           =     0.0019  Ry
redata: Fix the spin of the system       =     F
redata: Dynamics option                  =     Verlet MD run
redata: Initial MD time step             =        1
redata:   Final MD time step             =        1
redata: Length of MD time step           =     1.0000  fs
redata: Initial Temperature of MD run    =     0.0000  K
redata: Perform a MD quench              =     F
redata: ***********************************************************************
Total number of electrons:   287.000000
Total ionic charge:   287.000000

* ProcessorY, Blocksize:    3  24

k-point displ. along   1 input, could be:     0.50    0.00
k-point displ. along   2 input, could be:     0.50    0.00
 Kpoints in:          231 . Kpoints trimmed:          231

siesta: k-grid: Number of k-points =   231
siesta: k-grid: Cutoff (effective) =     5.000 Ang
siesta: k-grid: Supercell and displacements
siesta: k-grid:   21   0   0      0.500
siesta: k-grid:    0  21   0      0.500
siesta: k-grid:    0   0   1      0.000
Naive supercell factors:     2    2    2

superc: Internal auxiliary supercell:     2 x     2 x     2  =       8
superc: Number of atoms, orbitals, and projectors:    576   7488   9216

* Maximum dynamic memory allocated =     4 MB

siesta:                 ==============================
                            Begin MD step =      1
                        ==============================

superc: Internal auxiliary supercell:     2 x     2 x     2  =       8
superc: Number of atoms, orbitals, and projectors:    576   7488   9216

outcell: Unit cell vectors (Ang):
       14.785000    0.000000    0.000000
        7.392500   12.804185    0.000000
        0.000000    0.000000   10.000000

outcell: Cell vector modules (Ang)   :   14.785000   14.785000   10.000000
outcell: Cell angles (23,13,12) (deg):     90.0000     90.0000     60.0000
outcell: Cell volume (Ang**3)        :   1893.0988
New_DM. Step:     1
Initializing Density Matrix...

iodm: Reading Density Matrix from files

InitMesh: MESH =   120 x   120 x    90 =     1296000
InitMesh: Mesh cutoff (required, used) =   200.000   223.865 Ry

* Maximum dynamic memory allocated =   143 MB

stepf: Fermi-Dirac step function

siesta: Program's energy decomposition (eV):
siesta: Ebs     =     -3909.173910
siesta: Eions   =     18274.954360
siesta: Ena     =      3953.090754
siesta: Ekin    =      7784.495284
siesta: Enl     =      -781.802882
siesta: DEna    =      -292.112607
siesta: DUscf   =        26.298112
siesta: DUext   =         0.000000
siesta: Exc     =     -4042.751104
siesta: eta*DQ  =         0.000000
siesta: Emadel  =         0.000000
siesta: Emeta   =         0.000000
siesta: Emolmec =         0.000000
siesta: Ekinion =         0.000000
siesta: Eharris =    -11627.736839
siesta: Etot    =    -11627.736803
siesta: FreeEng =    -11627.736803

siesta: iscf   Eharris(eV)      E_KS(eV)   FreeEng(eV)   dDmax  Ef(eV)
siesta:    1   -11627.7368   -11627.7368   -11627.7368  0.0002 -5.1204
timer: Routine,Calls,Time,% = IterSCF        1    1171.713  98.93
elaps: Routine,Calls,Wall,% = IterSCF        1      97.894  98.93
siesta:    2   -11627.7372   -11627.7367   -11627.7436  0.0007 -5.1189
siesta:    3   -11627.7368   -11627.7368   -11627.7437  0.0000 -5.1201

siesta: E_KS(eV) =           -11627.7368

siesta: E_KS - E_eggbox =    -11627.7368

siesta: Atomic forces (eV/Ang):
----------------------------------------
   Tot    0.194851   -0.294042    0.000000
----------------------------------------
   Max    3.331721
   Res    0.409905    sqrt( Sum f_i^2 / 3N )
----------------------------------------
   Max    3.331721    constrained

Stress-tensor-Voigt (kbar):      -45.13      -44.49       -0.02       -0.45        0.00        0.00
(Free)E + p*V (eV/cell)   -11592.4388
Target enthalpy (eV/cell)   -11627.7437

siesta: Stress tensor (static) (eV/Ang**3):
        -0.028166   -0.000282    0.000000
        -0.000282   -0.027771    0.000000
         0.000000    0.000000   -0.000011

siesta: Pressure (static):         29.87978309  kBar

siesta: Stress tensor (total) (eV/Ang**3):
        -0.028166   -0.000282    0.000000
        -0.000282   -0.027771    0.000000
         0.000000    0.000000   -0.000011

siesta: Pressure (total):         29.87978309  kBar

siesta: Temp_ion =       0.000 K

* Maximum dynamic memory allocated =   238 MB

siesta: Program's energy decomposition (eV):
siesta: Ebs     =     -3909.176865
siesta: Eions   =     18274.954360
siesta: Ena     =      3953.090754
siesta: Ekin    =      7784.495776
siesta: Enl     =      -781.803100
siesta: DEna    =      -292.113144
siesta: DUscf   =        26.298535
siesta: DUext   =         0.000000
siesta: Exc     =     -4042.751258
siesta: eta*DQ  =         0.000000
siesta: Emadel  =         0.000000
siesta: Emeta   =         0.000000
siesta: Emolmec =         0.000000
siesta: Ekinion =         0.000000
siesta: Eharris =    -11627.736797
siesta: Etot    =    -11627.736797
siesta: FreeEng =    -11627.743721

siesta: Final energy (eV):
siesta:  Band Struct. =   -3909.176865
siesta:       Kinetic =    7784.495776
siesta:       Hartree =   22951.150060
siesta:    Ext. field =       0.000000
siesta:   Exch.-corr. =   -4042.751258
siesta:  Ion-electron =  -53073.269081
siesta:       Ion-ion =   14752.637706
siesta:       Ekinion =       0.000000
siesta:         Total =  -11627.736797

siesta: Atomic forces (eV/Ang):
siesta:      1   -0.005985   -0.025461    0.000000
siesta:      2    2.915731    1.681343    0.000000
siesta:      3    0.053217    0.019172    0.000000
siesta:      4   -0.057799    0.021446    0.000000
siesta:      5    0.049631    0.016330    0.000000
siesta:      6   -0.019874   -0.083769    0.000000
siesta:      7    0.007381   -0.062213    0.000000
siesta:      8    0.022812   -0.007660    0.000000
siesta:      9    0.007784   -0.258123    0.000000
siesta:     10    0.064048    0.075670    0.000000
siesta:     11   -0.486608   -0.277985    0.000000
siesta:     12    0.012760    0.291153    0.000000
siesta:     13   -0.037679    0.018879    0.000000
siesta:     14   -0.003316    0.033579    0.000000
siesta:     15    0.023543    0.530706    0.000000
siesta:     16    0.092866   -0.154282    0.000000
siesta:     17    0.063013    0.012282    0.000000
siesta:     18   -0.002272   -0.031119    0.000000
siesta:     19    0.012561   -0.026714    0.000000
siesta:     20    0.041021   -0.035198    0.000000
siesta:     21   -0.083077    0.017370    0.000000
siesta:     22   -0.097747   -0.156264    0.000000
siesta:     23   -0.005534    0.528744    0.000000
siesta:     24   -2.902221    1.674131    0.000000
siesta:     25    0.486852   -0.271869    0.000000
siesta:     26   -0.087779    0.160433    0.000000
siesta:     27    0.001988   -0.012879    0.000000
siesta:     28   -0.006961   -0.001431    0.000000
siesta:     29    0.014978    0.003017    0.000000
siesta:     30    0.029861   -0.014065    0.000000
siesta:     31   -0.038882    0.011266    0.000000
siesta:     32    0.003286   -0.001906    0.000000
siesta:     33    0.009596   -0.012869    0.000000
siesta:     34    0.084197    0.159292    0.000000
siesta:     35    0.056636    0.018443    0.000000
siesta:     36   -0.028492    0.016145    0.000000
siesta:     37    0.020176   -0.013632    0.000000
siesta:     38   -0.007023    0.005993    0.000000
siesta:     39    0.008011   -0.010716    0.000000
siesta:     40    0.046856   -0.001837    0.000000
siesta:     41   -0.037324   -0.005046    0.000000
siesta:     42    0.020157    0.015028    0.000000
siesta:     43   -0.004300   -0.006926    0.000000
siesta:     44   -0.025395    0.019634    0.000000
siesta:     45    0.019694   -0.021016    0.000000
siesta:     46    0.029485    0.001551    0.000000
siesta:     47   -0.043322   -0.013577    0.000000
siesta:     48    0.021198    0.017202    0.000000
siesta:     49    0.005816   -0.075507    0.000000
siesta:     50   -0.181824   -0.002637    0.000000
siesta:     51    0.007262   -0.005383    0.000000
siesta:     52    0.218898   -0.010727    0.000000
siesta:     53    0.502258   -0.310591    0.000000
siesta:     54    0.027396   -3.331721    0.000000
siesta:     55   -0.511529   -0.298785    0.000000
siesta:     56    0.243760   -0.123920    0.000000
siesta:     57   -0.058669    0.012319    0.000000
siesta:     58   -0.051279    0.080612    0.000000
siesta:     59    0.002984   -0.012554    0.000000
siesta:     60   -0.009732   -0.003250    0.000000
siesta:     61   -0.036109   -0.069981    0.000000
siesta:     62    0.037052   -0.081230    0.000000
siesta:     63    0.006809   -0.060810    0.000000
siesta:     64   -0.000707    0.028130    0.000000
siesta:     65   -0.036857    0.014785    0.000000
siesta:     66    0.020869   -0.012454    0.000000
siesta:     67   -0.207289    0.116563    0.000000
siesta:     68    0.088788    0.027132    0.000000
siesta:     69    0.006197   -0.009664    0.000000
siesta:     70   -0.022702   -0.011730    0.000000
siesta:     71    0.179302    0.122366    0.000000
siesta:     72   -0.273594   -0.117259    0.000000
siesta: ----------------------------------------
siesta:    Tot    0.194851   -0.294042    0.000000

siesta: Stress tensor (static) (eV/Ang**3):
siesta:    -0.028166   -0.000282    0.000000
siesta:    -0.000282   -0.027771    0.000000
siesta:     0.000000    0.000000   -0.000011

siesta: Cell volume =       1893.098801 Ang**3

siesta: Pressure (static):
siesta:                Solid            Molecule  Units
siesta:           0.00020311          0.00037055  Ry/Bohr**3
siesta:           0.01864929          0.03402288  eV/Ang**3
siesta:          29.87978309         54.51126046  kBar
(Free)E+ p_basis*V_orbitals  =      -11596.690149
(Free)Eharris+ p_basis*V_orbitals  =      -11596.690148

siesta: Electric dipole (a.u.)  =    0.000000    0.000000    0.000000
siesta: Electric dipole (Debye) =    0.000000    0.000000    0.000000

* Maximum dynamic memory allocated : Node    0 =   238 MB
* Maximum dynamic memory allocated : Node    1 =   149 MB
* Maximum dynamic memory allocated : Node    2 =   150 MB
* Maximum dynamic memory allocated : Node    3 =   226 MB
* Maximum dynamic memory allocated : Node    4 =   232 MB
* Maximum dynamic memory allocated : Node    5 =   144 MB
* Maximum dynamic memory allocated : Node    6 =   145 MB
* Maximum dynamic memory allocated : Node    7 =   225 MB
* Maximum dynamic memory allocated : Node    8 =   232 MB
* Maximum dynamic memory allocated : Node    9 =   144 MB
* Maximum dynamic memory allocated : Node   10 =   146 MB
* Maximum dynamic memory allocated : Node   11 =   226 MB

* Maximum memory occured during cdiag                         

timer: CPU execution times:
timer:  Routine       Calls   Time/call    Tot.time        %
timer:  siesta            1    3518.994    3518.994   100.00
timer:  Setup             1       3.381       3.381     0.10
timer:  bands             1       0.013       0.013     0.00
timer:  writewave         1       0.021       0.021     0.00
timer:  KSV_init          1       0.005       0.005     0.00
timer:  IterMD            1    3509.168    3509.168    99.72
timer:  hsparse           1       0.289       0.289     0.01
timer:  overlap           1       4.686       4.686     0.13
timer:  IterSCF           3    1128.282    3384.847    96.19
timer:  kinefsm           2       2.384       4.767     0.14
timer:  nlefsm            2      19.133      38.266     1.09
timer:  DHSCF             4      74.892     299.568     8.51
timer:  DHSCF1            1       1.187       1.187     0.03
timer:  DHSCF2            1      30.477      30.477     0.87
timer:  REORD            34       0.002       0.074     0.00
timer:  POISON            5       0.470       2.350     0.07
timer:  DHSCF3            4      61.043     244.174     6.94
timer:  rhoofd            4      12.528      50.111     1.42
timer:  cellXC            4       2.448       9.792     0.28
timer:  vmat              4      30.776     123.102     3.50
timer:  MolMec            2       0.000       0.000     0.00
timer:  diagon            3    1042.300    3126.899    88.86
timer:  cdiag           120      17.963    2074.026    58.94
timer:  cdiag1          120       0.877     101.259     2.88
timer:  cdiag2          120       3.037     350.618     9.96
timer:  cdiag3          120      13.850    1599.222    45.45
timer:  cdiag4          120       0.195      22.564     0.64
timer:  DHSCF4            1      23.051      23.051     0.66
timer:  dfscf             1      21.079      21.079     0.60
timer:  overfsm           1       0.279       0.279     0.01
timer:  optical           1       5.902       5.902     0.17
  

elaps: ELAPSED times:
elaps:  Routine       Calls   Time/call    Tot.time        %
elaps:  siesta            1     293.996     293.996   100.00
elaps:  Setup             1       0.282       0.282     0.10
elaps:  bands             1       0.001       0.001     0.00
elaps:  writewave         1       0.002       0.002     0.00
elaps:  KSV_init          1       0.000       0.000     0.00
elaps:  IterMD            1     293.176     293.176    99.72
elaps:  hsparse           1       0.028       0.028     0.01
elaps:  overlap           1       0.713       0.713     0.24
elaps:  IterSCF           3      94.264     282.792    96.19
elaps:  kinefsm           2       0.364       0.728     0.25
elaps:  nlefsm            2       1.794       3.587     1.22
elaps:  DHSCF             4       6.651      26.604     9.05
elaps:  DHSCF1            1       0.102       0.102     0.03
elaps:  DHSCF2            1       2.553       2.553     0.87
elaps:  REORD            34       0.000       0.010     0.00
elaps:  POISON            5       0.040       0.199     0.07
elaps:  DHSCF3            4       5.098      20.394     6.94
elaps:  rhoofd            4       1.939       7.756     2.64
elaps:  cellXC            4       0.204       0.816     0.28
elaps:  vmat              4       2.570      10.281     3.50
elaps:  MolMec            2       0.000       0.000     0.00
elaps:  diagon            3      87.077     261.231    88.85
elaps:  cdiag           120       1.467     176.079    59.89
elaps:  cdiag1          120       0.070       8.417     2.86
elaps:  cdiag2          120       0.245      29.345     9.98
elaps:  cdiag3          120       1.135     136.197    46.33
elaps:  cdiag4          120       0.017       2.095     0.71
elaps:  DHSCF4            1       3.494       3.494     1.19
elaps:  dfscf             1       3.255       3.255     1.11
elaps:  overfsm           1       0.030       0.030     0.01
elaps:  optical           1       0.000       0.000     0.00
  
>> End of run:   6-APR-2016  11:54:05
