Siesta Version:                                        siesta-3.2-pl-3
Architecture  : x86_64-unknown-linux-gnu--unknown
Compiler flags: mpiifort -g -O2 -fPIC -xSSE4.1 -fp-model source -shared-intel 
PARALLEL version

* Running on    8 nodes in parallel
>> Start of run:  14-APR-2016  14:44:43

                           ***********************       
                           *  WELCOME TO SIESTA  *       
                           ***********************       

reinit: Reading from standard input
************************** Dump of input data file ****************************
#(1) General system descriptors
SystemName            GRP_doping    # Descriptive name of the system
SystemLabel           GRP_doping    # Short name for naming files
%include STRUCT.fdf
%include KPT.fdf
%include BASIS.fdf
#%include TS.fdf # for transiesta calculation
#(4) DFT, Grid, SCF
XC.functional         GGA           # LDA or GGA (default = LDA)
XC.authors            PBE           # CA (Ceperley-Aldr) = PZ
                                    #    (Perdew-Zunger) - LDA - Default
                                    # PW92 (Perdew-Wang-92) - LDA
                                    # PBE (Perdew-Burke-Ernzerhof) - GGA
MeshCutoff            200.000000    Ry      # Default: 50.0 Ry ~ 0.444 Bohr
                                    #         100.0 Ry ~ 0.314 Bohr
MaxSCFIterations      500           # Default: 50
DM.MixingWeight       0.05          # Default: 0.25
DM.NumberPulay        10            # Default: 0
DM.PulayOnFile        F             # SystemLabel.P1, SystemLabel.P2
DM.Tolerance          1.d-4         # Default: 1.d-4
DM.UseSaveDM          .true.        # because of the bug
SCFMustConverge       .true.
NeglNonOverlapInt     F             # Default: F
#(5) Eigenvalue problem: order-N or diagonalization
SolutionMethod        Diagon        # or Transiesta
ElectronicTemperature 300.0 K       # Default: 300.0 K
#(6) Molecular dynamics and relaxations
#MD.TypeOfRun          CG            # Type of dynamics:
#MD.VariableCell       F
#MD.NumCGsteps         0           # 0 for single-point / 100 for gopt
#MD.MaxCGDispl         0.2 Bohr      # Default: 0.2 Bohr
#MD.MaxForceTol        0.02 eV/Ang   # Default: 0.04 eV/Ang
#MD.MaxStressTol       1.0 GPa       # Default: 1.0 GPa
# Geometry Constraints
#%block GeometryConstraints
#	position from 1 to 44
#%endblock GeometryConstraints
BandLinesScale   pi/a
%block BandLines
 1   0.00000000  0.00000000  0.00000000
50   0.00000000  0.07809418  0.00000000
50   0.04509075  0.07809242  0.00000000
20   0.00000000  0.00000000  0.00000000
%endblock BandLines
************************** End of input data file *****************************

reinit: -----------------------------------------------------------------------
reinit: System Name: GRP_doping
reinit: -----------------------------------------------------------------------
reinit: System Label: GRP_doping                                                  
reinit: -----------------------------------------------------------------------

initatom: Reading input for the pseudopotentials and atomic orbitals ----------
 Species number:            1  Label: B Atomic number:           5
 Species number:            2  Label: C Atomic number:           6
Ground state valence configuration:   2s02  2p01
Reading pseudopotential information in formatted form from B.psf

Valence configuration for pseudopotential generation:
2s( 2.00) rc: 1.74
2p( 1.00) rc: 1.74
3d( 0.00) rc: 1.74
4f( 0.00) rc: 1.74
Ground state valence configuration:   2s02  2p02
Reading pseudopotential information in formatted form from C.psf

Valence configuration for pseudopotential generation:
2s( 2.00) rc: 1.54
2p( 2.00) rc: 1.54
3d( 0.00) rc: 1.54
4f( 0.00) rc: 1.54
For B, standard SIESTA heuristics set lmxkb to 3
 (one more than the basis l, including polarization orbitals).
Use PS.lmax or PS.KBprojectors blocks to override.
For C, standard SIESTA heuristics set lmxkb to 3
 (one more than the basis l, including polarization orbitals).
Use PS.lmax or PS.KBprojectors blocks to override.

<basis_specs>
===============================================================================
B                    Z=   5    Mass=  10.810        Charge= 0.17977+309
Lmxo=1 Lmxkb= 3    BasisType=split      Semic=F
L=0  Nsemic=0  Cnfigmx=2
          n=1  nzeta=2  polorb=0
            splnorm:   0.15000    
               vcte:    0.0000    
               rinn:    0.0000    
                rcs:    0.0000      0.0000    
            lambdas:    1.0000      1.0000    
L=1  Nsemic=0  Cnfigmx=2
          n=1  nzeta=2  polorb=1
            splnorm:   0.15000    
               vcte:    0.0000    
               rinn:    0.0000    
                rcs:    0.0000      0.0000    
            lambdas:    1.0000      1.0000    
-------------------------------------------------------------------------------
L=0  Nkbl=1  erefs: 0.17977+309
L=1  Nkbl=1  erefs: 0.17977+309
L=2  Nkbl=1  erefs: 0.17977+309
L=3  Nkbl=1  erefs: 0.17977+309
===============================================================================
</basis_specs>

atom: Called for B                     (Z =   5)

read_vps: Pseudopotential generation method:
read_vps: ATM3      Troullier-Martins                       
Total valence charge:    3.00000

read_vps: Pseudopotential includes a core correction:
read_vps: Pseudo-core for xc-correction

xc_check: Exchange-correlation functional:
xc_check: GGA Perdew, Burke & Ernzerhof 1996
V l=0 = -2*Zval/r beyond r=  1.7165
V l=1 = -2*Zval/r beyond r=  1.7165
V l=2 = -2*Zval/r beyond r=  1.7165
V l=3 = -2*Zval/r beyond r=  1.6951
All V_l potentials equal beyond r=  1.7165
This should be close to max(r_c) in ps generation
All pots = -2*Zval/r beyond r=  1.7165

VLOCAL1: 99.0% of the norm of Vloc inside     14.733 Ry
VLOCAL1: 99.9% of the norm of Vloc inside     33.577 Ry
atom: Maximum radius for 4*pi*r*r*local-pseudopot. charge    2.04484
atom: Maximum radius for r*vlocal+2*Zval:    1.75994
GHOST: No ghost state for L =  0
GHOST: No ghost state for L =  1
GHOST: No ghost state for L =  2
GHOST: No ghost state for L =  3

KBgen: Kleinman-Bylander projectors: 
   l= 0   rc=  1.897051   el= -0.693730   Ekb=  4.595746   kbcos=  0.286105
   l= 1   rc=  1.920920   el= -0.265236   Ekb= -2.350715   kbcos= -0.315747
   l= 2   rc=  2.044840   el=  0.002055   Ekb= -0.690767   kbcos= -0.013822
   l= 3   rc=  2.149707   el=  0.003188   Ekb= -0.315358   kbcos= -0.002055

KBgen: Total number of  Kleinman-Bylander projectors:   16
atom: -------------------------------------------------------------------------

atom: SANKEY-TYPE ORBITALS:
atom: Selected multiple-zeta basis: split     

SPLIT: Orbitals with angular momentum L= 0

SPLIT: Basis orbitals for state 2s

SPLIT: PAO cut-off radius determined from an
SPLIT: energy shift=  0.007350 Ry

   izeta = 1
                 lambda =    1.000000
                     rc =    5.422032
                 energy =   -0.686029
                kinetic =    0.576707
    potential(screened) =   -1.262736
       potential(ionic) =   -3.271094

   izeta = 2
                 rmatch =    4.222573
              splitnorm =    0.150000
                 energy =   -0.602132
                kinetic =    0.858975
    potential(screened) =   -1.461107
       potential(ionic) =   -3.582536

SPLIT: Orbitals with angular momentum L= 1

SPLIT: Basis orbitals for state 2p

SPLIT: PAO cut-off radius determined from an
SPLIT: energy shift=  0.007350 Ry

   izeta = 1
                 lambda =    1.000000
                     rc =    6.790259
                 energy =   -0.258578
                kinetic =    1.481412
    potential(screened) =   -1.739989
       potential(ionic) =   -3.657461

   izeta = 2
                 rmatch =    4.608740
              splitnorm =    0.150000
                 energy =   -0.173757
                kinetic =    2.186690
    potential(screened) =   -2.360447
       potential(ionic) =   -4.464260

POLgen: Perturbative polarization orbital with L=  2

POLgen: Polarization orbital for state 2p

   izeta = 1
                     rc =    6.790259
                 energy =    0.684082
                kinetic =    1.471481
    potential(screened) =   -0.787399
       potential(ionic) =   -2.406985
atom: Total number of Sankey-type orbitals: 13

atm_pop: Valence configuration (for local Pseudopot. screening):
 2s( 2.00)                                                            
 2p( 1.00)                                                            
Vna: chval, zval:    3.00000   3.00000

Vna:  Cut-off radius for the neutral-atom potential:   6.790259
comcore: Pseudo-core radius Rcore=  2.122997

atom: _________________________________________________________________________

<basis_specs>
===============================================================================
C                    Z=   6    Mass=  12.010        Charge= 0.17977+309
Lmxo=1 Lmxkb= 3    BasisType=split      Semic=F
L=0  Nsemic=0  Cnfigmx=2
          n=1  nzeta=2  polorb=0
            splnorm:   0.15000    
               vcte:    0.0000    
               rinn:    0.0000    
                rcs:    0.0000      0.0000    
            lambdas:    1.0000      1.0000    
L=1  Nsemic=0  Cnfigmx=2
          n=1  nzeta=2  polorb=1
            splnorm:   0.15000    
               vcte:    0.0000    
               rinn:    0.0000    
                rcs:    0.0000      0.0000    
            lambdas:    1.0000      1.0000    
-------------------------------------------------------------------------------
L=0  Nkbl=1  erefs: 0.17977+309
L=1  Nkbl=1  erefs: 0.17977+309
L=2  Nkbl=1  erefs: 0.17977+309
L=3  Nkbl=1  erefs: 0.17977+309
===============================================================================
</basis_specs>

atom: Called for C                     (Z =   6)

read_vps: Pseudopotential generation method:
read_vps: ATM3      Troullier-Martins                       
Total valence charge:    4.00000

read_vps: Pseudopotential includes a core correction:
read_vps: Pseudo-core for xc-correction

xc_check: Exchange-correlation functional:
xc_check: GGA Perdew, Burke & Ernzerhof 1996
V l=0 = -2*Zval/r beyond r=  1.5227
V l=1 = -2*Zval/r beyond r=  1.5227
V l=2 = -2*Zval/r beyond r=  1.5227
V l=3 = -2*Zval/r beyond r=  1.5038
All V_l potentials equal beyond r=  1.5227
This should be close to max(r_c) in ps generation
All pots = -2*Zval/r beyond r=  1.5227

VLOCAL1: 99.0% of the norm of Vloc inside     18.722 Ry
VLOCAL1: 99.9% of the norm of Vloc inside     42.668 Ry
atom: Maximum radius for 4*pi*r*r*local-pseudopot. charge    1.83678
atom: Maximum radius for r*vlocal+2*Zval:    1.58088
GHOST: No ghost state for L =  0
GHOST: No ghost state for L =  1
GHOST: No ghost state for L =  2
GHOST: No ghost state for L =  3

KBgen: Kleinman-Bylander projectors: 
   l= 0   rc=  1.704034   el= -1.009801   Ekb=  5.335044   kbcos=  0.316824
   l= 1   rc=  1.704034   el= -0.388707   Ekb= -3.785862   kbcos= -0.366464
   l= 2   rc=  1.791422   el=  0.001971   Ekb= -0.970471   kbcos= -0.009212
   l= 3   rc=  1.859892   el=  0.003065   Ekb= -0.399525   kbcos= -0.001223

KBgen: Total number of  Kleinman-Bylander projectors:   16
atom: -------------------------------------------------------------------------

atom: SANKEY-TYPE ORBITALS:
atom: Selected multiple-zeta basis: split     

SPLIT: Orbitals with angular momentum L= 0

SPLIT: Basis orbitals for state 2s

SPLIT: PAO cut-off radius determined from an
SPLIT: energy shift=  0.007350 Ry

   izeta = 1
                 lambda =    1.000000
                     rc =    4.632753
                 energy =   -1.002270
                kinetic =    0.855760
    potential(screened) =   -1.858031
       potential(ionic) =   -5.417575

   izeta = 2
                 rmatch =    3.431921
              splitnorm =    0.150000
                 energy =   -0.867111
                kinetic =    1.300804
    potential(screened) =   -2.167915
       potential(ionic) =   -5.962684

SPLIT: Orbitals with angular momentum L= 1

SPLIT: Basis orbitals for state 2p

SPLIT: PAO cut-off radius determined from an
SPLIT: energy shift=  0.007350 Ry

   izeta = 1
                 lambda =    1.000000
                     rc =    5.658549
                 energy =   -0.381140
                kinetic =    2.399701
    potential(screened) =   -2.780841
       potential(ionic) =   -6.206085

   izeta = 2
                 rmatch =    3.653288
              splitnorm =    0.150000
                 energy =   -0.249149
                kinetic =    3.542762
    potential(screened) =   -3.791911
       potential(ionic) =   -7.581078

POLgen: Perturbative polarization orbital with L=  2

POLgen: Polarization orbital for state 2p

   izeta = 1
                     rc =    5.658549
                 energy =    1.109913
                kinetic =    2.304789
    potential(screened) =   -1.194876
       potential(ionic) =   -4.013592
atom: Total number of Sankey-type orbitals: 13

atm_pop: Valence configuration (for local Pseudopot. screening):
 2s( 2.00)                                                            
 2p( 2.00)                                                            
Vna: chval, zval:    4.00000   4.00000

Vna:  Cut-off radius for the neutral-atom potential:   5.658549
comcore: Pseudo-core radius Rcore=  1.791422

atom: _________________________________________________________________________

prinput: Basis input ----------------------------------------------------------

PAO.BasisType split     

%block ChemicalSpeciesLabel
    1    5 B                       # Species index, atomic number, species label
    2    6 C                       # Species index, atomic number, species label
%endblock ChemicalSpeciesLabel

%block PAO.Basis                 # Define Basis set
B                     2                    # Species label, number of l-shells
 n=2   0   2                         # n, l, Nzeta 
   5.422      4.223   
   1.000      1.000   
 n=2   1   2 P   1                   # n, l, Nzeta, Polarization, NzetaPol
   6.790      4.609   
   1.000      1.000   
C                     2                    # Species label, number of l-shells
 n=2   0   2                         # n, l, Nzeta 
   4.633      3.432   
   1.000      1.000   
 n=2   1   2 P   1                   # n, l, Nzeta, Polarization, NzetaPol
   5.659      3.653   
   1.000      1.000   
%endblock PAO.Basis

prinput: ----------------------------------------------------------------------

coor:   Atomic-coordinates input format  =     Fractional

siesta: Atomic coordinates (Bohr) and species
siesta:     -0.02582   2.59549   0.00000  1        1
siesta:      9.28770  18.72698   0.00000  1        2
siesta:     -4.68258  10.66124   0.00000  1        3
siesta:     -9.33934  18.72698   0.00000  1        4
siesta:      4.63094  29.48119   0.00000  1        5
siesta:     -0.02582  29.48119   0.00000  1        6
siesta:     -0.02582  34.85847   0.00000  1        7
siesta:     -0.02582   5.28395   0.00000  2        8
siesta:     -2.35420  38.89134   0.00000  2        9
siesta:     -2.35420  41.57980   0.00000  2       10
siesta:      2.30256  38.89134   0.00000  2       11
siesta:      2.30256  41.57980   0.00000  2       12
siesta:      4.63094  34.85847   0.00000  2       13
siesta:      4.63094  37.54693   0.00000  2       14
siesta:      6.95932  30.82560   0.00000  2       15
siesta:      6.95932  33.51406   0.00000  2       16
siesta:      9.28770  26.79272   0.00000  2       17
siesta:      9.28770  29.48119   0.00000  2       18
siesta:     -4.68258  34.85847   0.00000  2       19
siesta:     -4.68258  37.54693   0.00000  2       20
siesta:      2.30256   6.62836   0.00000  2       21
siesta:      2.30256   9.31683   0.00000  2       22
siesta:      4.63094  10.66124   0.00000  2       23
siesta:      4.63094  13.34970   0.00000  2       24
siesta:      6.95932  14.69411   0.00000  2       25
siesta:      6.95932  17.38257   0.00000  2       26
siesta:      9.28770  21.41544   0.00000  2       27
siesta:     11.61608  22.75985   0.00000  2       28
siesta:     11.61608  25.44831   0.00000  2       29
siesta:     -2.35420   6.62836   0.00000  2       30
siesta:     -2.35420   9.31683   0.00000  2       31
siesta:     -0.02582  10.66124   0.00000  2       32
siesta:     -0.02582  13.34970   0.00000  2       33
siesta:      2.30256  14.69411   0.00000  2       34
siesta:      2.30256  17.38257   0.00000  2       35
siesta:      4.63094  18.72698   0.00000  2       36
siesta:      4.63094  21.41544   0.00000  2       37
siesta:      6.95932  22.75985   0.00000  2       38
siesta:      6.95932  25.44831   0.00000  2       39
siesta:     -4.68258  13.34970   0.00000  2       40
siesta:     -2.35420  14.69411   0.00000  2       41
siesta:     -2.35420  17.38257   0.00000  2       42
siesta:     -0.02582  18.72698   0.00000  2       43
siesta:     -0.02582  21.41544   0.00000  2       44
siesta:      2.30256  22.75985   0.00000  2       45
siesta:      2.30256  25.44831   0.00000  2       46
siesta:     -7.01096  14.69411   0.00000  2       47
siesta:     -7.01096  17.38257   0.00000  2       48
siesta:     -4.68258  18.72698   0.00000  2       49
siesta:     -4.68258  21.41544   0.00000  2       50
siesta:     -2.35420  22.75985   0.00000  2       51
siesta:     -2.35420  25.44831   0.00000  2       52
siesta:     -9.33934  21.41544   0.00000  2       53
siesta:     -7.01096  22.75985   0.00000  2       54
siesta:     -7.01096  25.44831   0.00000  2       55
siesta:    -11.66772  22.75985   0.00000  2       56
siesta:    -11.66772  25.44831   0.00000  2       57
siesta:     -9.33934  26.79272   0.00000  2       58
siesta:     -9.33934  29.48119   0.00000  2       59
siesta:      4.63094  26.79272   0.00000  2       60
siesta:     -0.02582  26.79272   0.00000  2       61
siesta:     -4.68258  26.79272   0.00000  2       62
siesta:     -4.68258  29.48119   0.00000  2       63
siesta:      2.30256  30.82560   0.00000  2       64
siesta:      2.30256  33.51406   0.00000  2       65
siesta:     -2.35420  30.82560   0.00000  2       66
siesta:     -2.35420  33.51406   0.00000  2       67
siesta:     -7.01096  30.82560   0.00000  2       68
siesta:     -7.01096  33.51406   0.00000  2       69
siesta:     -0.02582  37.54693   0.00000  2       70
siesta:     -0.02582  42.92421   0.00000  2       71
siesta:     -0.02582  45.61267   0.00000  2       72

siesta: System type = slab      

initatomlists: Number of atoms, orbitals, and projectors:     72   936  1152

siesta: ******************** Simulation parameters ****************************
siesta:
siesta: The following are some of the parameters of the simulation.
siesta: A complete list of the parameters used, including default values,
siesta: can be found in file out.fdf
siesta:
redata: Non-Collinear-spin run           =     F
redata: SpinPolarized (Up/Down) run      =     F
redata: Number of spin components        =     1
redata: Long output                      =     F
redata: Number of Atomic Species         =        2
redata: Charge density info will appear in .RHO file
redata: Write Mulliken Pop.              =     NO
redata: Mesh Cutoff                      =   200.0000  Ry
redata: Net charge of the system         =     0.0000 |e|
redata: Max. number of SCF Iter          =      500
redata: SCF convergence failure will abort job
redata: Performing Pulay mixing using    =    10 iterations
redata: Mix DM in first SCF step ?       =     F
redata: Write Pulay info on disk?        =     F
redata: Discard 1st Pulay DM after  kick =     F
redata: New DM Mixing Weight             =     0.0500
redata: New DM Occupancy tolerance       = 0.000000000001
redata: No kicks to SCF
redata: DM Mixing Weight for Kicks       =     0.5000
redata: DM Tolerance for SCF             =     0.000100
redata: Require Energy convergence for SCF =     F
redata: DM Energy tolerance for SCF      =     0.000100 eV
redata: Require Harris convergence for SCF =     F
redata: DM Harris energy tolerance for SCF =     0.000100 eV
redata: Using Saved Data (generic)   =     F
redata: Use continuation files for DM    =     T
redata: Neglect nonoverlap interactions  =     F
redata: Method of Calculation            =     Diagonalization
redata: Divide and Conquer               =     T
redata: Electronic Temperature           =     0.0019  Ry
redata: Fix the spin of the system       =     F
redata: Dynamics option                  =     Verlet MD run
redata: Initial MD time step             =        1
redata:   Final MD time step             =        1
redata: Length of MD time step           =     1.0000  fs
redata: Initial Temperature of MD run    =     0.0000  K
redata: Perform a MD quench              =     F
redata: ***********************************************************************
Total number of electrons:   281.000000
Total ionic charge:   281.000000

* ProcessorY, Blocksize:    2  24

k-point displ. along   1 input, could be:     0.50    0.00
k-point displ. along   2 input, could be:     0.50    0.00
 Kpoints in:          231 . Kpoints trimmed:          231

siesta: k-grid: Number of k-points =   231
siesta: k-grid: Cutoff (effective) =     5.000 Ang
siesta: k-grid: Supercell and displacements
siesta: k-grid:   21   0   0      0.500
siesta: k-grid:    0  21   0      0.500
siesta: k-grid:    0   0   1      0.000
Naive supercell factors:     2    2    2

superc: Internal auxiliary supercell:     2 x     2 x     2  =       8
superc: Number of atoms, orbitals, and projectors:    576   7488   9216

* Maximum dynamic memory allocated =     4 MB

siesta:                 ==============================
                            Begin MD step =      1
                        ==============================

superc: Internal auxiliary supercell:     2 x     2 x     2  =       8
superc: Number of atoms, orbitals, and projectors:    576   7488   9216

outcell: Unit cell vectors (Ang):
       12.804619    7.392750    0.000000
        0.000000   14.785500    0.000000
        0.000000    0.000000   10.000000

outcell: Cell vector modules (Ang)   :   14.785500   14.785500   10.000000
outcell: Cell angles (23,13,12) (deg):     90.0000     90.0000     60.0000
outcell: Cell volume (Ang**3)        :   1893.2269
New_DM. Step:     1
Initializing Density Matrix...

iodm: Reading Density Matrix from files

InitMesh: MESH =   120 x   120 x    90 =     1296000
InitMesh: Mesh cutoff (required, used) =   200.000   223.865 Ry

* Maximum dynamic memory allocated =   211 MB

stepf: Fermi-Dirac step function

siesta: Program's energy decomposition (eV):
siesta: Ebs     =     -4428.676990
siesta: Eions   =     17506.614093
siesta: Ena     =      4534.357744
siesta: Ekin    =      7845.748435
siesta: Enl     =      -183.350291
siesta: DEna    =      -637.239008
siesta: DUscf   =        71.289435
siesta: DUext   =         0.000000
siesta: Exc     =     -4298.074510
siesta: eta*DQ  =         0.000000
siesta: Emadel  =         0.000000
siesta: Emeta   =         0.000000
siesta: Emolmec =         0.000000
siesta: Ekinion =         0.000000
siesta: Eharris =    -10110.255487
siesta: Etot    =    -10173.882289
siesta: FreeEng =    -10173.882289

siesta: iscf   Eharris(eV)      E_KS(eV)   FreeEng(eV)   dDmax  Ef(eV)
siesta:    1   -10110.2555   -10173.8823   -10173.8823  1.3057 -5.0536
timer: Routine,Calls,Time,% = IterSCF        1    4409.597  99.71
elaps: Routine,Calls,Wall,% = IterSCF        1     551.965  99.70
siesta:    2   -17158.4044    -9333.9858    -9334.0226 85.9832-18.9362
siesta:    3   -10054.2934   -10168.6556   -10168.6919  1.3482 -5.4090
siesta:    4   -10048.4288   -10165.9515   -10166.0001  1.3315 -5.2193
siesta:    5   -10039.4480   -10155.7459   -10155.7817  1.2588 -5.3585
siesta:    6   -10050.5078   -10125.5939   -10125.6383  1.1964 -5.1410
siesta:    7   -10041.2045   -10113.7063   -10113.7452  0.9192 -4.9875
siesta:    8   -10036.2720   -10096.0289   -10096.0686  0.5816 -4.8131
siesta:    9   -10033.5099   -10078.1897   -10078.2333  0.3824 -4.5120
siesta:   10   -10033.0493   -10071.5451   -10071.5787  0.3495 -4.4960
siesta:   11   -10032.0054   -10065.7010   -10065.7371  0.3351 -4.5145
siesta:   12   -10031.4522   -10062.1839   -10062.2330  0.3734 -4.6216
siesta:   13   -10031.3446   -10059.7953   -10059.8701  0.3482 -4.6270
siesta:   14   -10031.1877   -10051.2800   -10051.3505  0.2694 -4.6622
siesta:   15   -10031.1648   -10040.9575   -10041.0238  0.1978 -4.7026
siesta:   16   -10031.0816   -10036.0408   -10036.1248  0.1085 -4.7013
siesta:   17   -10031.0229   -10033.1317   -10033.1934  0.0782 -4.7071
siesta:   18   -10030.9886   -10030.7746   -10030.8382  0.0621 -4.7102
siesta:   19   -10030.9966   -10028.9718   -10029.0446  0.0561 -4.7127
siesta:   20   -10030.9796   -10027.8388   -10027.8992  0.0362 -4.7116
siesta:   21   -10030.9725   -10027.8705   -10027.9381  0.0268 -4.7101
siesta:   22   -10030.9657   -10028.0063   -10028.0767  0.0352 -4.7079
siesta:   23   -10030.9649   -10028.9359   -10029.0053  0.0231 -4.7114
siesta:   24   -10030.9640   -10028.9495   -10029.0183  0.0239 -4.7128
siesta:   25   -10030.9649   -10030.1526   -10030.2217  0.0141 -4.7107
siesta:   26   -10030.9626   -10030.6370   -10030.7042  0.0125 -4.7093
siesta:   27   -10030.9626   -10030.8877   -10030.9564  0.0076 -4.7098
siesta:   28   -10030.9611   -10030.8195   -10030.8879  0.0039 -4.7101
siesta:   29   -10030.9614   -10030.8474   -10030.9171  0.0031 -4.7106
siesta:   30   -10030.9613   -10030.9326   -10031.0019  0.0016 -4.7116
siesta:   31   -10030.9613   -10030.9537   -10031.0231  0.0009 -4.7116
siesta:   32   -10030.9612   -10030.9618   -10031.0312  0.0009 -4.7117
siesta:   33   -10030.9612   -10030.9714   -10031.0409  0.0003 -4.7116
siesta:   34   -10030.9612   -10030.9589   -10031.0283  0.0002 -4.7115
siesta:   35   -10030.9612   -10030.9552   -10031.0247  0.0002 -4.7115
siesta:   36   -10030.9612   -10030.9607   -10031.0302  0.0002 -4.7115
siesta:   37   -10030.9612   -10030.9673   -10031.0368  0.0002 -4.7114
siesta:   38   -10030.9612   -10030.9664   -10031.0359  0.0001 -4.7114
siesta:   39   -10030.9612   -10030.9627   -10031.0322  0.0001 -4.7114

siesta: E_KS(eV) =           -10030.9581

siesta: E_KS - E_eggbox =    -10030.9581

siesta: Atomic forces (eV/Ang):
----------------------------------------
   Tot   -0.234087   -0.022618    0.000000
----------------------------------------
   Max  562.485701
   Res  150.731058    sqrt( Sum f_i^2 / 3N )
----------------------------------------
   Max  562.485701    constrained

Stress-tensor-Voigt (kbar):     -723.35    -2644.37       -0.32       -1.58        0.00        0.00
(Free)E + p*V (eV/cell)    -8704.4136
Target enthalpy (eV/cell)   -10031.0276

siesta: Stress tensor (static) (eV/Ang**3):
        -0.451474   -0.000988    0.000000
        -0.000988   -1.650471    0.000000
         0.000000    0.000000   -0.000202

siesta: Pressure (static):       1122.68261754  kBar

siesta: Stress tensor (total) (eV/Ang**3):
        -0.451474   -0.000988    0.000000
        -0.000988   -1.650471    0.000000
         0.000000    0.000000   -0.000202

siesta: Pressure (total):       1122.68261754  kBar

siesta: Temp_ion =       0.000 K

* Maximum dynamic memory allocated =   228 MB
Computing bands...

siesta: Program's energy decomposition (eV):
siesta: Ebs     =     -4425.808974
siesta: Eions   =     17506.614093
siesta: Ena     =      4534.357744
siesta: Ekin    =      8898.270481
siesta: Enl     =      -959.441778
siesta: DEna    =      -759.091811
siesta: DUscf   =       101.591333
siesta: DUext   =         0.000000
siesta: Exc     =     -4340.030000
siesta: eta*DQ  =         0.000000
siesta: Emadel  =         0.000000
siesta: Emeta   =         0.000000
siesta: Emolmec =         0.000000
siesta: Ekinion =         0.000000
siesta: Eharris =    -10030.961229
siesta: Etot    =    -10030.958124
siesta: FreeEng =    -10031.027608

siesta: Final energy (eV):
siesta:  Band Struct. =   -4425.808974
siesta:       Kinetic =    8898.270481
siesta:       Hartree =   29169.657862
siesta:    Ext. field =       0.000000
siesta:   Exch.-corr. =   -4340.030000
siesta:  Ion-electron =  -66921.187918
siesta:       Ion-ion =   23162.331451
siesta:       Ekinion =       0.000000
siesta:         Total =  -10030.958124

siesta: Atomic forces (eV/Ang):
siesta:      1   -0.499522  308.131388    0.000000
siesta:      2    1.213643   -1.364080    0.000000
siesta:      3  -27.564498  397.670812    0.000000
siesta:      4   -0.994127   -1.185911    0.000000
siesta:      5   -0.553410   -0.035100    0.000000
siesta:      6    0.447265 -310.786432    0.000000
siesta:      7    0.107432  113.717858    0.000000
siesta:      8   -1.631279 -122.788549    0.000000
siesta:      9    2.436599  124.908073    0.000000
siesta:     10  -15.376933 -545.346988    0.000000
siesta:     11   -1.646709  127.792427    0.000000
siesta:     12   17.452488 -549.846536    0.000000
siesta:     13   27.030075    4.873834    0.000000
siesta:     14   32.658801 -548.294840    0.000000
siesta:     15    5.851604    1.703122    0.000000
siesta:     16   -2.716593    1.890023    0.000000
siesta:     17    2.514575    1.328058    0.000000
siesta:     18   -0.673544    1.341463    0.000000
siesta:     19  -26.329845   -0.629481    0.000000
siesta:     20  -33.557188 -399.701275    0.000000
siesta:     21   23.041405  551.175295    0.000000
siesta:     22   -3.530163 -130.688341    0.000000
siesta:     23   34.694442  548.637580    0.000000
siesta:     24   26.741426   -6.739799    0.000000
siesta:     25   -2.291945   -1.498150    0.000000
siesta:     26   -1.388276   -2.790575    0.000000
siesta:     27    3.305615    1.498251    0.000000
siesta:     28   -0.505911    6.662671    0.000000
siesta:     29   -0.431303   -6.240962    0.000000
siesta:     30  -22.850011  550.927146    0.000000
siesta:     31   -3.640369 -121.566026    0.000000
siesta:     32   -3.206813  551.448548    0.000000
siesta:     33    0.153126 -130.934238    0.000000
siesta:     34   20.879556  556.871357    0.000000
siesta:     35   22.162290   -5.487131    0.000000
siesta:     36   -0.297528    2.325307    0.000000
siesta:     37    0.470178   -0.272467    0.000000
siesta:     38   -0.265938    0.316733    0.000000
siesta:     39   -1.029933   -0.815234    0.000000
siesta:     40  -27.185491   -2.489809    0.000000
siesta:     41  -25.393214  556.133079    0.000000
siesta:     42  -21.282056   -6.305308    0.000000
siesta:     43    0.595813  562.485701    0.000000
siesta:     44    0.088375    1.954492    0.000000
siesta:     45   -0.732891   -0.940553    0.000000
siesta:     46   -0.433940   -0.151340    0.000000
siesta:     47    3.017923   -2.040949    0.000000
siesta:     48    0.894128   -2.600085    0.000000
siesta:     49    0.171309    2.263946    0.000000
siesta:     50   -0.480977   -0.720234    0.000000
siesta:     51    0.633300   -0.406971    0.000000
siesta:     52    1.115009   -0.340979    0.000000
siesta:     53   -3.061934    1.557595    0.000000
siesta:     54    0.347583    0.380251    0.000000
siesta:     55    0.447690   -0.636665    0.000000
siesta:     56    0.293886    6.842059    0.000000
siesta:     57    0.366519   -6.725700    0.000000
siesta:     58   -2.189800    1.661413    0.000000
siesta:     59    0.106105    1.364469    0.000000
siesta:     60    0.242976   -3.469564    0.000000
siesta:     61   -0.183720   -3.838531    0.000000
siesta:     62   -0.581246    0.524764    0.000000
siesta:     63    0.569925   -1.094375    0.000000
siesta:     64   19.654995    1.572729    0.000000
siesta:     65   16.084068 -553.364650    0.000000
siesta:     66  -22.276778    1.290514    0.000000
siesta:     67  -17.275662 -556.060489    0.000000
siesta:     68   -1.947083   -0.642867    0.000000
siesta:     69    2.841977    2.583349    0.000000
siesta:     70    5.942834 -544.081081    0.000000
siesta:     71   -0.341697  127.031583    0.000000
siesta:     72   -0.460690 -547.966240    0.000000
siesta: ----------------------------------------
siesta:    Tot   -0.234087   -0.022618    0.000000

siesta: Stress tensor (static) (eV/Ang**3):
siesta:    -0.451474   -0.000988    0.000000
siesta:    -0.000988   -1.650471    0.000000
siesta:     0.000000    0.000000   -0.000202

siesta: Cell volume =       1893.226884 Ang**3

siesta: Pressure (static):
siesta:                Solid            Molecule  Units
siesta:           0.00763169          0.11500803  Ry/Bohr**3
siesta:           0.70071580         10.55964616  eV/Ang**3
siesta:        1122.68261754      16918.60121524  kBar
(Free)E+ p_basis*V_orbitals  =       -9998.078315
(Free)Eharris+ p_basis*V_orbitals  =       -9998.076833

siesta: Electric dipole (a.u.)  =    0.000000    0.000000    0.000000
siesta: Electric dipole (Debye) =    0.000000    0.000000    0.000000

* Maximum dynamic memory allocated : Node    0 =   228 MB
* Maximum dynamic memory allocated : Node    1 =    80 MB
* Maximum dynamic memory allocated : Node    2 =    83 MB
* Maximum dynamic memory allocated : Node    3 =   217 MB
* Maximum dynamic memory allocated : Node    4 =   208 MB
* Maximum dynamic memory allocated : Node    5 =    77 MB
* Maximum dynamic memory allocated : Node    6 =    78 MB
* Maximum dynamic memory allocated : Node    7 =   192 MB

* Maximum memory occured during matrixMtoO                    

timer: CPU execution times:
timer:  Routine       Calls   Time/call    Tot.time        %
timer:  siesta            1  169551.700  169551.700   100.00
timer:  Setup             1       3.813       3.813     0.00
timer:  bands             3     269.638     808.915     0.48
timer:  writewave         1       0.039       0.039     0.00
timer:  KSV_init          1       0.008       0.008     0.00
timer:  IterMD            1  168721.741  168721.741    99.51
timer:  hsparse           1       0.393       0.393     0.00
timer:  overlap           1       5.970       5.970     0.00
timer:  IterSCF          39    4320.895  168514.893    99.39
timer:  kinefsm           2       3.106       6.212     0.00
timer:  nlefsm            2      20.659      41.319     0.02
timer:  DHSCF            40     109.223    4368.938     2.58
timer:  DHSCF1            1       0.991       0.991     0.00
timer:  DHSCF2            1      43.129      43.129     0.03
timer:  REORD           322       0.010       3.107     0.00
timer:  POISON           41       2.245      92.061     0.05
timer:  DHSCF3           40     107.129    4285.152     2.53
timer:  rhoofd           40      21.824     872.979     0.51
timer:  cellXC           40       3.551     142.048     0.08
timer:  vmat             40      52.134    2085.346     1.23
timer:  MolMec            2       0.000       0.000     0.00
timer:  diagon           39    4209.865  164184.753    96.83
timer:  c-eigval       9130       6.683   61013.254    35.99
timer:  c-buildHS      9130       0.119    1082.181     0.64
timer:  cdiag         18139       6.908  125311.971    73.91
timer:  cdiag1        18139       0.427    7752.431     4.57
timer:  cdiag2        18139       1.906   34570.525    20.39
timer:  cdiag3        18139       3.952   71693.896    42.28
timer:  cdiag4        18139       0.203    3686.165     2.17
timer:  c-eigvec       9009       7.320   65948.275    38.90
timer:  c-buildD       9009       4.216   37982.405    22.40
timer:  DHSCF4            1      37.537      37.537     0.02
timer:  dfscf             1      34.994      34.994     0.02
timer:  overfsm           1       0.449       0.449     0.00
timer:  optical           1      16.547      16.547     0.01
  

elaps: ELAPSED times:
elaps:  Routine       Calls   Time/call    Tot.time        %
elaps:  siesta            1   21217.831   21217.831   100.00
elaps:  Setup             1       0.493       0.493     0.00
elaps:  bands             3      34.298     102.894     0.48
elaps:  writewave         1       0.006       0.006     0.00
elaps:  KSV_init          1       0.001       0.001     0.00
elaps:  IterMD            1   21113.757   21113.757    99.51
elaps:  hsparse           1       0.049       0.049     0.00
elaps:  overlap           1       0.977       0.977     0.00
elaps:  IterSCF          39     540.718   21088.000    99.39
elaps:  kinefsm           2       0.506       1.012     0.00
elaps:  nlefsm            2       2.635       5.269     0.02
elaps:  DHSCF            40      13.787     551.481     2.60
elaps:  DHSCF1            1       0.127       0.127     0.00
elaps:  DHSCF2            1       5.392       5.392     0.03
elaps:  REORD           322       0.001       0.432     0.00
elaps:  POISON           41       0.280      11.494     0.05
elaps:  DHSCF3           40      13.403     536.109     2.53
elaps:  rhoofd           40       6.101     244.023     1.15
elaps:  cellXC           40       0.444      17.742     0.08
elaps:  vmat             40       6.522     260.887     1.23
elaps:  MolMec            2       0.000       0.000     0.00
elaps:  diagon           39     526.844   20546.928    96.84
elaps:  c-eigval       9130       0.836    7633.910    35.98
elaps:  c-buildHS      9130       0.016     150.366     0.71
elaps:  cdiag         18139       0.849   15394.608    72.56
elaps:  cdiag1        18139       0.053     959.488     4.52
elaps:  cdiag2        18139       0.238    4325.812    20.39
elaps:  cdiag3        18139       0.495    8981.837    42.33
elaps:  cdiag4        18139       0.026     466.925     2.20
elaps:  c-eigvec       9009       0.891    8028.070    37.84
elaps:  c-buildD       9009       0.553    4977.613    23.46
elaps:  DHSCF4            1       9.564       9.564     0.05
elaps:  dfscf             1       9.057       9.057     0.04
elaps:  overfsm           1       0.058       0.058     0.00
elaps:  optical           1       0.001       0.001     0.00
  
>> End of run:  14-APR-2016  20:38:21
