
#FDF: Opened INPUT_TMP.95087      for input. Unit: 12

fdf-debug              0     # Default value
SystemName     GRP_doping                                                                                                                          
SystemLabel     GRP_doping                                                                                                                          
XML.Write              T     # Default value
Write.XML              T     # Default value
XML.AbortOnErrors              F     # Default value
XML.AbortOnWarnings              F     # Default value
alloc_report_level              0     # Default value
xc.functional     GGA                                                                                                                                 
xc.authors     PBE                                                                                                                                 
MM.Cutoff          30.00000000     Bohr     # Default value
MM.UnitsEnergy     eV     # Default value
MM.UnitsDistance     Ang     # Default value
WriteIonPlotFiles              F     # Default value
Atom.Debug.KB.Generation              F     # Default value
user-basis              F     # Default value
user-basis-netcdf              F     # Default value
ReparametrizePseudos              F     # Default value
Restricted.Radial.Grid              T     # Default value
Rmax.Radial.Grid          0.000000000         # Default value
PAO.BasisSize     DZP                                                                                                                                 
PAO.BasisType     split                                                                                                                               
PAO.SoftDefault              F     # Default value
PAO.SoftInnerRadius         0.9000000000         # Default value
PAO.SoftPotential          40.00000000         # Default value
PAO.SplitNorm         0.1500000000    
PAO.SplitNormH         -1.000000000         # Default value
Number_of_species                        2

%block ChemicalSpeciesLabel                                                    
 1 7 N                                                                         
 2 6 C                                                                         
%endblock ChemicalSpeciesLabel                                                 
 
