Siesta Version:                                        siesta-3.2-pl-3
Architecture  : x86_64-unknown-linux-gnu--unknown
Compiler flags: mpiifort -g -O2 -fPIC -xSSE4.1 -fp-model source -shared-intel 
PARALLEL version

* Running on    8 nodes in parallel
>> Start of run:  27-APR-2016   9:48:18

                           ***********************       
                           *  WELCOME TO SIESTA  *       
                           ***********************       

reinit: Reading from standard input
************************** Dump of input data file ****************************
#(1) General system descriptors
SystemName            GRP_doping    # Descriptive name of the system
SystemLabel           GRP_doping    # Short name for naming files
%include STRUCT.fdf
%include KPT.fdf
%include BASIS.fdf
#%include TS.fdf # for transiesta calculation
#(4) DFT, Grid, SCF
XC.functional         GGA           # LDA or GGA (default = LDA)
XC.authors            PBE           # CA (Ceperley-Aldr) = PZ
                                    #    (Perdew-Zunger) - LDA - Default
                                    # PW92 (Perdew-Wang-92) - LDA
                                    # PBE (Perdew-Burke-Ernzerhof) - GGA
MeshCutoff            200.000000    Ry      # Default: 50.0 Ry ~ 0.444 Bohr
                                    #         100.0 Ry ~ 0.314 Bohr
MaxSCFIterations      500           # Default: 50
DM.MixingWeight       0.05          # Default: 0.25
DM.NumberPulay        10            # Default: 0
DM.PulayOnFile        F             # SystemLabel.P1, SystemLabel.P2
DM.Tolerance          1.d-4         # Default: 1.d-4
DM.UseSaveDM          .true.        # because of the bug
SCFMustConverge       .true.
NeglNonOverlapInt     F             # Default: F
#(5) Eigenvalue problem: order-N or diagonalization
SolutionMethod        Diagon        # or Transiesta
ElectronicTemperature 300.0 K       # Default: 300.0 K
#(6) Molecular dynamics and relaxations
#MD.TypeOfRun          CG            # Type of dynamics:
#MD.VariableCell       F
#MD.NumCGsteps         0           # 0 for single-point / 100 for gopt
#MD.MaxCGDispl         0.2 Bohr      # Default: 0.2 Bohr
#MD.MaxForceTol        0.02 eV/Ang   # Default: 0.04 eV/Ang
#MD.MaxStressTol       1.0 GPa       # Default: 1.0 GPa
# Geometry Constraints
#%block GeometryConstraints
#	position from 1 to 44
#%endblock GeometryConstraints
BandLinesScale   pi/a
%block BandLines
 1   0.00000000  0.00000000  0.00000000
50   0.00000000  0.07809418  0.00000000
50   0.04509075  0.07809242  0.00000000
20   0.00000000  0.00000000  0.00000000
%endblock BandLines
************************** End of input data file *****************************

reinit: -----------------------------------------------------------------------
reinit: System Name: GRP_doping
reinit: -----------------------------------------------------------------------
reinit: System Label: GRP_doping                                                  
reinit: -----------------------------------------------------------------------

initatom: Reading input for the pseudopotentials and atomic orbitals ----------
 Species number:            1  Label: B Atomic number:           5
 Species number:            2  Label: C Atomic number:           6
Ground state valence configuration:   2s02  2p01
Reading pseudopotential information in formatted form from B.psf

Valence configuration for pseudopotential generation:
2s( 2.00) rc: 1.74
2p( 1.00) rc: 1.74
3d( 0.00) rc: 1.74
4f( 0.00) rc: 1.74
Ground state valence configuration:   2s02  2p02
Reading pseudopotential information in formatted form from C.psf

Valence configuration for pseudopotential generation:
2s( 2.00) rc: 1.54
2p( 2.00) rc: 1.54
3d( 0.00) rc: 1.54
4f( 0.00) rc: 1.54
For B, standard SIESTA heuristics set lmxkb to 3
 (one more than the basis l, including polarization orbitals).
Use PS.lmax or PS.KBprojectors blocks to override.
For C, standard SIESTA heuristics set lmxkb to 3
 (one more than the basis l, including polarization orbitals).
Use PS.lmax or PS.KBprojectors blocks to override.

<basis_specs>
===============================================================================
B                    Z=   5    Mass=  10.810        Charge= 0.17977+309
Lmxo=1 Lmxkb= 3    BasisType=split      Semic=F
L=0  Nsemic=0  Cnfigmx=2
          n=1  nzeta=2  polorb=0
            splnorm:   0.15000    
               vcte:    0.0000    
               rinn:    0.0000    
                rcs:    0.0000      0.0000    
            lambdas:    1.0000      1.0000    
L=1  Nsemic=0  Cnfigmx=2
          n=1  nzeta=2  polorb=1
            splnorm:   0.15000    
               vcte:    0.0000    
               rinn:    0.0000    
                rcs:    0.0000      0.0000    
            lambdas:    1.0000      1.0000    
-------------------------------------------------------------------------------
L=0  Nkbl=1  erefs: 0.17977+309
L=1  Nkbl=1  erefs: 0.17977+309
L=2  Nkbl=1  erefs: 0.17977+309
L=3  Nkbl=1  erefs: 0.17977+309
===============================================================================
</basis_specs>

atom: Called for B                     (Z =   5)

read_vps: Pseudopotential generation method:
read_vps: ATM3      Troullier-Martins                       
Total valence charge:    3.00000

read_vps: Pseudopotential includes a core correction:
read_vps: Pseudo-core for xc-correction

xc_check: Exchange-correlation functional:
xc_check: GGA Perdew, Burke & Ernzerhof 1996
V l=0 = -2*Zval/r beyond r=  1.7165
V l=1 = -2*Zval/r beyond r=  1.7165
V l=2 = -2*Zval/r beyond r=  1.7165
V l=3 = -2*Zval/r beyond r=  1.6951
All V_l potentials equal beyond r=  1.7165
This should be close to max(r_c) in ps generation
All pots = -2*Zval/r beyond r=  1.7165

VLOCAL1: 99.0% of the norm of Vloc inside     14.733 Ry
VLOCAL1: 99.9% of the norm of Vloc inside     33.577 Ry
atom: Maximum radius for 4*pi*r*r*local-pseudopot. charge    2.04484
atom: Maximum radius for r*vlocal+2*Zval:    1.75994
GHOST: No ghost state for L =  0
GHOST: No ghost state for L =  1
GHOST: No ghost state for L =  2
GHOST: No ghost state for L =  3

KBgen: Kleinman-Bylander projectors: 
   l= 0   rc=  1.897051   el= -0.693730   Ekb=  4.595746   kbcos=  0.286105
   l= 1   rc=  1.920920   el= -0.265236   Ekb= -2.350715   kbcos= -0.315747
   l= 2   rc=  2.044840   el=  0.002055   Ekb= -0.690767   kbcos= -0.013822
   l= 3   rc=  2.149707   el=  0.003188   Ekb= -0.315358   kbcos= -0.002055

KBgen: Total number of  Kleinman-Bylander projectors:   16
atom: -------------------------------------------------------------------------

atom: SANKEY-TYPE ORBITALS:
atom: Selected multiple-zeta basis: split     

SPLIT: Orbitals with angular momentum L= 0

SPLIT: Basis orbitals for state 2s

SPLIT: PAO cut-off radius determined from an
SPLIT: energy shift=  0.007350 Ry

   izeta = 1
                 lambda =    1.000000
                     rc =    5.422032
                 energy =   -0.686029
                kinetic =    0.576707
    potential(screened) =   -1.262736
       potential(ionic) =   -3.271094

   izeta = 2
                 rmatch =    4.222573
              splitnorm =    0.150000
                 energy =   -0.602132
                kinetic =    0.858975
    potential(screened) =   -1.461107
       potential(ionic) =   -3.582536

SPLIT: Orbitals with angular momentum L= 1

SPLIT: Basis orbitals for state 2p

SPLIT: PAO cut-off radius determined from an
SPLIT: energy shift=  0.007350 Ry

   izeta = 1
                 lambda =    1.000000
                     rc =    6.790259
                 energy =   -0.258578
                kinetic =    1.481412
    potential(screened) =   -1.739989
       potential(ionic) =   -3.657461

   izeta = 2
                 rmatch =    4.608740
              splitnorm =    0.150000
                 energy =   -0.173757
                kinetic =    2.186690
    potential(screened) =   -2.360447
       potential(ionic) =   -4.464260

POLgen: Perturbative polarization orbital with L=  2

POLgen: Polarization orbital for state 2p

   izeta = 1
                     rc =    6.790259
                 energy =    0.684082
                kinetic =    1.471481
    potential(screened) =   -0.787399
       potential(ionic) =   -2.406985
atom: Total number of Sankey-type orbitals: 13

atm_pop: Valence configuration (for local Pseudopot. screening):
 2s( 2.00)                                                            
 2p( 1.00)                                                            
Vna: chval, zval:    3.00000   3.00000

Vna:  Cut-off radius for the neutral-atom potential:   6.790259
comcore: Pseudo-core radius Rcore=  2.122997

atom: _________________________________________________________________________

<basis_specs>
===============================================================================
C                    Z=   6    Mass=  12.010        Charge= 0.17977+309
Lmxo=1 Lmxkb= 3    BasisType=split      Semic=F
L=0  Nsemic=0  Cnfigmx=2
          n=1  nzeta=2  polorb=0
            splnorm:   0.15000    
               vcte:    0.0000    
               rinn:    0.0000    
                rcs:    0.0000      0.0000    
            lambdas:    1.0000      1.0000    
L=1  Nsemic=0  Cnfigmx=2
          n=1  nzeta=2  polorb=1
            splnorm:   0.15000    
               vcte:    0.0000    
               rinn:    0.0000    
                rcs:    0.0000      0.0000    
            lambdas:    1.0000      1.0000    
-------------------------------------------------------------------------------
L=0  Nkbl=1  erefs: 0.17977+309
L=1  Nkbl=1  erefs: 0.17977+309
L=2  Nkbl=1  erefs: 0.17977+309
L=3  Nkbl=1  erefs: 0.17977+309
===============================================================================
</basis_specs>

atom: Called for C                     (Z =   6)

read_vps: Pseudopotential generation method:
read_vps: ATM3      Troullier-Martins                       
Total valence charge:    4.00000

read_vps: Pseudopotential includes a core correction:
read_vps: Pseudo-core for xc-correction

xc_check: Exchange-correlation functional:
xc_check: GGA Perdew, Burke & Ernzerhof 1996
V l=0 = -2*Zval/r beyond r=  1.5227
V l=1 = -2*Zval/r beyond r=  1.5227
V l=2 = -2*Zval/r beyond r=  1.5227
V l=3 = -2*Zval/r beyond r=  1.5038
All V_l potentials equal beyond r=  1.5227
This should be close to max(r_c) in ps generation
All pots = -2*Zval/r beyond r=  1.5227

VLOCAL1: 99.0% of the norm of Vloc inside     18.722 Ry
VLOCAL1: 99.9% of the norm of Vloc inside     42.668 Ry
atom: Maximum radius for 4*pi*r*r*local-pseudopot. charge    1.83678
atom: Maximum radius for r*vlocal+2*Zval:    1.58088
GHOST: No ghost state for L =  0
GHOST: No ghost state for L =  1
GHOST: No ghost state for L =  2
GHOST: No ghost state for L =  3

KBgen: Kleinman-Bylander projectors: 
   l= 0   rc=  1.704034   el= -1.009801   Ekb=  5.335044   kbcos=  0.316824
   l= 1   rc=  1.704034   el= -0.388707   Ekb= -3.785862   kbcos= -0.366464
   l= 2   rc=  1.791422   el=  0.001971   Ekb= -0.970471   kbcos= -0.009212
   l= 3   rc=  1.859892   el=  0.003065   Ekb= -0.399525   kbcos= -0.001223

KBgen: Total number of  Kleinman-Bylander projectors:   16
atom: -------------------------------------------------------------------------

atom: SANKEY-TYPE ORBITALS:
atom: Selected multiple-zeta basis: split     

SPLIT: Orbitals with angular momentum L= 0

SPLIT: Basis orbitals for state 2s

SPLIT: PAO cut-off radius determined from an
SPLIT: energy shift=  0.007350 Ry

   izeta = 1
                 lambda =    1.000000
                     rc =    4.632753
                 energy =   -1.002270
                kinetic =    0.855760
    potential(screened) =   -1.858031
       potential(ionic) =   -5.417575

   izeta = 2
                 rmatch =    3.431921
              splitnorm =    0.150000
                 energy =   -0.867111
                kinetic =    1.300804
    potential(screened) =   -2.167915
       potential(ionic) =   -5.962684

SPLIT: Orbitals with angular momentum L= 1

SPLIT: Basis orbitals for state 2p

SPLIT: PAO cut-off radius determined from an
SPLIT: energy shift=  0.007350 Ry

   izeta = 1
                 lambda =    1.000000
                     rc =    5.658549
                 energy =   -0.381140
                kinetic =    2.399701
    potential(screened) =   -2.780841
       potential(ionic) =   -6.206085

   izeta = 2
                 rmatch =    3.653288
              splitnorm =    0.150000
                 energy =   -0.249149
                kinetic =    3.542762
    potential(screened) =   -3.791911
       potential(ionic) =   -7.581078

POLgen: Perturbative polarization orbital with L=  2

POLgen: Polarization orbital for state 2p

   izeta = 1
                     rc =    5.658549
                 energy =    1.109913
                kinetic =    2.304789
    potential(screened) =   -1.194876
       potential(ionic) =   -4.013592
atom: Total number of Sankey-type orbitals: 13

atm_pop: Valence configuration (for local Pseudopot. screening):
 2s( 2.00)                                                            
 2p( 2.00)                                                            
Vna: chval, zval:    4.00000   4.00000

Vna:  Cut-off radius for the neutral-atom potential:   5.658549
comcore: Pseudo-core radius Rcore=  1.791422

atom: _________________________________________________________________________

prinput: Basis input ----------------------------------------------------------

PAO.BasisType split     

%block ChemicalSpeciesLabel
    1    5 B                       # Species index, atomic number, species label
    2    6 C                       # Species index, atomic number, species label
%endblock ChemicalSpeciesLabel

%block PAO.Basis                 # Define Basis set
B                     2                    # Species label, number of l-shells
 n=2   0   2                         # n, l, Nzeta 
   5.422      4.223   
   1.000      1.000   
 n=2   1   2 P   1                   # n, l, Nzeta, Polarization, NzetaPol
   6.790      4.609   
   1.000      1.000   
C                     2                    # Species label, number of l-shells
 n=2   0   2                         # n, l, Nzeta 
   4.633      3.432   
   1.000      1.000   
 n=2   1   2 P   1                   # n, l, Nzeta, Polarization, NzetaPol
   5.659      3.653   
   1.000      1.000   
%endblock PAO.Basis

prinput: ----------------------------------------------------------------------

coor:   Atomic-coordinates input format  =     Fractional

siesta: Atomic coordinates (Bohr) and species
siesta:     -0.02582   5.28395   0.00000  1        1
siesta:     -2.35420  38.89134   0.00000  1        2
siesta:     -2.35420  41.57980   0.00000  1        3
siesta:      2.30256  38.89134   0.00000  1        4
siesta:      2.30256  41.57980   0.00000  1        5
siesta:      2.30256   6.62836   0.00000  1        6
siesta:      2.30256   9.31683   0.00000  1        7
siesta:     -2.35420   6.62836   0.00000  1        8
siesta:     -2.35420   9.31683   0.00000  1        9
siesta:     -0.02582  10.66124   0.00000  1       10
siesta:     -9.33934  18.72698   0.00000  1       11
siesta:     -9.33934  21.41544   0.00000  1       12
siesta:     -7.01096  22.75985   0.00000  1       13
siesta:     -7.01096  25.44831   0.00000  1       14
siesta:    -11.66772  22.75985   0.00000  1       15
siesta:    -11.66772  25.44831   0.00000  1       16
siesta:     -9.33934  26.79272   0.00000  1       17
siesta:     -9.33934  29.48119   0.00000  1       18
siesta:     -0.02582  37.54693   0.00000  1       19
siesta:     -0.02582  42.92421   0.00000  1       20
siesta:     -0.02582   2.59549   0.00000  2       21
siesta:      4.63094  34.85847   0.00000  2       22
siesta:      4.63094  37.54693   0.00000  2       23
siesta:      6.95932  30.82560   0.00000  2       24
siesta:      6.95932  33.51406   0.00000  2       25
siesta:      9.28770  26.79272   0.00000  2       26
siesta:      9.28770  29.48119   0.00000  2       27
siesta:     -4.68258  34.85847   0.00000  2       28
siesta:     -4.68258  37.54693   0.00000  2       29
siesta:      4.63094  10.66124   0.00000  2       30
siesta:      4.63094  13.34970   0.00000  2       31
siesta:      6.95932  14.69411   0.00000  2       32
siesta:      6.95932  17.38257   0.00000  2       33
siesta:      9.28770  18.72698   0.00000  2       34
siesta:      9.28770  21.41544   0.00000  2       35
siesta:     11.61608  22.75985   0.00000  2       36
siesta:     11.61608  25.44831   0.00000  2       37
siesta:     -0.02582  13.34970   0.00000  2       38
siesta:      2.30256  14.69411   0.00000  2       39
siesta:      2.30256  17.38257   0.00000  2       40
siesta:      4.63094  18.72698   0.00000  2       41
siesta:      4.63094  21.41544   0.00000  2       42
siesta:      6.95932  22.75985   0.00000  2       43
siesta:      6.95932  25.44831   0.00000  2       44
siesta:     -4.68258  10.66124   0.00000  2       45
siesta:     -4.68258  13.34970   0.00000  2       46
siesta:     -2.35420  14.69411   0.00000  2       47
siesta:     -2.35420  17.38257   0.00000  2       48
siesta:     -0.02582  18.72698   0.00000  2       49
siesta:     -0.02582  21.41544   0.00000  2       50
siesta:      2.30256  22.75985   0.00000  2       51
siesta:      2.30256  25.44831   0.00000  2       52
siesta:     -7.01096  14.69411   0.00000  2       53
siesta:     -7.01096  17.38257   0.00000  2       54
siesta:     -4.68258  18.72698   0.00000  2       55
siesta:     -4.68258  21.41544   0.00000  2       56
siesta:     -2.35420  22.75985   0.00000  2       57
siesta:     -2.35420  25.44831   0.00000  2       58
siesta:      4.63094  26.79272   0.00000  2       59
siesta:      4.63094  29.48119   0.00000  2       60
siesta:     -0.02582  26.79272   0.00000  2       61
siesta:     -0.02582  29.48119   0.00000  2       62
siesta:     -4.68258  26.79272   0.00000  2       63
siesta:     -4.68258  29.48119   0.00000  2       64
siesta:      2.30256  30.82560   0.00000  2       65
siesta:      2.30256  33.51406   0.00000  2       66
siesta:     -2.35420  30.82560   0.00000  2       67
siesta:     -2.35420  33.51406   0.00000  2       68
siesta:     -7.01096  30.82560   0.00000  2       69
siesta:     -7.01096  33.51406   0.00000  2       70
siesta:     -0.02582  34.85847   0.00000  2       71
siesta:     -0.02582  45.61267   0.00000  2       72

siesta: System type = slab      

initatomlists: Number of atoms, orbitals, and projectors:     72   936  1152

siesta: ******************** Simulation parameters ****************************
siesta:
siesta: The following are some of the parameters of the simulation.
siesta: A complete list of the parameters used, including default values,
siesta: can be found in file out.fdf
siesta:
redata: Non-Collinear-spin run           =     F
redata: SpinPolarized (Up/Down) run      =     F
redata: Number of spin components        =     1
redata: Long output                      =     F
redata: Number of Atomic Species         =        2
redata: Charge density info will appear in .RHO file
redata: Write Mulliken Pop.              =     NO
redata: Mesh Cutoff                      =   200.0000  Ry
redata: Net charge of the system         =     0.0000 |e|
redata: Max. number of SCF Iter          =      500
redata: SCF convergence failure will abort job
redata: Performing Pulay mixing using    =    10 iterations
redata: Mix DM in first SCF step ?       =     F
redata: Write Pulay info on disk?        =     F
redata: Discard 1st Pulay DM after  kick =     F
redata: New DM Mixing Weight             =     0.0500
redata: New DM Occupancy tolerance       = 0.000000000001
redata: No kicks to SCF
redata: DM Mixing Weight for Kicks       =     0.5000
redata: DM Tolerance for SCF             =     0.000100
redata: Require Energy convergence for SCF =     F
redata: DM Energy tolerance for SCF      =     0.000100 eV
redata: Require Harris convergence for SCF =     F
redata: DM Harris energy tolerance for SCF =     0.000100 eV
redata: Using Saved Data (generic)   =     F
redata: Use continuation files for DM    =     T
redata: Neglect nonoverlap interactions  =     F
redata: Method of Calculation            =     Diagonalization
redata: Divide and Conquer               =     T
redata: Electronic Temperature           =     0.0019  Ry
redata: Fix the spin of the system       =     F
redata: Dynamics option                  =     Verlet MD run
redata: Initial MD time step             =        1
redata:   Final MD time step             =        1
redata: Length of MD time step           =     1.0000  fs
redata: Initial Temperature of MD run    =     0.0000  K
redata: Perform a MD quench              =     F
redata: ***********************************************************************
Total number of electrons:   268.000000
Total ionic charge:   268.000000

* ProcessorY, Blocksize:    2  24

k-point displ. along   1 input, could be:     0.50    0.00
k-point displ. along   2 input, could be:     0.50    0.00
 Kpoints in:          231 . Kpoints trimmed:          231

siesta: k-grid: Number of k-points =   231
siesta: k-grid: Cutoff (effective) =     5.000 Ang
siesta: k-grid: Supercell and displacements
siesta: k-grid:   21   0   0      0.500
siesta: k-grid:    0  21   0      0.500
siesta: k-grid:    0   0   1      0.000
Naive supercell factors:     2    2    2

superc: Internal auxiliary supercell:     2 x     2 x     2  =       8
superc: Number of atoms, orbitals, and projectors:    576   7488   9216

* Maximum dynamic memory allocated =     4 MB

siesta:                 ==============================
                            Begin MD step =      1
                        ==============================

superc: Internal auxiliary supercell:     2 x     2 x     2  =       8
superc: Number of atoms, orbitals, and projectors:    576   7488   9216

outcell: Unit cell vectors (Ang):
       12.804619    7.392750    0.000000
        0.000000   14.785500    0.000000
        0.000000    0.000000   10.000000

outcell: Cell vector modules (Ang)   :   14.785500   14.785500   10.000000
outcell: Cell angles (23,13,12) (deg):     90.0000     90.0000     60.0000
outcell: Cell volume (Ang**3)        :   1893.2269
New_DM. Step:     1
Initializing Density Matrix...

InitMesh: MESH =   120 x   120 x    90 =     1296000
InitMesh: Mesh cutoff (required, used) =   200.000   223.865 Ry

* Maximum dynamic memory allocated =   233 MB

stepf: Fermi-Dirac step function

siesta: Program's energy decomposition (eV):
siesta: Ebs     =     -5485.065434
siesta: Eions   =     15841.876847
siesta: Ena     =      4248.548434
siesta: Ekin    =      5323.417823
siesta: Enl     =       820.025450
siesta: DEna    =        -0.000008
siesta: DUscf   =         0.000000
siesta: DUext   =         0.000000
siesta: Exc     =     -4183.591178
siesta: eta*DQ  =         0.000000
siesta: Emadel  =         0.000000
siesta: Emeta   =         0.000000
siesta: Emolmec =         0.000000
siesta: Ekinion =         0.000000
siesta: Eharris =     -9489.986294
siesta: Etot    =     -9633.476326
siesta: FreeEng =     -9633.476326

siesta: iscf   Eharris(eV)      E_KS(eV)   FreeEng(eV)   dDmax  Ef(eV)
siesta:    1    -9489.9863    -9633.4763    -9633.4763  7.4384 -8.1775
timer: Routine,Calls,Time,% = IterSCF        1    3504.522  99.69
elaps: Routine,Calls,Wall,% = IterSCF        1     438.922  99.69
siesta:    2   -14564.9926    -8561.7071    -8561.7891 11.5595 -6.7209
siesta:    3    -9738.2610    -9392.3085    -9392.3281  1.8011 -4.8841
siesta:    4    -9566.9857    -9381.4514    -9381.5116  1.7743 -4.7300
siesta:    5    -9470.6902    -9365.4542    -9365.5107  1.5279 -4.5934
siesta:    6    -9462.2300    -9344.8288    -9344.8406  1.5486 -4.4672
siesta:    7    -9345.9640    -9278.8943    -9278.9039  0.8714 -4.4968
siesta:    8    -9343.5024    -9278.6971    -9278.7780  0.6476 -4.5844
siesta:    9    -9343.0186    -9278.9170    -9278.9971  0.8023 -4.5051
siesta:   10    -9332.6658    -9284.9807    -9285.0624  0.7523 -4.6591
siesta:   11    -9331.7713    -9288.2566    -9288.3099  0.4128 -4.7441
siesta:   12    -9333.8980    -9296.1673    -9296.2312  0.3895 -4.5527
siesta:   13    -9331.7852    -9298.8316    -9298.9131  0.3241 -4.6765
siesta:   14    -9331.4765    -9305.5746    -9305.6195  0.5989 -4.6805
siesta:   15    -9332.3772    -9315.8882    -9315.8914  0.5870 -4.6816
siesta:   16    -9331.5374    -9320.7078    -9320.7095  0.5698 -4.7271
siesta:   17    -9329.1188    -9325.5671    -9325.5710  0.3640 -4.8909
siesta:   18    -9329.3018    -9324.9616    -9325.0317  0.2813 -4.8773
siesta:   19    -9329.0724    -9325.0698    -9325.1459  0.2057 -4.8917
siesta:   20    -9328.8619    -9325.4209    -9325.5019  0.1916 -4.8853
siesta:   21    -9329.4336    -9326.8203    -9326.8993  0.2888 -4.8306
siesta:   22    -9329.0051    -9327.4056    -9327.4804  0.2538 -4.8540
siesta:   23    -9328.4682    -9328.1361    -9328.2053  0.1842 -4.8663
siesta:   24    -9328.4336    -9327.6856    -9327.7894  0.1617 -4.8684
siesta:   25    -9328.4053    -9327.6891    -9327.7815  0.1485 -4.8753
siesta:   26    -9328.3690    -9327.9278    -9328.0157  0.0601 -4.8836
siesta:   27    -9328.3532    -9327.6980    -9327.7881  0.1007 -4.8796
siesta:   28    -9328.3337    -9326.9360    -9327.0310  0.0920 -4.8805
siesta:   29    -9328.3255    -9326.1985    -9326.2905  0.0556 -4.8705
siesta:   30    -9328.3247    -9325.9501    -9326.0450  0.0537 -4.8712
siesta:   31    -9328.3241    -9325.8435    -9325.9373  0.0353 -4.8697
siesta:   32    -9328.3442    -9326.0847    -9326.1776  0.0755 -4.8686
siesta:   33    -9328.3319    -9326.8771    -9326.9716  0.0204 -4.8925
siesta:   34    -9328.3297    -9327.0532    -9327.1420  0.0233 -4.8943
siesta:   35    -9328.3226    -9327.5438    -9327.6336  0.0085 -4.8938
siesta:   36    -9328.3224    -9327.7220    -9327.8126  0.0091 -4.8938
siesta:   37    -9328.3224    -9327.8171    -9327.9077  0.0049 -4.8927
siesta:   38    -9328.3221    -9327.9607    -9328.0511  0.0025 -4.8911
siesta:   39    -9328.3221    -9327.9901    -9328.0806  0.0026 -4.8909
siesta:   40    -9328.3221    -9328.0712    -9328.1617  0.0023 -4.8903
siesta:   41    -9328.3223    -9328.1993    -9328.2897  0.0022 -4.8903
siesta:   42    -9328.3221    -9328.2773    -9328.3674  0.0021 -4.8904
siesta:   43    -9328.3222    -9328.3182    -9328.4086  0.0015 -4.8902
siesta:   44    -9328.3222    -9328.3165    -9328.4067  0.0011 -4.8904
siesta:   45    -9328.3222    -9328.3233    -9328.4135  0.0014 -4.8904
siesta:   46    -9328.3222    -9328.3330    -9328.4232  0.0011 -4.8903
siesta:   47    -9328.3222    -9328.3440    -9328.4342  0.0009 -4.8902
siesta:   48    -9328.3222    -9328.3183    -9328.4084  0.0006 -4.8901
siesta:   49    -9328.3222    -9328.3138    -9328.4040  0.0008 -4.8901
siesta:   50    -9328.3222    -9328.3190    -9328.4092  0.0004 -4.8900
siesta:   51    -9328.3222    -9328.3133    -9328.4035  0.0001 -4.8901
siesta:   52    -9328.3222    -9328.3136    -9328.4038  0.0001 -4.8901

siesta: E_KS(eV) =            -9328.3107

siesta: E_KS - E_eggbox =     -9328.3107

siesta: Atomic forces (eV/Ang):
----------------------------------------
   Tot   -0.011208   -0.026350    0.000000
----------------------------------------
   Max  571.077448
   Res  137.187343    sqrt( Sum f_i^2 / 3N )
----------------------------------------
   Max  571.077448    constrained

Stress-tensor-Voigt (kbar):     -619.36    -2428.30       -0.60       -0.40        0.00        0.00
(Free)E + p*V (eV/cell)    -8127.7458
Target enthalpy (eV/cell)    -9328.4009

siesta: Stress tensor (static) (eV/Ang**3):
        -0.386569   -0.000253    0.000000
        -0.000253   -1.515609    0.000000
         0.000000    0.000000   -0.000375

siesta: Pressure (static):       1016.08646904  kBar

siesta: Stress tensor (total) (eV/Ang**3):
        -0.386569   -0.000253    0.000000
        -0.000253   -1.515609    0.000000
         0.000000    0.000000   -0.000375

siesta: Pressure (total):       1016.08646904  kBar

siesta: Temp_ion =       0.000 K

* Maximum dynamic memory allocated =   251 MB
Computing bands...

siesta: Program's energy decomposition (eV):
siesta: Ebs     =     -4173.114102
siesta: Eions   =     15841.876847
siesta: Ena     =      4248.548434
siesta: Ekin    =      8052.563375
siesta: Enl     =      -834.313424
siesta: DEna    =      -705.546577
siesta: DUscf   =        91.970309
siesta: DUext   =         0.000000
siesta: Exc     =     -4339.655945
siesta: eta*DQ  =         0.000000
siesta: Emadel  =         0.000000
siesta: Emeta   =         0.000000
siesta: Emolmec =         0.000000
siesta: Ekinion =         0.000000
siesta: Eharris =     -9328.322181
siesta: Etot    =     -9328.310674
siesta: FreeEng =     -9328.400872

siesta: Final energy (eV):
siesta:  Band Struct. =   -4173.114102
siesta:       Kinetic =    8052.563375
siesta:       Hartree =   25773.654211
siesta:    Ext. field =       0.000000
siesta:   Exch.-corr. =   -4339.655945
siesta:  Ion-electron =  -59362.452939
siesta:       Ion-ion =   20547.580624
siesta:       Ekinion =       0.000000
siesta:         Total =   -9328.310674

siesta: Atomic forces (eV/Ang):
siesta:      1    0.271120 -103.000368    0.000000
siesta:      2   -3.547135   99.944295    0.000000
siesta:      3    0.901111 -400.276141    0.000000
siesta:      4    3.523284  100.019117    0.000000
siesta:      5   -1.398423 -399.833414    0.000000
siesta:      6   -1.423851  399.828026    0.000000
siesta:      7    3.517442 -100.017219    0.000000
siesta:      8    0.884811  400.292861    0.000000
siesta:      9   -3.560517  -99.947027    0.000000
siesta:     10    0.066666  299.094762    0.000000
siesta:     11    0.278175   -4.512734    0.000000
siesta:     12   -5.318417   -0.766284    0.000000
siesta:     13    4.578345   -3.796008    0.000000
siesta:     14    4.576766    3.792084    0.000000
siesta:     15   -5.991982   -2.603015    0.000000
siesta:     16   -5.992705    2.603232    0.000000
siesta:     17   -5.319750    0.780962    0.000000
siesta:     18    0.281980    4.506386    0.000000
siesta:     19    0.090895 -299.123919    0.000000
siesta:     20    0.256252  102.995415    0.000000
siesta:     21    0.146758  550.952781    0.000000
siesta:     22   24.832799    1.459949    0.000000
siesta:     23   20.730882 -549.538047    0.000000
siesta:     24    1.662152   -0.152860    0.000000
siesta:     25   -1.590376    3.027302    0.000000
siesta:     26    2.061415    1.816798    0.000000
siesta:     27   -0.570544    0.728778    0.000000
siesta:     28  -24.191988    2.333504    0.000000
siesta:     29  -20.800854 -549.719813    0.000000
siesta:     30   20.718520  549.515429    0.000000
siesta:     31   24.824172   -1.477024    0.000000
siesta:     32   -1.587307   -3.024151    0.000000
siesta:     33    1.651477    0.152604    0.000000
siesta:     34   -0.569755   -0.728240    0.000000
siesta:     35    2.057867   -1.820300    0.000000
siesta:     36   -0.288387    6.480452    0.000000
siesta:     37   -0.293918   -6.478175    0.000000
siesta:     38    0.142455 -126.382297    0.000000
siesta:     39   31.332289  410.470790    0.000000
siesta:     40   19.253457   -4.091266    0.000000
siesta:     41   -1.143177    1.992173    0.000000
siesta:     42    0.760338   -0.367196    0.000000
siesta:     43   -0.518649    0.358780    0.000000
siesta:     44   -0.528055   -0.354498    0.000000
siesta:     45  -20.787341  549.722221    0.000000
siesta:     46  -24.214278   -2.317864    0.000000
siesta:     47  -31.335522  411.154705    0.000000
siesta:     48  -19.650399   -4.173002    0.000000
siesta:     49   -0.208256  571.077448    0.000000
siesta:     50   -0.251914    2.020639    0.000000
siesta:     51   -0.590165    0.237264    0.000000
siesta:     52   -0.589016   -0.237394    0.000000
siesta:     53    1.312940   -2.142587    0.000000
siesta:     54    0.574735   -3.542159    0.000000
siesta:     55    1.501815    2.233385    0.000000
siesta:     56    2.027260   -1.305451    0.000000
siesta:     57    1.444524   -1.407681    0.000000
siesta:     58    1.443399    1.420519    0.000000
siesta:     59    0.776487    0.358861    0.000000
siesta:     60   -1.151847   -1.994710    0.000000
siesta:     61   -0.247161   -2.011051    0.000000
siesta:     62   -0.202656 -571.066194    0.000000
siesta:     63    2.031034    1.306881    0.000000
siesta:     64    1.495554   -2.242540    0.000000
siesta:     65   19.272690    4.089515    0.000000
siesta:     66   31.342531 -410.475544    0.000000
siesta:     67  -19.640435    4.182377    0.000000
siesta:     68  -31.308456 -411.139544    0.000000
siesta:     69    0.584120    3.549379    0.000000
siesta:     70    1.320999    2.153794    0.000000
siesta:     71    0.117564  126.344669    0.000000
siesta:     72    0.154949 -550.958767    0.000000
siesta: ----------------------------------------
siesta:    Tot   -0.011208   -0.026350    0.000000

siesta: Stress tensor (static) (eV/Ang**3):
siesta:    -0.386569   -0.000253    0.000000
siesta:    -0.000253   -1.515609    0.000000
siesta:     0.000000    0.000000   -0.000375

siesta: Cell volume =       1893.226884 Ang**3

siesta: Pressure (static):
siesta:                Solid            Molecule  Units
siesta:           0.00690708          0.10487676  Ry/Bohr**3
siesta:           0.63418444          9.62942777  eV/Ang**3
siesta:        1016.08646904      15428.21092866  kBar
(Free)E+ p_basis*V_orbitals  =       -9291.344186
(Free)Eharris+ p_basis*V_orbitals  =       -9291.352724

siesta: Electric dipole (a.u.)  =    0.000000    0.000000    0.000000
siesta: Electric dipole (Debye) =    0.000000    0.000000    0.000000

* Maximum dynamic memory allocated : Node    0 =   251 MB
* Maximum dynamic memory allocated : Node    1 =    88 MB
* Maximum dynamic memory allocated : Node    2 =    91 MB
* Maximum dynamic memory allocated : Node    3 =   237 MB
* Maximum dynamic memory allocated : Node    4 =   220 MB
* Maximum dynamic memory allocated : Node    5 =    81 MB
* Maximum dynamic memory allocated : Node    6 =    83 MB
* Maximum dynamic memory allocated : Node    7 =   203 MB

* Maximum memory occured during matrixMtoO                    

timer: CPU execution times:
timer:  Routine       Calls   Time/call    Tot.time        %
timer:  siesta            1  180682.937  180682.937   100.00
timer:  Setup             1       2.737       2.737     0.00
timer:  bands             3     243.863     731.589     0.40
timer:  writewave         1       0.024       0.024     0.00
timer:  KSV_init          1       0.000       0.000     0.00
timer:  IterMD            1  179943.415  179943.415    99.59
timer:  hsparse           1       0.518       0.518     0.00
timer:  overlap           1       7.199       7.199     0.00
timer:  IterSCF          52    3456.244  179724.681    99.47
timer:  kinefsm           2       3.743       7.486     0.00
timer:  nlefsm            2      20.345      40.691     0.02
timer:  DHSCF            53     112.855    5981.312     3.31
timer:  DHSCF1            1       0.991       0.991     0.00
timer:  DHSCF2            1      43.545      43.545     0.02
timer:  REORD           426       0.005       2.053     0.00
timer:  POISON           54       0.875      47.255     0.03
timer:  DHSCF3           53     111.226    5894.979     3.26
timer:  rhoofd           53      23.819    1262.415     0.70
timer:  cellXC           53       3.213     170.307     0.09
timer:  vmat             53      52.414    2777.946     1.54
timer:  MolMec            2       0.000       0.000     0.00
timer:  diagon           52    3342.705  173820.658    96.20
timer:  c-eigval      12133       6.030   73163.476    40.49
timer:  c-buildHS     12133       0.052     635.555     0.35
timer:  cdiag         24145       6.186  149360.480    82.66
timer:  cdiag1        24145       0.387    9332.219     5.16
timer:  cdiag2        24145       1.771   42770.217    23.67
timer:  cdiag3        24145       3.727   89988.826    49.80
timer:  cdiag4        24145       0.155    3748.171     2.07
timer:  c-eigvec      12012       6.442   77378.063    42.83
timer:  c-buildD      12012       1.994   23949.289    13.25
timer:  DHSCF4            1      40.805      40.805     0.02
timer:  dfscf             1      38.020      38.020     0.02
timer:  overfsm           1       0.449       0.449     0.00
timer:  optical           1       4.539       4.539     0.00
  

elaps: ELAPSED times:
elaps:  Routine       Calls   Time/call    Tot.time        %
elaps:  siesta            1   22628.374   22628.374   100.00
elaps:  Setup             1       0.343       0.343     0.00
elaps:  bands             3      30.558      91.674     0.41
elaps:  writewave         1       0.002       0.002     0.00
elaps:  KSV_init          1       0.000       0.000     0.00
elaps:  IterMD            1   22535.757   22535.757    99.59
elaps:  hsparse           1       0.066       0.066     0.00
elaps:  overlap           1       0.907       0.907     0.00
elaps:  IterSCF          52     432.853   22508.366    99.47
elaps:  kinefsm           2       0.472       0.944     0.00
elaps:  nlefsm            2       2.701       5.401     0.02
elaps:  DHSCF            53      14.240     754.695     3.34
elaps:  DHSCF1            1       0.126       0.126     0.00
elaps:  DHSCF2            1       5.453       5.453     0.02
elaps:  REORD           426       0.001       0.282     0.00
elaps:  POISON           54       0.110       5.962     0.03
elaps:  DHSCF3           53      13.931     738.318     3.26
elaps:  rhoofd           53       6.810     360.936     1.60
elaps:  cellXC           53       0.402      21.323     0.09
elaps:  vmat             53       6.565     347.922     1.54
elaps:  MolMec            2       0.000       0.000     0.00
elaps:  diagon           52     418.646   21769.568    96.20
elaps:  c-eigval      12133       0.755    9162.664    40.49
elaps:  c-buildHS     12133       0.007      86.288     0.38
elaps:  cdiag         24145       0.768   18549.222    81.97
elaps:  cdiag1        24145       0.049    1179.011     5.21
elaps:  cdiag2        24145       0.222    5357.402    23.68
elaps:  cdiag3        24145       0.467   11284.910    49.87
elaps:  cdiag4        24145       0.019     458.864     2.03
elaps:  c-eigvec      12012       0.794    9539.057    42.16
elaps:  c-buildD      12012       0.262    3149.170    13.92
elaps:  DHSCF4            1      10.684      10.684     0.05
elaps:  dfscf             1      10.118      10.118     0.04
elaps:  overfsm           1       0.059       0.059     0.00
elaps:  optical           1       0.000       0.000     0.00
  
>> End of run:  27-APR-2016  16:05:26
