Siesta Version:                                        siesta-3.2-pl-3
Architecture  : x86_64-unknown-linux-gnu--unknown
Compiler flags: mpiifort -g -O2 -fPIC -xSSE4.1 -fp-model source -shared-intel 
PARALLEL version

* Running on    8 nodes in parallel
>> Start of run:  26-APR-2016  14:28:52

                           ***********************       
                           *  WELCOME TO SIESTA  *       
                           ***********************       

reinit: Reading from standard input
************************** Dump of input data file ****************************
#(1) General system descriptors
SystemName            GRP_doping    # Descriptive name of the system
SystemLabel           GRP_doping    # Short name for naming files
%include STRUCT.fdf
%include KPT.fdf
%include BASIS.fdf
#%include TS.fdf # for transiesta calculation
#(4) DFT, Grid, SCF
XC.functional         GGA           # LDA or GGA (default = LDA)
XC.authors            PBE           # CA (Ceperley-Aldr) = PZ
                                    #    (Perdew-Zunger) - LDA - Default
                                    # PW92 (Perdew-Wang-92) - LDA
                                    # PBE (Perdew-Burke-Ernzerhof) - GGA
MeshCutoff            200.000000    Ry      # Default: 50.0 Ry ~ 0.444 Bohr
                                    #         100.0 Ry ~ 0.314 Bohr
MaxSCFIterations      500           # Default: 50
DM.MixingWeight       0.05          # Default: 0.25
DM.NumberPulay        10            # Default: 0
DM.PulayOnFile        F             # SystemLabel.P1, SystemLabel.P2
DM.Tolerance          1.d-4         # Default: 1.d-4
DM.UseSaveDM          .true.        # because of the bug
SCFMustConverge       .true.
NeglNonOverlapInt     F             # Default: F
#(5) Eigenvalue problem: order-N or diagonalization
SolutionMethod        Diagon        # or Transiesta
ElectronicTemperature 300.0 K       # Default: 300.0 K
#(6) Molecular dynamics and relaxations
#MD.TypeOfRun          CG            # Type of dynamics:
#MD.VariableCell       F
#MD.NumCGsteps         0           # 0 for single-point / 100 for gopt
#MD.MaxCGDispl         0.2 Bohr      # Default: 0.2 Bohr
#MD.MaxForceTol        0.02 eV/Ang   # Default: 0.04 eV/Ang
#MD.MaxStressTol       1.0 GPa       # Default: 1.0 GPa
# Geometry Constraints
#%block GeometryConstraints
#	position from 1 to 44
#%endblock GeometryConstraints
BandLinesScale   pi/a
%block BandLines
 1   0.00000000  0.00000000  0.00000000
50   0.00000000  0.07809418  0.00000000
50   0.04509075  0.07809242  0.00000000
20   0.00000000  0.00000000  0.00000000
%endblock BandLines
************************** End of input data file *****************************

reinit: -----------------------------------------------------------------------
reinit: System Name: GRP_doping
reinit: -----------------------------------------------------------------------
reinit: System Label: GRP_doping                                                  
reinit: -----------------------------------------------------------------------

initatom: Reading input for the pseudopotentials and atomic orbitals ----------
 Species number:            1  Label: N Atomic number:           7
 Species number:            2  Label: C Atomic number:           6
Ground state valence configuration:   2s02  2p03
Reading pseudopotential information in formatted form from N.psf

Valence configuration for pseudopotential generation:
2s( 2.00) rc: 1.48
2p( 3.00) rc: 1.48
3d( 0.00) rc: 1.48
4f( 0.00) rc: 1.48
Ground state valence configuration:   2s02  2p02
Reading pseudopotential information in formatted form from C.psf

Valence configuration for pseudopotential generation:
2s( 2.00) rc: 1.54
2p( 2.00) rc: 1.54
3d( 0.00) rc: 1.54
4f( 0.00) rc: 1.54
For N, standard SIESTA heuristics set lmxkb to 3
 (one more than the basis l, including polarization orbitals).
Use PS.lmax or PS.KBprojectors blocks to override.
For C, standard SIESTA heuristics set lmxkb to 3
 (one more than the basis l, including polarization orbitals).
Use PS.lmax or PS.KBprojectors blocks to override.

<basis_specs>
===============================================================================
N                    Z=   7    Mass=  14.010        Charge= 0.17977+309
Lmxo=1 Lmxkb= 3    BasisType=split      Semic=F
L=0  Nsemic=0  Cnfigmx=2
          n=1  nzeta=2  polorb=0
            splnorm:   0.15000    
               vcte:    0.0000    
               rinn:    0.0000    
                rcs:    0.0000      0.0000    
            lambdas:    1.0000      1.0000    
L=1  Nsemic=0  Cnfigmx=2
          n=1  nzeta=2  polorb=1
            splnorm:   0.15000    
               vcte:    0.0000    
               rinn:    0.0000    
                rcs:    0.0000      0.0000    
            lambdas:    1.0000      1.0000    
-------------------------------------------------------------------------------
L=0  Nkbl=1  erefs: 0.17977+309
L=1  Nkbl=1  erefs: 0.17977+309
L=2  Nkbl=1  erefs: 0.17977+309
L=3  Nkbl=1  erefs: 0.17977+309
===============================================================================
</basis_specs>

atom: Called for N                     (Z =   7)

read_vps: Pseudopotential generation method:
read_vps: ATM3      Troullier-Martins                       
Total valence charge:    5.00000

read_vps: Pseudopotential includes a core correction:
read_vps: Pseudo-core for xc-correction

xc_check: Exchange-correlation functional:
xc_check: GGA Perdew, Burke & Ernzerhof 1996
V l=0 = -2*Zval/r beyond r=  1.4606
V l=1 = -2*Zval/r beyond r=  1.4606
V l=2 = -2*Zval/r beyond r=  1.4606
V l=3 = -2*Zval/r beyond r=  1.4606
All V_l potentials equal beyond r=  1.4606
This should be close to max(r_c) in ps generation
All pots = -2*Zval/r beyond r=  1.4606

VLOCAL1: 99.0% of the norm of Vloc inside     20.347 Ry
VLOCAL1: 99.9% of the norm of Vloc inside     46.372 Ry
atom: Maximum radius for 4*pi*r*r*local-pseudopot. charge    1.76189
atom: Maximum radius for r*vlocal+2*Zval:    1.53550
GHOST: No ghost state for L =  0
GHOST: No ghost state for L =  1
GHOST: No ghost state for L =  2
GHOST: No ghost state for L =  3

KBgen: Kleinman-Bylander projectors: 
   l= 0   rc=  1.634559   el= -1.363963   Ekb=  5.296955   kbcos=  0.335621
   l= 1   rc=  1.614250   el= -0.521451   Ekb= -5.259161   kbcos= -0.433408
   l= 2   rc=  1.718383   el=  0.001991   Ekb= -1.271464   kbcos= -0.007566
   l= 3   rc=  1.761893   el=  0.003093   Ekb= -0.494769   kbcos= -0.001015

KBgen: Total number of  Kleinman-Bylander projectors:   16
atom: -------------------------------------------------------------------------

atom: SANKEY-TYPE ORBITALS:
atom: Selected multiple-zeta basis: split     

SPLIT: Orbitals with angular momentum L= 0

SPLIT: Basis orbitals for state 2s

SPLIT: PAO cut-off radius determined from an
SPLIT: energy shift=  0.007350 Ry

   izeta = 1
                 lambda =    1.000000
                     rc =    4.071465
                 energy =   -1.356470
                kinetic =    1.176977
    potential(screened) =   -2.533447
       potential(ionic) =   -8.057990

   izeta = 2
                 rmatch =    2.905100
              splitnorm =    0.150000
                 energy =   -1.158343
                kinetic =    1.813009
    potential(screened) =   -2.971352
       potential(ionic) =   -8.901931

SPLIT: Orbitals with angular momentum L= 1

SPLIT: Basis orbitals for state 2p

SPLIT: PAO cut-off radius determined from an
SPLIT: energy shift=  0.007350 Ry

   izeta = 1
                 lambda =    1.000000
                     rc =    4.972977
                 energy =   -0.513884
                kinetic =    3.441732
    potential(screened) =   -3.955616
       potential(ionic) =   -9.287901

   izeta = 2
                 rmatch =    3.054066
              splitnorm =    0.150000
                 energy =   -0.318226
                kinetic =    5.125348
    potential(screened) =   -5.443573
       potential(ionic) =  -11.380999

POLgen: Perturbative polarization orbital with L=  2

POLgen: Polarization orbital for state 2p

   izeta = 1
                     rc =    4.972977
                 energy =    1.607437
                kinetic =    3.268125
    potential(screened) =   -1.660688
       potential(ionic) =   -5.973652
atom: Total number of Sankey-type orbitals: 13

atm_pop: Valence configuration (for local Pseudopot. screening):
 2s( 2.00)                                                            
 2p( 3.00)                                                            
Vna: chval, zval:    5.00000   5.00000

Vna:  Cut-off radius for the neutral-atom potential:   4.972977
comcore: Pseudo-core radius Rcore=  1.554824

atom: _________________________________________________________________________

<basis_specs>
===============================================================================
C                    Z=   6    Mass=  12.010        Charge= 0.17977+309
Lmxo=1 Lmxkb= 3    BasisType=split      Semic=F
L=0  Nsemic=0  Cnfigmx=2
          n=1  nzeta=2  polorb=0
            splnorm:   0.15000    
               vcte:    0.0000    
               rinn:    0.0000    
                rcs:    0.0000      0.0000    
            lambdas:    1.0000      1.0000    
L=1  Nsemic=0  Cnfigmx=2
          n=1  nzeta=2  polorb=1
            splnorm:   0.15000    
               vcte:    0.0000    
               rinn:    0.0000    
                rcs:    0.0000      0.0000    
            lambdas:    1.0000      1.0000    
-------------------------------------------------------------------------------
L=0  Nkbl=1  erefs: 0.17977+309
L=1  Nkbl=1  erefs: 0.17977+309
L=2  Nkbl=1  erefs: 0.17977+309
L=3  Nkbl=1  erefs: 0.17977+309
===============================================================================
</basis_specs>

atom: Called for C                     (Z =   6)

read_vps: Pseudopotential generation method:
read_vps: ATM3      Troullier-Martins                       
Total valence charge:    4.00000

read_vps: Pseudopotential includes a core correction:
read_vps: Pseudo-core for xc-correction

xc_check: Exchange-correlation functional:
xc_check: GGA Perdew, Burke & Ernzerhof 1996
V l=0 = -2*Zval/r beyond r=  1.5227
V l=1 = -2*Zval/r beyond r=  1.5227
V l=2 = -2*Zval/r beyond r=  1.5227
V l=3 = -2*Zval/r beyond r=  1.5038
All V_l potentials equal beyond r=  1.5227
This should be close to max(r_c) in ps generation
All pots = -2*Zval/r beyond r=  1.5227

VLOCAL1: 99.0% of the norm of Vloc inside     18.722 Ry
VLOCAL1: 99.9% of the norm of Vloc inside     42.668 Ry
atom: Maximum radius for 4*pi*r*r*local-pseudopot. charge    1.83678
atom: Maximum radius for r*vlocal+2*Zval:    1.58088
GHOST: No ghost state for L =  0
GHOST: No ghost state for L =  1
GHOST: No ghost state for L =  2
GHOST: No ghost state for L =  3

KBgen: Kleinman-Bylander projectors: 
   l= 0   rc=  1.704034   el= -1.009801   Ekb=  5.335044   kbcos=  0.316824
   l= 1   rc=  1.704034   el= -0.388707   Ekb= -3.785862   kbcos= -0.366464
   l= 2   rc=  1.791422   el=  0.001971   Ekb= -0.970471   kbcos= -0.009212
   l= 3   rc=  1.859892   el=  0.003065   Ekb= -0.399525   kbcos= -0.001223

KBgen: Total number of  Kleinman-Bylander projectors:   16
atom: -------------------------------------------------------------------------

atom: SANKEY-TYPE ORBITALS:
atom: Selected multiple-zeta basis: split     

SPLIT: Orbitals with angular momentum L= 0

SPLIT: Basis orbitals for state 2s

SPLIT: PAO cut-off radius determined from an
SPLIT: energy shift=  0.007350 Ry

   izeta = 1
                 lambda =    1.000000
                     rc =    4.632753
                 energy =   -1.002270
                kinetic =    0.855760
    potential(screened) =   -1.858031
       potential(ionic) =   -5.417575

   izeta = 2
                 rmatch =    3.431921
              splitnorm =    0.150000
                 energy =   -0.867111
                kinetic =    1.300804
    potential(screened) =   -2.167915
       potential(ionic) =   -5.962684

SPLIT: Orbitals with angular momentum L= 1

SPLIT: Basis orbitals for state 2p

SPLIT: PAO cut-off radius determined from an
SPLIT: energy shift=  0.007350 Ry

   izeta = 1
                 lambda =    1.000000
                     rc =    5.658549
                 energy =   -0.381140
                kinetic =    2.399701
    potential(screened) =   -2.780841
       potential(ionic) =   -6.206085

   izeta = 2
                 rmatch =    3.653288
              splitnorm =    0.150000
                 energy =   -0.249149
                kinetic =    3.542762
    potential(screened) =   -3.791911
       potential(ionic) =   -7.581078

POLgen: Perturbative polarization orbital with L=  2

POLgen: Polarization orbital for state 2p

   izeta = 1
                     rc =    5.658549
                 energy =    1.109913
                kinetic =    2.304789
    potential(screened) =   -1.194876
       potential(ionic) =   -4.013592
atom: Total number of Sankey-type orbitals: 13

atm_pop: Valence configuration (for local Pseudopot. screening):
 2s( 2.00)                                                            
 2p( 2.00)                                                            
Vna: chval, zval:    4.00000   4.00000

Vna:  Cut-off radius for the neutral-atom potential:   5.658549
comcore: Pseudo-core radius Rcore=  1.791422

atom: _________________________________________________________________________

prinput: Basis input ----------------------------------------------------------

PAO.BasisType split     

%block ChemicalSpeciesLabel
    1    7 N                       # Species index, atomic number, species label
    2    6 C                       # Species index, atomic number, species label
%endblock ChemicalSpeciesLabel

%block PAO.Basis                 # Define Basis set
N                     2                    # Species label, number of l-shells
 n=2   0   2                         # n, l, Nzeta 
   4.071      2.905   
   1.000      1.000   
 n=2   1   2 P   1                   # n, l, Nzeta, Polarization, NzetaPol
   4.973      3.054   
   1.000      1.000   
C                     2                    # Species label, number of l-shells
 n=2   0   2                         # n, l, Nzeta 
   4.633      3.432   
   1.000      1.000   
 n=2   1   2 P   1                   # n, l, Nzeta, Polarization, NzetaPol
   5.659      3.653   
   1.000      1.000   
%endblock PAO.Basis

prinput: ----------------------------------------------------------------------

coor:   Atomic-coordinates input format  =     Fractional

siesta: Atomic coordinates (Bohr) and species
siesta:      4.63094  34.85847   0.00000  1        1
siesta:      4.63094  37.54693   0.00000  1        2
siesta:      6.95932  30.82560   0.00000  1        3
siesta:      6.95932  33.51406   0.00000  1        4
siesta:      9.28770  26.79272   0.00000  1        5
siesta:      9.28770  29.48119   0.00000  1        6
siesta:     11.61608  22.75985   0.00000  1        7
siesta:     11.61608  25.44831   0.00000  1        8
siesta:     -0.02582  13.34970   0.00000  1        9
siesta:      2.30256  14.69411   0.00000  1       10
siesta:      2.30256  17.38257   0.00000  1       11
siesta:      4.63094  18.72698   0.00000  1       12
siesta:      4.63094  21.41544   0.00000  1       13
siesta:      6.95932  22.75985   0.00000  1       14
siesta:      6.95932  25.44831   0.00000  1       15
siesta:     -4.68258  21.41544   0.00000  1       16
siesta:     -2.35420  22.75985   0.00000  1       17
siesta:     -2.35420  25.44831   0.00000  1       18
siesta:     -0.02582  26.79272   0.00000  1       19
siesta:     -0.02582  29.48119   0.00000  1       20
siesta:      2.30256  30.82560   0.00000  1       21
siesta:      2.30256  33.51406   0.00000  1       22
siesta:     -0.02582   2.59549   0.00000  2       23
siesta:     -0.02582   5.28395   0.00000  2       24
siesta:     -2.35420  38.89134   0.00000  2       25
siesta:     -2.35420  41.57980   0.00000  2       26
siesta:      2.30256  38.89134   0.00000  2       27
siesta:      2.30256  41.57980   0.00000  2       28
siesta:     -4.68258  34.85847   0.00000  2       29
siesta:     -4.68258  37.54693   0.00000  2       30
siesta:      2.30256   6.62836   0.00000  2       31
siesta:      2.30256   9.31683   0.00000  2       32
siesta:      4.63094  10.66124   0.00000  2       33
siesta:      4.63094  13.34970   0.00000  2       34
siesta:      6.95932  14.69411   0.00000  2       35
siesta:      6.95932  17.38257   0.00000  2       36
siesta:      9.28770  18.72698   0.00000  2       37
siesta:      9.28770  21.41544   0.00000  2       38
siesta:     -2.35420   6.62836   0.00000  2       39
siesta:     -2.35420   9.31683   0.00000  2       40
siesta:     -0.02582  10.66124   0.00000  2       41
siesta:     -4.68258  10.66124   0.00000  2       42
siesta:     -4.68258  13.34970   0.00000  2       43
siesta:     -2.35420  14.69411   0.00000  2       44
siesta:     -2.35420  17.38257   0.00000  2       45
siesta:     -0.02582  18.72698   0.00000  2       46
siesta:     -0.02582  21.41544   0.00000  2       47
siesta:      2.30256  22.75985   0.00000  2       48
siesta:      2.30256  25.44831   0.00000  2       49
siesta:     -7.01096  14.69411   0.00000  2       50
siesta:     -7.01096  17.38257   0.00000  2       51
siesta:     -4.68258  18.72698   0.00000  2       52
siesta:     -9.33934  18.72698   0.00000  2       53
siesta:     -9.33934  21.41544   0.00000  2       54
siesta:     -7.01096  22.75985   0.00000  2       55
siesta:     -7.01096  25.44831   0.00000  2       56
siesta:    -11.66772  22.75985   0.00000  2       57
siesta:    -11.66772  25.44831   0.00000  2       58
siesta:     -9.33934  26.79272   0.00000  2       59
siesta:     -9.33934  29.48119   0.00000  2       60
siesta:      4.63094  26.79272   0.00000  2       61
siesta:      4.63094  29.48119   0.00000  2       62
siesta:     -4.68258  26.79272   0.00000  2       63
siesta:     -4.68258  29.48119   0.00000  2       64
siesta:     -2.35420  30.82560   0.00000  2       65
siesta:     -2.35420  33.51406   0.00000  2       66
siesta:     -7.01096  30.82560   0.00000  2       67
siesta:     -7.01096  33.51406   0.00000  2       68
siesta:     -0.02582  34.85847   0.00000  2       69
siesta:     -0.02582  37.54693   0.00000  2       70
siesta:     -0.02582  42.92421   0.00000  2       71
siesta:     -0.02582  45.61267   0.00000  2       72

siesta: System type = slab      

initatomlists: Number of atoms, orbitals, and projectors:     72   936  1152

siesta: ******************** Simulation parameters ****************************
siesta:
siesta: The following are some of the parameters of the simulation.
siesta: A complete list of the parameters used, including default values,
siesta: can be found in file out.fdf
siesta:
redata: Non-Collinear-spin run           =     F
redata: SpinPolarized (Up/Down) run      =     F
redata: Number of spin components        =     1
redata: Long output                      =     F
redata: Number of Atomic Species         =        2
redata: Charge density info will appear in .RHO file
redata: Write Mulliken Pop.              =     NO
redata: Mesh Cutoff                      =   200.0000  Ry
redata: Net charge of the system         =     0.0000 |e|
redata: Max. number of SCF Iter          =      500
redata: SCF convergence failure will abort job
redata: Performing Pulay mixing using    =    10 iterations
redata: Mix DM in first SCF step ?       =     F
redata: Write Pulay info on disk?        =     F
redata: Discard 1st Pulay DM after  kick =     F
redata: New DM Mixing Weight             =     0.0500
redata: New DM Occupancy tolerance       = 0.000000000001
redata: No kicks to SCF
redata: DM Mixing Weight for Kicks       =     0.5000
redata: DM Tolerance for SCF             =     0.000100
redata: Require Energy convergence for SCF =     F
redata: DM Energy tolerance for SCF      =     0.000100 eV
redata: Require Harris convergence for SCF =     F
redata: DM Harris energy tolerance for SCF =     0.000100 eV
redata: Using Saved Data (generic)   =     F
redata: Use continuation files for DM    =     T
redata: Neglect nonoverlap interactions  =     F
redata: Method of Calculation            =     Diagonalization
redata: Divide and Conquer               =     T
redata: Electronic Temperature           =     0.0019  Ry
redata: Fix the spin of the system       =     F
redata: Dynamics option                  =     Verlet MD run
redata: Initial MD time step             =        1
redata:   Final MD time step             =        1
redata: Length of MD time step           =     1.0000  fs
redata: Initial Temperature of MD run    =     0.0000  K
redata: Perform a MD quench              =     F
redata: ***********************************************************************
Total number of electrons:   310.000000
Total ionic charge:   310.000000

* ProcessorY, Blocksize:    2  24

k-point displ. along   1 input, could be:     0.50    0.00
k-point displ. along   2 input, could be:     0.50    0.00
 Kpoints in:          231 . Kpoints trimmed:          231

siesta: k-grid: Number of k-points =   231
siesta: k-grid: Cutoff (effective) =     5.000 Ang
siesta: k-grid: Supercell and displacements
siesta: k-grid:   21   0   0      0.500
siesta: k-grid:    0  21   0      0.500
siesta: k-grid:    0   0   1      0.000
Naive supercell factors:     2    2    2

superc: Internal auxiliary supercell:     2 x     2 x     2  =       8
superc: Number of atoms, orbitals, and projectors:    576   7488   9216

* Maximum dynamic memory allocated =     4 MB

siesta:                 ==============================
                            Begin MD step =      1
                        ==============================

superc: Internal auxiliary supercell:     2 x     2 x     2  =       8
superc: Number of atoms, orbitals, and projectors:    576   7488   9216

outcell: Unit cell vectors (Ang):
       12.804619    7.392750    0.000000
        0.000000   14.785500    0.000000
        0.000000    0.000000   10.000000

outcell: Cell vector modules (Ang)   :   14.785500   14.785500   10.000000
outcell: Cell angles (23,13,12) (deg):     90.0000     90.0000     60.0000
outcell: Cell volume (Ang**3)        :   1893.2269
New_DM. Step:     1
Initializing Density Matrix...

InitMesh: MESH =   120 x   120 x    90 =     1296000
InitMesh: Mesh cutoff (required, used) =   200.000   223.865 Ry

* Maximum dynamic memory allocated =   186 MB

stepf: Fermi-Dirac step function

siesta: Program's energy decomposition (eV):
siesta: Ebs     =     -6298.928299
siesta: Eions   =     21939.441643
siesta: Ena     =      4952.655013
siesta: Ekin    =      8224.476411
siesta: Enl     =         4.142310
siesta: DEna    =        -0.000015
siesta: DUscf   =         0.000000
siesta: DUext   =         0.000000
siesta: Exc     =     -4720.700995
siesta: eta*DQ  =         0.000000
siesta: Emadel  =         0.000000
siesta: Emeta   =         0.000000
siesta: Emolmec =         0.000000
siesta: Ekinion =         0.000000
siesta: Eharris =    -13120.846802
siesta: Etot    =    -13478.868919
siesta: FreeEng =    -13478.868919

siesta: iscf   Eharris(eV)      E_KS(eV)   FreeEng(eV)   dDmax  Ef(eV)
siesta:    1   -13120.8468   -13478.8689   -13478.8689  6.0654 -6.9526
timer: Routine,Calls,Time,% = IterSCF        1    3377.973  99.66
elaps: Routine,Calls,Wall,% = IterSCF        1     423.116  99.66
siesta:    2   -18863.9868   -12323.9426   -12323.9842 15.1614 -6.2913
siesta:    3   -13090.0309   -13254.0779   -13254.0836  2.0501 -4.5933
siesta:    4   -13037.2565   -13131.7270   -13131.7403  1.2197 -3.9940
siesta:    5   -12967.1406   -13027.2679   -13027.2924  0.8192 -3.7836
siesta:    6   -12959.7941   -13013.8718   -13013.9441  0.8138 -3.5661
siesta:    7   -12955.3048   -13007.7513   -13007.8106  0.6934 -3.6208
siesta:    8   -12951.4584   -13001.6716   -13001.6910  0.6127 -3.6924
siesta:    9   -12948.4559   -12971.8941   -12971.9279  0.6975 -3.7346
siesta:   10   -12947.5665   -12964.5570   -12964.6167  0.3534 -3.7525
siesta:   11   -12946.8671   -12953.0079   -12953.0531  0.2746 -3.7963
siesta:   12   -12947.1183   -12944.0395   -12944.0774  0.3021 -3.7126
siesta:   13   -12947.5303   -12936.3948   -12936.4703  0.3332 -3.7865
siesta:   14   -12946.6357   -12936.2552   -12936.2652  0.2345 -3.7213
siesta:   15   -12946.4413   -12937.5393   -12937.5798  0.1997 -3.7210
siesta:   16   -12946.1322   -12940.9588   -12941.0069  0.1560 -3.7435
siesta:   17   -12946.0615   -12942.9090   -12942.9780  0.1426 -3.7573
siesta:   18   -12945.9860   -12946.3884   -12946.4478  0.1237 -3.7742
siesta:   19   -12945.9775   -12947.2843   -12947.3463  0.1167 -3.7730
siesta:   20   -12945.9584   -12948.2265   -12948.2819  0.1107 -3.7684
siesta:   21   -12945.9543   -12948.7814   -12948.8406  0.0954 -3.7525
siesta:   22   -12945.9474   -12949.5395   -12949.6070  0.0396 -3.7486
siesta:   23   -12945.9445   -12948.7647   -12948.8271  0.0583 -3.7444
siesta:   24   -12945.9376   -12947.8321   -12947.8916  0.0180 -3.7364
siesta:   25   -12945.9360   -12947.2206   -12947.2837  0.0159 -3.7384
siesta:   26   -12945.9342   -12946.5653   -12946.6275  0.0082 -3.7377
siesta:   27   -12945.9347   -12946.3301   -12946.3936  0.0065 -3.7399
siesta:   28   -12945.9335   -12946.1711   -12946.2338  0.0042 -3.7385
siesta:   29   -12945.9337   -12946.1445   -12946.2082  0.0026 -3.7398
siesta:   30   -12945.9337   -12946.0359   -12946.0994  0.0019 -3.7401
siesta:   31   -12945.9335   -12945.9773   -12946.0407  0.0019 -3.7410
siesta:   32   -12945.9338   -12945.9787   -12946.0422  0.0015 -3.7412
siesta:   33   -12945.9336   -12945.9345   -12945.9977  0.0013 -3.7411
siesta:   34   -12945.9336   -12945.9460   -12946.0094  0.0006 -3.7410
siesta:   35   -12945.9336   -12945.9443   -12946.0076  0.0005 -3.7410
siesta:   36   -12945.9336   -12945.9455   -12946.0088  0.0003 -3.7410
siesta:   37   -12945.9336   -12945.9444   -12946.0078  0.0002 -3.7409
siesta:   38   -12945.9336   -12945.9367   -12946.0001  0.0001 -3.7409
siesta:   39   -12945.9336   -12945.9311   -12945.9945  0.0001 -3.7409

siesta: E_KS(eV) =           -12945.9304

siesta: E_KS - E_eggbox =    -12945.9304

siesta: Atomic forces (eV/Ang):
----------------------------------------
   Tot   -0.192132   -0.166256    0.000000
----------------------------------------
   Max  682.464334
   Res  176.008769    sqrt( Sum f_i^2 / 3N )
----------------------------------------
   Max  682.464334    constrained

Stress-tensor-Voigt (kbar):     -678.93    -3129.34       -0.03       -0.88        0.00        0.00
(Free)E + p*V (eV/cell)   -11445.9703
Target enthalpy (eV/cell)   -12945.9938

siesta: Stress tensor (static) (eV/Ang**3):
        -0.423751   -0.000547    0.000000
        -0.000546   -1.953161    0.000000
         0.000000    0.000000   -0.000020

siesta: Pressure (static):       1269.43503303  kBar

siesta: Stress tensor (total) (eV/Ang**3):
        -0.423751   -0.000547    0.000000
        -0.000546   -1.953161    0.000000
         0.000000    0.000000   -0.000020

siesta: Pressure (total):       1269.43503303  kBar

siesta: Temp_ion =       0.000 K

* Maximum dynamic memory allocated =   203 MB
Computing bands...

siesta: Program's energy decomposition (eV):
siesta: Ebs     =     -5068.090595
siesta: Eions   =     21939.441643
siesta: Ena     =      4952.655013
siesta: Ekin    =     11295.309730
siesta: Enl     =     -1677.595356
siesta: DEna    =      -793.998771
siesta: DUscf   =       111.679483
siesta: DUext   =         0.000000
siesta: Exc     =     -4894.538876
siesta: eta*DQ  =         0.000000
siesta: Emadel  =         0.000000
siesta: Emeta   =         0.000000
siesta: Emolmec =         0.000000
siesta: Ekinion =         0.000000
siesta: Eharris =    -12945.933602
siesta: Etot    =    -12945.930420
siesta: FreeEng =    -12945.993785

siesta: Final energy (eV):
siesta:  Band Struct. =   -5068.090595
siesta:       Kinetic =   11295.309730
siesta:       Hartree =   36048.912459
siesta:    Ext. field =       0.000000
siesta:   Exch.-corr. =   -4894.538876
siesta:  Ion-electron =  -82893.160834
siesta:       Ion-ion =   27497.547101
siesta:       Ekinion =       0.000000
siesta:         Total =  -12945.930420

siesta: Atomic forces (eV/Ang):
siesta:      1   29.678521    8.193360    0.000000
siesta:      2   21.045493 -651.761437    0.000000
siesta:      3   -0.772853   -0.381649    0.000000
siesta:      4    1.356815   -3.968766    0.000000
siesta:      5   -0.325284   -0.325485    0.000000
siesta:      6   -0.079371    0.289181    0.000000
siesta:      7   -2.803513    2.244658    0.000000
siesta:      8   -0.764939   -1.286876    0.000000
siesta:      9   -2.175837 -121.932427    0.000000
siesta:     10    4.768222  672.668119    0.000000
siesta:     11   26.510761   -4.385040    0.000000
siesta:     12    1.622213    3.798917    0.000000
siesta:     13   -1.500150    1.328335    0.000000
siesta:     14    0.253270    0.272236    0.000000
siesta:     15   -1.913990    0.702115    0.000000
siesta:     16   -0.951740   -0.684890    0.000000
siesta:     17    0.610080   -0.892714    0.000000
siesta:     18   -2.290512   -0.093493    0.000000
siesta:     19   -0.616808    2.377520    0.000000
siesta:     20  -17.434919 -682.464334    0.000000
siesta:     21   34.428239   11.483815    0.000000
siesta:     22   -4.789920 -678.835960    0.000000
siesta:     23   13.094554  640.952937    0.000000
siesta:     24    2.706115 -118.349129    0.000000
siesta:     25    1.375519  123.557229    0.000000
siesta:     26    1.245783 -545.591990    0.000000
siesta:     27   -4.665441  122.552568    0.000000
siesta:     28   19.351472 -655.765757    0.000000
siesta:     29  -26.611683    5.394656    0.000000
siesta:     30  -33.861251 -548.790195    0.000000
siesta:     31   35.376352  653.482550    0.000000
siesta:     32   -1.114889 -123.667058    0.000000
siesta:     33   35.832292  656.267154    0.000000
siesta:     34   26.353998  -10.013614    0.000000
siesta:     35   -1.787415    0.506313    0.000000
siesta:     36    1.172373   -1.138821    0.000000
siesta:     37   -0.247532    1.745226    0.000000
siesta:     38    2.565729   -0.905925    0.000000
siesta:     39  -11.280260  547.139343    0.000000
siesta:     40    2.268077 -127.144664    0.000000
siesta:     41    4.453371  539.470682    0.000000
siesta:     42  -34.202778  548.575855    0.000000
siesta:     43  -26.695597   -5.830520    0.000000
siesta:     44  -24.821518  563.815878    0.000000
siesta:     45  -24.803147   -3.487014    0.000000
siesta:     46  -18.559922  575.674266    0.000000
siesta:     47   -0.261687    0.605509    0.000000
siesta:     48    0.048929   -1.381653    0.000000
siesta:     49    1.914712    0.653074    0.000000
siesta:     50    2.996404   -1.690502    0.000000
siesta:     51   -1.889372    0.601939    0.000000
siesta:     52    2.425118    3.407726    0.000000
siesta:     53    1.169035   -0.602917    0.000000
siesta:     54   -0.935467   -2.226114    0.000000
siesta:     55    0.531087    0.833018    0.000000
siesta:     56    0.856248   -1.358953    0.000000
siesta:     57    0.013644    7.281066    0.000000
siesta:     58    0.388963   -7.202193    0.000000
siesta:     59   -1.935199    2.401017    0.000000
siesta:     60    1.451174    0.227011    0.000000
siesta:     61    0.046856    0.097961    0.000000
siesta:     62    1.719546   -1.790949    0.000000
siesta:     63    0.587082    0.763341    0.000000
siesta:     64    1.845825   -3.756759    0.000000
siesta:     65  -25.442005    9.684219    0.000000
siesta:     66  -23.670122 -558.084401    0.000000
siesta:     67   -2.337612    0.001514    0.000000
siesta:     68    3.061853    1.975151    0.000000
siesta:     69   -2.749064  130.684366    0.000000
siesta:     70    3.510769 -546.716314    0.000000
siesta:     71   -0.910214  120.160994    0.000000
siesta:     72   16.373382 -549.528566    0.000000
siesta: ----------------------------------------
siesta:    Tot   -0.192132   -0.166256    0.000000

siesta: Stress tensor (static) (eV/Ang**3):
siesta:    -0.423751   -0.000547    0.000000
siesta:    -0.000546   -1.953161    0.000000
siesta:     0.000000    0.000000   -0.000020

siesta: Cell volume =       1893.226884 Ang**3

siesta: Pressure (static):
siesta:                Solid            Molecule  Units
siesta:           0.00862927          0.13856178  Ry/Bohr**3
siesta:           0.79231046         12.72227168  eV/Ang**3
siesta:        1269.43503303      20383.54674341  kBar
(Free)E+ p_basis*V_orbitals  =      -12918.401367
(Free)Eharris+ p_basis*V_orbitals  =      -12918.403830

siesta: Electric dipole (a.u.)  =    0.000000    0.000000    0.000000
siesta: Electric dipole (Debye) =    0.000000    0.000000    0.000000

* Maximum dynamic memory allocated : Node    0 =   203 MB
* Maximum dynamic memory allocated : Node    1 =    72 MB
* Maximum dynamic memory allocated : Node    2 =    73 MB
* Maximum dynamic memory allocated : Node    3 =   190 MB
* Maximum dynamic memory allocated : Node    4 =   181 MB
* Maximum dynamic memory allocated : Node    5 =    70 MB
* Maximum dynamic memory allocated : Node    6 =    72 MB
* Maximum dynamic memory allocated : Node    7 =   167 MB

* Maximum memory occured during matrixMtoO                    

timer: CPU execution times:
timer:  Routine       Calls   Time/call    Tot.time        %
timer:  siesta            1  129492.304  129492.304   100.00
timer:  Setup             1       3.852       3.852     0.00
timer:  bands             3     244.094     732.281     0.57
timer:  writewave         1       0.043       0.043     0.00
timer:  KSV_init          1       0.007       0.007     0.00
timer:  IterMD            1  128750.931  128750.931    99.43
timer:  hsparse           1       0.282       0.282     0.00
timer:  overlap           1       7.130       7.130     0.01
timer:  IterSCF          39    3297.385  128598.016    99.31
timer:  kinefsm           2       3.672       7.344     0.01
timer:  nlefsm            2      17.197      34.395     0.03
timer:  DHSCF            40      75.036    3001.422     2.32
timer:  DHSCF1            1       0.742       0.742     0.00
timer:  DHSCF2            1      30.909      30.909     0.02
timer:  REORD           322       0.005       1.623     0.00
timer:  POISON           41       0.871      35.692     0.03
timer:  DHSCF3           40      73.529    2941.162     2.27
timer:  rhoofd           40      15.234     609.374     0.47
timer:  cellXC           40       3.257     130.263     0.10
timer:  vmat             40      34.174    1366.960     1.06
timer:  MolMec            2       0.000       0.000     0.00
timer:  diagon           39    3221.244  125628.532    97.02
timer:  c-eigval       9130       6.040   55148.021    42.59
timer:  c-buildHS      9130       0.048     435.779     0.34
timer:  cdiag         18139       6.168  111888.175    86.41
timer:  cdiag1        18139       0.384    6973.115     5.38
timer:  cdiag2        18139       1.768   32066.307    24.76
timer:  cdiag3        18139       3.748   67989.576    52.50
timer:  cdiag4        18139       0.152    2749.619     2.12
timer:  c-eigvec       9009       6.383   57506.189    44.41
timer:  c-buildD       9009       1.516   13661.304    10.55
timer:  DHSCF4            1      27.843      27.843     0.02
timer:  dfscf             1      25.980      25.980     0.02
timer:  overfsm           1       0.376       0.376     0.00
timer:  optical           1       4.607       4.607     0.00
  

elaps: ELAPSED times:
elaps:  Routine       Calls   Time/call    Tot.time        %
elaps:  siesta            1   16217.059   16217.059   100.00
elaps:  Setup             1       0.501       0.501     0.00
elaps:  bands             3      30.588      91.765     0.57
elaps:  writewave         1       0.006       0.006     0.00
elaps:  KSV_init          1       0.001       0.001     0.00
elaps:  IterMD            1   16124.188   16124.188    99.43
elaps:  hsparse           1       0.037       0.037     0.00
elaps:  overlap           1       0.894       0.894     0.01
elaps:  IterSCF          39     412.953   16105.151    99.31
elaps:  kinefsm           2       0.462       0.923     0.01
elaps:  nlefsm            2       2.124       4.247     0.03
elaps:  DHSCF            40       9.494     379.763     2.34
elaps:  DHSCF1            1       0.095       0.095     0.00
elaps:  DHSCF2            1       3.870       3.870     0.02
elaps:  REORD           322       0.001       0.213     0.00
elaps:  POISON           41       0.109       4.480     0.03
elaps:  DHSCF3           40       9.209     368.351     2.27
elaps:  rhoofd           40       4.388     175.539     1.08
elaps:  cellXC           40       0.408      16.307     0.10
elaps:  vmat             40       4.280     171.201     1.06
elaps:  MolMec            2       0.000       0.000     0.00
elaps:  diagon           39     403.402   15732.694    97.01
elaps:  c-eigval       9130       0.756    6906.311    42.59
elaps:  c-buildHS      9130       0.007      60.000     0.37
elaps:  cdiag         18139       0.774   14035.565    86.55
elaps:  cdiag1        18139       0.048     879.678     5.42
elaps:  cdiag2        18139       0.221    4016.588    24.77
elaps:  cdiag3        18139       0.470    8525.998    52.57
elaps:  cdiag4        18139       0.018     335.137     2.07
elaps:  c-eigvec       9009       0.803    7237.275    44.63
elaps:  c-buildD       9009       0.186    1674.666    10.33
elaps:  DHSCF4            1       7.348       7.348     0.05
elaps:  dfscf             1       6.941       6.941     0.04
elaps:  overfsm           1       0.049       0.049     0.00
elaps:  optical           1       0.001       0.001     0.00
  
>> End of run:  26-APR-2016  18:59:09
