Siesta Version:                                        siesta-3.2-pl-3
Architecture  : x86_64-unknown-linux-gnu--unknown
Compiler flags: mpiifort -g -O2 -fPIC -xSSE4.1 -fp-model source -shared-intel 
PARALLEL version

* Running on   12 nodes in parallel
>> Start of run:   6-MAY-2016  20:16:53

                           ***********************       
                           *  WELCOME TO SIESTA  *       
                           ***********************       

reinit: Reading from standard input
************************** Dump of input data file ****************************
#(1) General system descriptors
SystemName            GRP_doping    # Descriptive name of the system
SystemLabel           GRP_doping    # Short name for naming files
%include STRUCT.fdf
%include KPT.fdf
%include BASIS.fdf
#%include TS.fdf # for transiesta calculation
#(4) DFT, Grid, SCF
XC.functional         GGA           # LDA or GGA (default = LDA)
XC.authors            PBE           # CA (Ceperley-Aldr) = PZ
                                    #    (Perdew-Zunger) - LDA - Default
                                    # PW92 (Perdew-Wang-92) - LDA
                                    # PBE (Perdew-Burke-Ernzerhof) - GGA
MeshCutoff            200.000000    Ry      # Default: 50.0 Ry ~ 0.444 Bohr
                                    #         100.0 Ry ~ 0.314 Bohr
MaxSCFIterations      500           # Default: 50
DM.MixingWeight       0.05          # Default: 0.25
DM.NumberPulay        10            # Default: 0
DM.PulayOnFile        F             # SystemLabel.P1, SystemLabel.P2
DM.Tolerance          1.d-4         # Default: 1.d-4
DM.UseSaveDM          .true.        # because of the bug
SCFMustConverge       .true.
NeglNonOverlapInt     F             # Default: F
#(5) Eigenvalue problem: order-N or diagonalization
SolutionMethod        Diagon        # or Transiesta
ElectronicTemperature 300.0 K       # Default: 300.0 K
#(6) Molecular dynamics and relaxations
#MD.TypeOfRun          CG            # Type of dynamics:
#MD.VariableCell       F
#MD.NumCGsteps         0           # 0 for single-point / 100 for gopt
#MD.MaxCGDispl         0.2 Bohr      # Default: 0.2 Bohr
#MD.MaxForceTol        0.02 eV/Ang   # Default: 0.04 eV/Ang
#MD.MaxStressTol       1.0 GPa       # Default: 1.0 GPa
# Geometry Constraints
#%block GeometryConstraints
#	position from 1 to 44
#%endblock GeometryConstraints
BandLinesScale   pi/a
%block BandLines
 1   0.00000000  0.00000000  0.00000000
50   0.00000000  0.07809418  0.00000000
50   0.04509075  0.07809242  0.00000000
20   0.00000000  0.00000000  0.00000000
%endblock BandLines
************************** End of input data file *****************************

reinit: -----------------------------------------------------------------------
reinit: System Name: GRP_doping
reinit: -----------------------------------------------------------------------
reinit: System Label: GRP_doping                                                  
reinit: -----------------------------------------------------------------------

initatom: Reading input for the pseudopotentials and atomic orbitals ----------
 Species number:            1  Label: N Atomic number:           7
 Species number:            2  Label: C Atomic number:           6
Ground state valence configuration:   2s02  2p03
Reading pseudopotential information in formatted form from N.psf

Valence configuration for pseudopotential generation:
2s( 2.00) rc: 1.48
2p( 3.00) rc: 1.48
3d( 0.00) rc: 1.48
4f( 0.00) rc: 1.48
Ground state valence configuration:   2s02  2p02
Reading pseudopotential information in formatted form from C.psf

Valence configuration for pseudopotential generation:
2s( 2.00) rc: 1.54
2p( 2.00) rc: 1.54
3d( 0.00) rc: 1.54
4f( 0.00) rc: 1.54
For N, standard SIESTA heuristics set lmxkb to 3
 (one more than the basis l, including polarization orbitals).
Use PS.lmax or PS.KBprojectors blocks to override.
For C, standard SIESTA heuristics set lmxkb to 3
 (one more than the basis l, including polarization orbitals).
Use PS.lmax or PS.KBprojectors blocks to override.

<basis_specs>
===============================================================================
N                    Z=   7    Mass=  14.010        Charge= 0.17977+309
Lmxo=1 Lmxkb= 3    BasisType=split      Semic=F
L=0  Nsemic=0  Cnfigmx=2
          n=1  nzeta=2  polorb=0
            splnorm:   0.15000    
               vcte:    0.0000    
               rinn:    0.0000    
                rcs:    0.0000      0.0000    
            lambdas:    1.0000      1.0000    
L=1  Nsemic=0  Cnfigmx=2
          n=1  nzeta=2  polorb=1
            splnorm:   0.15000    
               vcte:    0.0000    
               rinn:    0.0000    
                rcs:    0.0000      0.0000    
            lambdas:    1.0000      1.0000    
-------------------------------------------------------------------------------
L=0  Nkbl=1  erefs: 0.17977+309
L=1  Nkbl=1  erefs: 0.17977+309
L=2  Nkbl=1  erefs: 0.17977+309
L=3  Nkbl=1  erefs: 0.17977+309
===============================================================================
</basis_specs>

atom: Called for N                     (Z =   7)

read_vps: Pseudopotential generation method:
read_vps: ATM3      Troullier-Martins                       
Total valence charge:    5.00000

read_vps: Pseudopotential includes a core correction:
read_vps: Pseudo-core for xc-correction

xc_check: Exchange-correlation functional:
xc_check: GGA Perdew, Burke & Ernzerhof 1996
V l=0 = -2*Zval/r beyond r=  1.4606
V l=1 = -2*Zval/r beyond r=  1.4606
V l=2 = -2*Zval/r beyond r=  1.4606
V l=3 = -2*Zval/r beyond r=  1.4606
All V_l potentials equal beyond r=  1.4606
This should be close to max(r_c) in ps generation
All pots = -2*Zval/r beyond r=  1.4606

VLOCAL1: 99.0% of the norm of Vloc inside     20.347 Ry
VLOCAL1: 99.9% of the norm of Vloc inside     46.372 Ry
atom: Maximum radius for 4*pi*r*r*local-pseudopot. charge    1.76189
atom: Maximum radius for r*vlocal+2*Zval:    1.53550
GHOST: No ghost state for L =  0
GHOST: No ghost state for L =  1
GHOST: No ghost state for L =  2
GHOST: No ghost state for L =  3

KBgen: Kleinman-Bylander projectors: 
   l= 0   rc=  1.634559   el= -1.363963   Ekb=  5.296955   kbcos=  0.335621
   l= 1   rc=  1.614250   el= -0.521451   Ekb= -5.259161   kbcos= -0.433408
   l= 2   rc=  1.718383   el=  0.001991   Ekb= -1.271464   kbcos= -0.007566
   l= 3   rc=  1.761893   el=  0.003093   Ekb= -0.494769   kbcos= -0.001015

KBgen: Total number of  Kleinman-Bylander projectors:   16
atom: -------------------------------------------------------------------------

atom: SANKEY-TYPE ORBITALS:
atom: Selected multiple-zeta basis: split     

SPLIT: Orbitals with angular momentum L= 0

SPLIT: Basis orbitals for state 2s

SPLIT: PAO cut-off radius determined from an
SPLIT: energy shift=  0.007350 Ry

   izeta = 1
                 lambda =    1.000000
                     rc =    4.071465
                 energy =   -1.356470
                kinetic =    1.176977
    potential(screened) =   -2.533447
       potential(ionic) =   -8.057990

   izeta = 2
                 rmatch =    2.905100
              splitnorm =    0.150000
                 energy =   -1.158343
                kinetic =    1.813009
    potential(screened) =   -2.971352
       potential(ionic) =   -8.901931

SPLIT: Orbitals with angular momentum L= 1

SPLIT: Basis orbitals for state 2p

SPLIT: PAO cut-off radius determined from an
SPLIT: energy shift=  0.007350 Ry

   izeta = 1
                 lambda =    1.000000
                     rc =    4.972977
                 energy =   -0.513884
                kinetic =    3.441732
    potential(screened) =   -3.955616
       potential(ionic) =   -9.287901

   izeta = 2
                 rmatch =    3.054066
              splitnorm =    0.150000
                 energy =   -0.318226
                kinetic =    5.125348
    potential(screened) =   -5.443573
       potential(ionic) =  -11.380999

POLgen: Perturbative polarization orbital with L=  2

POLgen: Polarization orbital for state 2p

   izeta = 1
                     rc =    4.972977
                 energy =    1.607437
                kinetic =    3.268125
    potential(screened) =   -1.660688
       potential(ionic) =   -5.973652
atom: Total number of Sankey-type orbitals: 13

atm_pop: Valence configuration (for local Pseudopot. screening):
 2s( 2.00)                                                            
 2p( 3.00)                                                            
Vna: chval, zval:    5.00000   5.00000

Vna:  Cut-off radius for the neutral-atom potential:   4.972977
comcore: Pseudo-core radius Rcore=  1.554824

atom: _________________________________________________________________________

<basis_specs>
===============================================================================
C                    Z=   6    Mass=  12.010        Charge= 0.17977+309
Lmxo=1 Lmxkb= 3    BasisType=split      Semic=F
L=0  Nsemic=0  Cnfigmx=2
          n=1  nzeta=2  polorb=0
            splnorm:   0.15000    
               vcte:    0.0000    
               rinn:    0.0000    
                rcs:    0.0000      0.0000    
            lambdas:    1.0000      1.0000    
L=1  Nsemic=0  Cnfigmx=2
          n=1  nzeta=2  polorb=1
            splnorm:   0.15000    
               vcte:    0.0000    
               rinn:    0.0000    
                rcs:    0.0000      0.0000    
            lambdas:    1.0000      1.0000    
-------------------------------------------------------------------------------
L=0  Nkbl=1  erefs: 0.17977+309
L=1  Nkbl=1  erefs: 0.17977+309
L=2  Nkbl=1  erefs: 0.17977+309
L=3  Nkbl=1  erefs: 0.17977+309
===============================================================================
</basis_specs>

atom: Called for C                     (Z =   6)

read_vps: Pseudopotential generation method:
read_vps: ATM3      Troullier-Martins                       
Total valence charge:    4.00000

read_vps: Pseudopotential includes a core correction:
read_vps: Pseudo-core for xc-correction

xc_check: Exchange-correlation functional:
xc_check: GGA Perdew, Burke & Ernzerhof 1996
V l=0 = -2*Zval/r beyond r=  1.5227
V l=1 = -2*Zval/r beyond r=  1.5227
V l=2 = -2*Zval/r beyond r=  1.5227
V l=3 = -2*Zval/r beyond r=  1.5038
All V_l potentials equal beyond r=  1.5227
This should be close to max(r_c) in ps generation
All pots = -2*Zval/r beyond r=  1.5227

VLOCAL1: 99.0% of the norm of Vloc inside     18.722 Ry
VLOCAL1: 99.9% of the norm of Vloc inside     42.668 Ry
atom: Maximum radius for 4*pi*r*r*local-pseudopot. charge    1.83678
atom: Maximum radius for r*vlocal+2*Zval:    1.58088
GHOST: No ghost state for L =  0
GHOST: No ghost state for L =  1
GHOST: No ghost state for L =  2
GHOST: No ghost state for L =  3

KBgen: Kleinman-Bylander projectors: 
   l= 0   rc=  1.704034   el= -1.009801   Ekb=  5.335044   kbcos=  0.316824
   l= 1   rc=  1.704034   el= -0.388707   Ekb= -3.785862   kbcos= -0.366464
   l= 2   rc=  1.791422   el=  0.001971   Ekb= -0.970471   kbcos= -0.009212
   l= 3   rc=  1.859892   el=  0.003065   Ekb= -0.399525   kbcos= -0.001223

KBgen: Total number of  Kleinman-Bylander projectors:   16
atom: -------------------------------------------------------------------------

atom: SANKEY-TYPE ORBITALS:
atom: Selected multiple-zeta basis: split     

SPLIT: Orbitals with angular momentum L= 0

SPLIT: Basis orbitals for state 2s

SPLIT: PAO cut-off radius determined from an
SPLIT: energy shift=  0.007350 Ry

   izeta = 1
                 lambda =    1.000000
                     rc =    4.632753
                 energy =   -1.002270
                kinetic =    0.855760
    potential(screened) =   -1.858031
       potential(ionic) =   -5.417575

   izeta = 2
                 rmatch =    3.431921
              splitnorm =    0.150000
                 energy =   -0.867111
                kinetic =    1.300804
    potential(screened) =   -2.167915
       potential(ionic) =   -5.962684

SPLIT: Orbitals with angular momentum L= 1

SPLIT: Basis orbitals for state 2p

SPLIT: PAO cut-off radius determined from an
SPLIT: energy shift=  0.007350 Ry

   izeta = 1
                 lambda =    1.000000
                     rc =    5.658549
                 energy =   -0.381140
                kinetic =    2.399701
    potential(screened) =   -2.780841
       potential(ionic) =   -6.206085

   izeta = 2
                 rmatch =    3.653288
              splitnorm =    0.150000
                 energy =   -0.249149
                kinetic =    3.542762
    potential(screened) =   -3.791911
       potential(ionic) =   -7.581078

POLgen: Perturbative polarization orbital with L=  2

POLgen: Polarization orbital for state 2p

   izeta = 1
                     rc =    5.658549
                 energy =    1.109913
                kinetic =    2.304789
    potential(screened) =   -1.194876
       potential(ionic) =   -4.013592
atom: Total number of Sankey-type orbitals: 13

atm_pop: Valence configuration (for local Pseudopot. screening):
 2s( 2.00)                                                            
 2p( 2.00)                                                            
Vna: chval, zval:    4.00000   4.00000

Vna:  Cut-off radius for the neutral-atom potential:   5.658549
comcore: Pseudo-core radius Rcore=  1.791422

atom: _________________________________________________________________________

prinput: Basis input ----------------------------------------------------------

PAO.BasisType split     

%block ChemicalSpeciesLabel
    1    7 N                       # Species index, atomic number, species label
    2    6 C                       # Species index, atomic number, species label
%endblock ChemicalSpeciesLabel

%block PAO.Basis                 # Define Basis set
N                     2                    # Species label, number of l-shells
 n=2   0   2                         # n, l, Nzeta 
   4.071      2.905   
   1.000      1.000   
 n=2   1   2 P   1                   # n, l, Nzeta, Polarization, NzetaPol
   4.973      3.054   
   1.000      1.000   
C                     2                    # Species label, number of l-shells
 n=2   0   2                         # n, l, Nzeta 
   4.633      3.432   
   1.000      1.000   
 n=2   1   2 P   1                   # n, l, Nzeta, Polarization, NzetaPol
   5.659      3.653   
   1.000      1.000   
%endblock PAO.Basis

prinput: ----------------------------------------------------------------------

coor:   Atomic-coordinates input format  =     Fractional

siesta: Atomic coordinates (Bohr) and species
siesta:      6.95932  17.38257   0.00000  1        1
siesta:      9.28770  18.72698   0.00000  1        2
siesta:      9.28770  21.41544   0.00000  1        3
siesta:      4.63094  18.72698   0.00000  1        4
siesta:      4.63094  21.41544   0.00000  1        5
siesta:      6.95932  22.75985   0.00000  1        6
siesta:      6.95932  25.44831   0.00000  1        7
siesta:     -2.35420  14.69411   0.00000  1        8
siesta:     -2.35420  17.38257   0.00000  1        9
siesta:     -0.02582  18.72698   0.00000  1       10
siesta:     -0.02582  21.41544   0.00000  1       11
siesta:      2.30256  22.75985   0.00000  1       12
siesta:      2.30256  25.44831   0.00000  1       13
siesta:      4.63094  26.79272   0.00000  1       14
siesta:      4.63094  29.48119   0.00000  1       15
siesta:     -0.02582   2.59549   0.00000  2       16
siesta:     -0.02582   5.28395   0.00000  2       17
siesta:     -2.35420  38.89134   0.00000  2       18
siesta:     -2.35420  41.57980   0.00000  2       19
siesta:      2.30256  38.89134   0.00000  2       20
siesta:      2.30256  41.57980   0.00000  2       21
siesta:      4.63094  34.85847   0.00000  2       22
siesta:      4.63094  37.54693   0.00000  2       23
siesta:      6.95932  30.82560   0.00000  2       24
siesta:      6.95932  33.51406   0.00000  2       25
siesta:      9.28770  26.79272   0.00000  2       26
siesta:      9.28770  29.48119   0.00000  2       27
siesta:     -4.68258  34.85847   0.00000  2       28
siesta:     -4.68258  37.54693   0.00000  2       29
siesta:      2.30256   6.62836   0.00000  2       30
siesta:      2.30256   9.31683   0.00000  2       31
siesta:      4.63094  10.66124   0.00000  2       32
siesta:      4.63094  13.34970   0.00000  2       33
siesta:      6.95932  14.69411   0.00000  2       34
siesta:     11.61608  22.75985   0.00000  2       35
siesta:     11.61608  25.44831   0.00000  2       36
siesta:     -2.35420   6.62836   0.00000  2       37
siesta:     -2.35420   9.31683   0.00000  2       38
siesta:     -0.02582  10.66124   0.00000  2       39
siesta:     -0.02582  13.34970   0.00000  2       40
siesta:      2.30256  14.69411   0.00000  2       41
siesta:      2.30256  17.38257   0.00000  2       42
siesta:     -4.68258  10.66124   0.00000  2       43
siesta:     -4.68258  13.34970   0.00000  2       44
siesta:     -7.01096  14.69411   0.00000  2       45
siesta:     -7.01096  17.38257   0.00000  2       46
siesta:     -4.68258  18.72698   0.00000  2       47
siesta:     -4.68258  21.41544   0.00000  2       48
siesta:     -2.35420  22.75985   0.00000  2       49
siesta:     -2.35420  25.44831   0.00000  2       50
siesta:     -9.33934  18.72698   0.00000  2       51
siesta:     -9.33934  21.41544   0.00000  2       52
siesta:     -7.01096  22.75985   0.00000  2       53
siesta:     -7.01096  25.44831   0.00000  2       54
siesta:    -11.66772  22.75985   0.00000  2       55
siesta:    -11.66772  25.44831   0.00000  2       56
siesta:     -9.33934  26.79272   0.00000  2       57
siesta:     -9.33934  29.48119   0.00000  2       58
siesta:     -0.02582  26.79272   0.00000  2       59
siesta:     -0.02582  29.48119   0.00000  2       60
siesta:     -4.68258  26.79272   0.00000  2       61
siesta:     -4.68258  29.48119   0.00000  2       62
siesta:      2.30256  30.82560   0.00000  2       63
siesta:      2.30256  33.51406   0.00000  2       64
siesta:     -2.35420  30.82560   0.00000  2       65
siesta:     -2.35420  33.51406   0.00000  2       66
siesta:     -7.01096  30.82560   0.00000  2       67
siesta:     -7.01096  33.51406   0.00000  2       68
siesta:     -0.02582  34.85847   0.00000  2       69
siesta:     -0.02582  37.54693   0.00000  2       70
siesta:     -0.02582  42.92421   0.00000  2       71
siesta:     -0.02582  45.61267   0.00000  2       72

siesta: System type = slab      

initatomlists: Number of atoms, orbitals, and projectors:     72   936  1152

siesta: ******************** Simulation parameters ****************************
siesta:
siesta: The following are some of the parameters of the simulation.
siesta: A complete list of the parameters used, including default values,
siesta: can be found in file out.fdf
siesta:
redata: Non-Collinear-spin run           =     F
redata: SpinPolarized (Up/Down) run      =     F
redata: Number of spin components        =     1
redata: Long output                      =     F
redata: Number of Atomic Species         =        2
redata: Charge density info will appear in .RHO file
redata: Write Mulliken Pop.              =     NO
redata: Mesh Cutoff                      =   200.0000  Ry
redata: Net charge of the system         =     0.0000 |e|
redata: Max. number of SCF Iter          =      500
redata: SCF convergence failure will abort job
redata: Performing Pulay mixing using    =    10 iterations
redata: Mix DM in first SCF step ?       =     F
redata: Write Pulay info on disk?        =     F
redata: Discard 1st Pulay DM after  kick =     F
redata: New DM Mixing Weight             =     0.0500
redata: New DM Occupancy tolerance       = 0.000000000001
redata: No kicks to SCF
redata: DM Mixing Weight for Kicks       =     0.5000
redata: DM Tolerance for SCF             =     0.000100
redata: Require Energy convergence for SCF =     F
redata: DM Energy tolerance for SCF      =     0.000100 eV
redata: Require Harris convergence for SCF =     F
redata: DM Harris energy tolerance for SCF =     0.000100 eV
redata: Using Saved Data (generic)   =     F
redata: Use continuation files for DM    =     T
redata: Neglect nonoverlap interactions  =     F
redata: Method of Calculation            =     Diagonalization
redata: Divide and Conquer               =     T
redata: Electronic Temperature           =     0.0019  Ry
redata: Fix the spin of the system       =     F
redata: Dynamics option                  =     Verlet MD run
redata: Initial MD time step             =        1
redata:   Final MD time step             =        1
redata: Length of MD time step           =     1.0000  fs
redata: Initial Temperature of MD run    =     0.0000  K
redata: Perform a MD quench              =     F
redata: ***********************************************************************
Total number of electrons:   303.000000
Total ionic charge:   303.000000

* ProcessorY, Blocksize:    3  24

k-point displ. along   1 input, could be:     0.50    0.00
k-point displ. along   2 input, could be:     0.50    0.00
 Kpoints in:          231 . Kpoints trimmed:          231

siesta: k-grid: Number of k-points =   231
siesta: k-grid: Cutoff (effective) =     5.000 Ang
siesta: k-grid: Supercell and displacements
siesta: k-grid:   21   0   0      0.500
siesta: k-grid:    0  21   0      0.500
siesta: k-grid:    0   0   1      0.000
Naive supercell factors:     2    2    2

superc: Internal auxiliary supercell:     2 x     2 x     2  =       8
superc: Number of atoms, orbitals, and projectors:    576   7488   9216

* Maximum dynamic memory allocated =     4 MB

siesta:                 ==============================
                            Begin MD step =      1
                        ==============================

superc: Internal auxiliary supercell:     2 x     2 x     2  =       8
superc: Number of atoms, orbitals, and projectors:    576   7488   9216

outcell: Unit cell vectors (Ang):
       12.804619    7.392750    0.000000
        0.000000   14.785500    0.000000
        0.000000    0.000000   10.000000

outcell: Cell vector modules (Ang)   :   14.785500   14.785500   10.000000
outcell: Cell angles (23,13,12) (deg):     90.0000     90.0000     60.0000
outcell: Cell volume (Ang**3)        :   1893.2269
New_DM. Step:     1
Initializing Density Matrix...

InitMesh: MESH =   120 x   120 x    90 =     1296000
InitMesh: Mesh cutoff (required, used) =   200.000   223.865 Ry

* Maximum dynamic memory allocated =   137 MB

stepf: Fermi-Dirac step function

siesta: Program's energy decomposition (eV):
siesta: Ebs     =     -6139.247252
siesta: Eions   =     20814.213734
siesta: Ena     =      4874.223076
siesta: Ekin    =      7637.016727
siesta: Enl     =       207.436655
siesta: DEna    =        -0.000015
siesta: DUscf   =         0.000000
siesta: DUext   =         0.000000
siesta: Exc     =     -4540.253375
siesta: eta*DQ  =         0.000000
siesta: Emadel  =         0.000000
siesta: Emeta   =         0.000000
siesta: Emolmec =         0.000000
siesta: Ekinion =         0.000000
siesta: Eharris =    -12299.289784
siesta: Etot    =    -12635.790665
siesta: FreeEng =    -12635.790665

siesta: iscf   Eharris(eV)      E_KS(eV)   FreeEng(eV)   dDmax  Ef(eV)
siesta:    1   -12299.2898   -12635.7907   -12635.7907  6.4178 -7.0009
timer: Routine,Calls,Time,% = IterSCF        1    2986.822  99.59
elaps: Routine,Calls,Wall,% = IterSCF        1     249.493  99.59
siesta:    2   -19001.4442   -11416.7645   -11416.8111 16.6558 -6.5794
siesta:    3   -12223.7987   -12481.9496   -12481.9973  3.4192 -5.7873
siesta:    4   -12211.1051   -12313.6323   -12313.6537  1.3865 -4.5620
siesta:    5   -12150.8186   -12263.5510   -12263.5824  1.0465 -4.2236
siesta:    6   -12136.4676   -12186.2071   -12186.2592  0.9199 -3.6824
siesta:    7   -12130.2452   -12171.0109   -12171.0418  0.8664 -3.7698
siesta:    8   -12127.1120   -12161.2751   -12161.3172  0.8018 -3.8760
siesta:    9   -12125.3536   -12141.2805   -12141.3329  0.6336 -4.0026
siesta:   10   -12125.3830   -12125.2076   -12125.2599  0.4876 -4.0929
siesta:   11   -12124.5058   -12116.7434   -12116.8118  0.3966 -4.0612
siesta:   12   -12125.1335   -12101.1750   -12101.2288  0.1872 -4.0510
siesta:   13   -12124.4301   -12097.7025   -12097.7584  0.1305 -4.0206
siesta:   14   -12123.8546   -12100.2459   -12100.3204  0.0983 -3.9892
siesta:   15   -12123.5387   -12100.9096   -12100.9851  0.1616 -3.9587
siesta:   16   -12123.3116   -12106.3187   -12106.3921  0.1067 -3.9850
siesta:   17   -12123.2444   -12109.1207   -12109.2011  0.1276 -3.9929
siesta:   18   -12123.1966   -12113.4053   -12113.4788  0.0375 -4.0157
siesta:   19   -12123.1772   -12118.3637   -12118.4381  0.0485 -4.0251
siesta:   20   -12123.1747   -12120.6110   -12120.6870  0.0258 -4.0259
siesta:   21   -12123.1618   -12121.6127   -12121.6879  0.0278 -4.0281
siesta:   22   -12123.1556   -12122.8597   -12122.9362  0.0240 -4.0236
siesta:   23   -12123.1541   -12123.6259   -12123.7031  0.0146 -4.0134
siesta:   24   -12123.1531   -12123.7866   -12123.8633  0.0071 -4.0075
siesta:   25   -12123.1528   -12123.6264   -12123.7028  0.0065 -4.0051
siesta:   26   -12123.1526   -12123.4837   -12123.5598  0.0052 -4.0052
siesta:   27   -12123.1523   -12123.5009   -12123.5771  0.0046 -4.0046
siesta:   28   -12123.1523   -12123.5033   -12123.5796  0.0034 -4.0041
siesta:   29   -12123.1522   -12123.4349   -12123.5112  0.0023 -4.0045
siesta:   30   -12123.1522   -12123.3954   -12123.4716  0.0018 -4.0047
siesta:   31   -12123.1522   -12123.3474   -12123.4237  0.0009 -4.0054
siesta:   32   -12123.1522   -12123.3144   -12123.3906  0.0005 -4.0057
siesta:   33   -12123.1522   -12123.3037   -12123.3800  0.0004 -4.0058
siesta:   34   -12123.1522   -12123.2455   -12123.3217  0.0005 -4.0059
siesta:   35   -12123.1522   -12123.2224   -12123.2987  0.0002 -4.0059
siesta:   36   -12123.1522   -12123.1922   -12123.2685  0.0001 -4.0058
siesta:   37   -12123.1522   -12123.1708   -12123.2471  0.0001 -4.0058

siesta: E_KS(eV) =           -12123.1600

siesta: E_KS - E_eggbox =    -12123.1600

siesta: Atomic forces (eV/Ang):
----------------------------------------
   Tot    0.008498    0.154567    0.000000
----------------------------------------
   Max  686.516536
   Res  169.055910    sqrt( Sum f_i^2 / 3N )
----------------------------------------
   Max  686.516536    constrained

Stress-tensor-Voigt (kbar):     -708.79    -2955.80       -0.08       -7.94        0.00        0.00
(Free)E + p*V (eV/cell)   -10679.7876
Target enthalpy (eV/cell)   -12123.2363

siesta: Stress tensor (static) (eV/Ang**3):
        -0.442390   -0.004958    0.000000
        -0.004957   -1.844846    0.000000
         0.000000    0.000000   -0.000048

siesta: Pressure (static):       1221.55710777  kBar

siesta: Stress tensor (total) (eV/Ang**3):
        -0.442390   -0.004958    0.000000
        -0.004957   -1.844846    0.000000
         0.000000    0.000000   -0.000048

siesta: Pressure (total):       1221.55710777  kBar

siesta: Temp_ion =       0.000 K

* Maximum dynamic memory allocated =   149 MB
Computing bands...

siesta: Program's energy decomposition (eV):
siesta: Ebs     =     -4939.981410
siesta: Eions   =     20814.213734
siesta: Ena     =      4874.223076
siesta: Ekin    =     10637.623762
siesta: Enl     =     -1456.533405
siesta: DEna    =      -763.840790
siesta: DUscf   =       106.207009
siesta: DUext   =         0.000000
siesta: Exc     =     -4706.625965
siesta: eta*DQ  =         0.000000
siesta: Emadel  =         0.000000
siesta: Emeta   =         0.000000
siesta: Emolmec =         0.000000
siesta: Ekinion =         0.000000
siesta: Eharris =    -12123.152158
siesta: Etot    =    -12123.160047
siesta: FreeEng =    -12123.236329

siesta: Final energy (eV):
siesta:  Band Struct. =   -4939.981410
siesta:       Kinetic =   10637.623762
siesta:       Hartree =   34161.557703
siesta:    Ext. field =       0.000000
siesta:   Exch.-corr. =   -4706.625965
siesta:  Ion-electron =  -78553.810966
siesta:       Ion-ion =   26338.095420
siesta:       Ekinion =       0.000000
siesta:         Total =  -12123.160047

siesta: Atomic forces (eV/Ang):
siesta:      1    0.178250   -1.112689    0.000000
siesta:      2   -0.203443    1.039368    0.000000
siesta:      3    3.082331   -1.830769    0.000000
siesta:      4   -0.702729    2.200826    0.000000
siesta:      5    0.777932    1.028258    0.000000
siesta:      6   -2.513347    0.379648    0.000000
siesta:      7    0.585878   -0.095258    0.000000
siesta:      8   -5.213966  672.109035    0.000000
siesta:      9  -32.753918   -9.557933    0.000000
siesta:     10   11.960652  686.516536    0.000000
siesta:     11   -1.043798   -5.121913    0.000000
siesta:     12    2.469331    1.748874    0.000000
siesta:     13    1.298525    1.106805    0.000000
siesta:     14   -0.705433   -1.867266    0.000000
siesta:     15   -1.609402   -0.709609    0.000000
siesta:     16    0.003440  548.672123    0.000000
siesta:     17    1.229779 -128.616317    0.000000
siesta:     18   -0.604628  123.690961    0.000000
siesta:     19  -25.798286 -655.556739    0.000000
siesta:     20   -0.675051  126.004706    0.000000
siesta:     21   16.486542 -548.897526    0.000000
siesta:     22   26.273149    7.162885    0.000000
siesta:     23   33.877422 -550.791841    0.000000
siesta:     24    1.743010    0.198558    0.000000
siesta:     25   -2.913362    0.490271    0.000000
siesta:     26    1.827017    1.344539    0.000000
siesta:     27   -1.125306   -0.067242    0.000000
siesta:     28  -26.893057    5.531784    0.000000
siesta:     29  -34.586317 -551.258228    0.000000
siesta:     30   16.658631  549.651720    0.000000
siesta:     31   -1.489609 -127.315842    0.000000
siesta:     32   33.826205  551.109055    0.000000
siesta:     33   25.365390   -6.807436    0.000000
siesta:     34   -1.352720    2.123360    0.000000
siesta:     35   -1.921798    1.119212    0.000000
siesta:     36   -1.080776   -3.295084    0.000000
siesta:     37  -14.323361  547.862201    0.000000
siesta:     38    1.572731 -127.740753    0.000000
siesta:     39   -2.362557  543.244618    0.000000
siesta:     40    4.455522 -127.652164    0.000000
siesta:     41   18.015398  558.459101    0.000000
siesta:     42   26.172907  -11.883627    0.000000
siesta:     43  -30.705853  549.291485    0.000000
siesta:     44  -25.895119   -9.582708    0.000000
siesta:     45    2.398582   -1.803439    0.000000
siesta:     46   -1.511692   -0.564056    0.000000
siesta:     47    0.432992    2.860478    0.000000
siesta:     48    0.996342   -1.096784    0.000000
siesta:     49   -0.657593    1.165110    0.000000
siesta:     50    1.098294   -1.480407    0.000000
siesta:     51    1.418953    0.272468    0.000000
siesta:     52   -2.037725   -2.576533    0.000000
siesta:     53   -0.008302    0.987139    0.000000
siesta:     54    0.300755   -0.855695    0.000000
siesta:     55    0.201293    7.759645    0.000000
siesta:     56    0.165227   -7.877720    0.000000
siesta:     57   -2.080700    2.551552    0.000000
siesta:     58    1.697849   -0.236344    0.000000
siesta:     59    0.589078   -0.325817    0.000000
siesta:     60    0.851572 -565.121795    0.000000
siesta:     61   -0.549973    0.581414    0.000000
siesta:     62    1.254431   -2.680179    0.000000
siesta:     63   22.966243    6.258042    0.000000
siesta:     64   19.108717 -559.769914    0.000000
siesta:     65  -22.791119    6.190903    0.000000
siesta:     66  -22.666993 -558.172131    0.000000
siesta:     67   -2.199674   -0.126345    0.000000
siesta:     68    3.361897    2.234042    0.000000
siesta:     69    0.002156  127.249778    0.000000
siesta:     70    0.375418 -543.989328    0.000000
siesta:     71   -1.924153  120.545581    0.000000
siesta:     72  -12.169576 -644.150086    0.000000
siesta: ----------------------------------------
siesta:    Tot    0.008498    0.154567    0.000000

siesta: Stress tensor (static) (eV/Ang**3):
siesta:    -0.442390   -0.004958    0.000000
siesta:    -0.004957   -1.844846    0.000000
siesta:     0.000000    0.000000   -0.000048

siesta: Cell volume =       1893.226884 Ang**3

siesta: Pressure (static):
siesta:                Solid            Molecule  Units
siesta:           0.00830381          0.13201654  Ry/Bohr**3
siesta:           0.76242774         12.12130976  eV/Ang**3
siesta:        1221.55710777      19420.68918855  kBar
(Free)E+ p_basis*V_orbitals  =      -12094.643165
(Free)Eharris+ p_basis*V_orbitals  =      -12094.624503

siesta: Electric dipole (a.u.)  =    0.000000    0.000000    0.000000
siesta: Electric dipole (Debye) =    0.000000    0.000000    0.000000

* Maximum dynamic memory allocated : Node    0 =   149 MB
* Maximum dynamic memory allocated : Node    1 =    58 MB
* Maximum dynamic memory allocated : Node    2 =    60 MB
* Maximum dynamic memory allocated : Node    3 =   137 MB
* Maximum dynamic memory allocated : Node    4 =   142 MB
* Maximum dynamic memory allocated : Node    5 =    53 MB
* Maximum dynamic memory allocated : Node    6 =    53 MB
* Maximum dynamic memory allocated : Node    7 =   135 MB
* Maximum dynamic memory allocated : Node    8 =   127 MB
* Maximum dynamic memory allocated : Node    9 =    53 MB
* Maximum dynamic memory allocated : Node   10 =    54 MB
* Maximum dynamic memory allocated : Node   11 =   121 MB

* Maximum memory occured during matrixMtoO                    

timer: CPU execution times:
timer:  Routine       Calls   Time/call    Tot.time        %
timer:  siesta            1  108450.560  108450.560   100.00
timer:  Setup             1       3.387       3.387     0.00
timer:  bands             3     225.767     677.302     0.62
timer:  writewave         1       0.022       0.022     0.00
timer:  KSV_init          1       0.003       0.003     0.00
timer:  IterMD            1  107762.917  107762.917    99.37
timer:  hsparse           1       0.164       0.164     0.00
timer:  overlap           1       7.149       7.149     0.01
timer:  IterSCF          37    2909.173  107639.397    99.25
timer:  kinefsm           2       3.625       7.249     0.01
timer:  nlefsm            2      18.313      36.627     0.03
timer:  DHSCF            38      62.264    2366.031     2.18
timer:  DHSCF1            1       0.898       0.898     0.00
timer:  DHSCF2            1      24.629      24.629     0.02
timer:  REORD           306       0.002       0.714     0.00
timer:  POISON           39       0.449      17.519     0.02
timer:  DHSCF3           38      61.039    2319.484     2.14
timer:  rhoofd           38      12.346     469.165     0.43
timer:  cellXC           38       2.426      92.192     0.09
timer:  vmat             38      30.018    1140.693     1.05
timer:  MolMec            2       0.001       0.001     0.00
timer:  diagon           37    2845.754  105292.881    97.09
timer:  c-eigval       8668       5.581   48374.836    44.61
timer:  c-buildHS      8668       0.033     283.601     0.26
timer:  cdiag         17215       5.673   97664.316    90.05
timer:  cdiag1        17215       0.262    4507.495     4.16
timer:  cdiag2        17215       1.835   31593.592    29.13
timer:  cdiag3        17215       3.378   58155.044    53.62
timer:  cdiag4        17215       0.088    1518.728     1.40
timer:  c-eigvec       8547       5.827   49803.876    45.92
timer:  c-buildD       8547       0.906    7744.632     7.14
timer:  DHSCF4            1      20.783      20.783     0.02
timer:  dfscf             1      19.362      19.362     0.02
timer:  overfsm           1       0.276       0.276     0.00
timer:  optical           1       6.345       6.345     0.01
  

elaps: ELAPSED times:
elaps:  Routine       Calls   Time/call    Tot.time        %
elaps:  siesta            1    9058.782    9058.782   100.00
elaps:  Setup             1       0.283       0.283     0.00
elaps:  bands             3      18.874      56.623     0.63
elaps:  writewave         1       0.002       0.002     0.00
elaps:  KSV_init          1       0.000       0.000     0.00
elaps:  IterMD            1    9001.342    9001.342    99.37
elaps:  hsparse           1       0.015       0.015     0.00
elaps:  overlap           1       0.708       0.708     0.01
elaps:  IterSCF          37     243.001    8991.025    99.25
elaps:  kinefsm           2       0.360       0.720     0.01
elaps:  nlefsm            2       1.537       3.075     0.03
elaps:  DHSCF            38       5.251     199.552     2.20
elaps:  DHSCF1            1       0.077       0.077     0.00
elaps:  DHSCF2            1       2.055       2.055     0.02
elaps:  REORD           306       0.000       0.090     0.00
elaps:  POISON           39       0.038       1.471     0.02
elaps:  DHSCF3           38       5.099     193.752     2.14
elaps:  rhoofd           38       2.341      88.962     0.98
elaps:  cellXC           38       0.202       7.684     0.08
elaps:  vmat             38       2.508      95.298     1.05
elaps:  MolMec            2       0.000       0.000     0.00
elaps:  diagon           37     237.706    8795.116    97.09
elaps:  c-eigval       8668       0.466    4040.654    44.60
elaps:  c-buildHS      8668       0.003      28.545     0.32
elaps:  cdiag         17215       0.471    8111.600    89.54
elaps:  cdiag1        17215       0.021     369.984     4.08
elaps:  cdiag2        17215       0.153    2641.306    29.16
elaps:  cdiag3        17215       0.283    4865.431    53.71
elaps:  cdiag4        17215       0.007     122.082     1.35
elaps:  c-eigvec       8547       0.482    4123.443    45.52
elaps:  c-buildD       8547       0.080     683.278     7.54
elaps:  DHSCF4            1       3.616       3.616     0.04
elaps:  dfscf             1       3.423       3.423     0.04
elaps:  overfsm           1       0.027       0.027     0.00
elaps:  optical           1       0.000       0.000     0.00
  
>> End of run:   6-MAY-2016  22:47:52
