Siesta Version:                                        siesta-3.2-pl-3
Architecture  : x86_64-unknown-linux-gnu--unknown
Compiler flags: mpiifort -g -O2 -fPIC -xSSE4.1 -fp-model source -shared-intel 
PARALLEL version

* Running on    8 nodes in parallel
>> Start of run:  24-APR-2016  18:11:21

                           ***********************       
                           *  WELCOME TO SIESTA  *       
                           ***********************       

reinit: Reading from standard input
************************** Dump of input data file ****************************
#(1) General system descriptors
SystemName            GRP_doping    # Descriptive name of the system
SystemLabel           GRP_doping    # Short name for naming files
%include STRUCT.fdf
%include KPT.fdf
%include BASIS.fdf
#%include TS.fdf # for transiesta calculation
#(4) DFT, Grid, SCF
XC.functional         GGA           # LDA or GGA (default = LDA)
XC.authors            PBE           # CA (Ceperley-Aldr) = PZ
                                    #    (Perdew-Zunger) - LDA - Default
                                    # PW92 (Perdew-Wang-92) - LDA
                                    # PBE (Perdew-Burke-Ernzerhof) - GGA
MeshCutoff            200.000000    Ry      # Default: 50.0 Ry ~ 0.444 Bohr
                                    #         100.0 Ry ~ 0.314 Bohr
MaxSCFIterations      500           # Default: 50
DM.MixingWeight       0.05          # Default: 0.25
DM.NumberPulay        10            # Default: 0
DM.PulayOnFile        F             # SystemLabel.P1, SystemLabel.P2
DM.Tolerance          1.d-4         # Default: 1.d-4
DM.UseSaveDM          .true.        # because of the bug
SCFMustConverge       .true.
NeglNonOverlapInt     F             # Default: F
#(5) Eigenvalue problem: order-N or diagonalization
SolutionMethod        Diagon        # or Transiesta
ElectronicTemperature 300.0 K       # Default: 300.0 K
#(6) Molecular dynamics and relaxations
#MD.TypeOfRun          CG            # Type of dynamics:
#MD.VariableCell       F
#MD.NumCGsteps         0           # 0 for single-point / 100 for gopt
#MD.MaxCGDispl         0.2 Bohr      # Default: 0.2 Bohr
#MD.MaxForceTol        0.02 eV/Ang   # Default: 0.04 eV/Ang
#MD.MaxStressTol       1.0 GPa       # Default: 1.0 GPa
# Geometry Constraints
#%block GeometryConstraints
#	position from 1 to 44
#%endblock GeometryConstraints
BandLinesScale   pi/a
%block BandLines
 1   0.00000000  0.00000000  0.00000000
50   0.00000000  0.07809418  0.00000000
50   0.04509075  0.07809242  0.00000000
20   0.00000000  0.00000000  0.00000000
%endblock BandLines
************************** End of input data file *****************************

reinit: -----------------------------------------------------------------------
reinit: System Name: GRP_doping
reinit: -----------------------------------------------------------------------
reinit: System Label: GRP_doping                                                  
reinit: -----------------------------------------------------------------------

initatom: Reading input for the pseudopotentials and atomic orbitals ----------
 Species number:            1  Label: B Atomic number:           5
 Species number:            2  Label: C Atomic number:           6
Ground state valence configuration:   2s02  2p01
Reading pseudopotential information in formatted form from B.psf

Valence configuration for pseudopotential generation:
2s( 2.00) rc: 1.74
2p( 1.00) rc: 1.74
3d( 0.00) rc: 1.74
4f( 0.00) rc: 1.74
Ground state valence configuration:   2s02  2p02
Reading pseudopotential information in formatted form from C.psf

Valence configuration for pseudopotential generation:
2s( 2.00) rc: 1.54
2p( 2.00) rc: 1.54
3d( 0.00) rc: 1.54
4f( 0.00) rc: 1.54
For B, standard SIESTA heuristics set lmxkb to 3
 (one more than the basis l, including polarization orbitals).
Use PS.lmax or PS.KBprojectors blocks to override.
For C, standard SIESTA heuristics set lmxkb to 3
 (one more than the basis l, including polarization orbitals).
Use PS.lmax or PS.KBprojectors blocks to override.

<basis_specs>
===============================================================================
B                    Z=   5    Mass=  10.810        Charge= 0.17977+309
Lmxo=1 Lmxkb= 3    BasisType=split      Semic=F
L=0  Nsemic=0  Cnfigmx=2
          n=1  nzeta=2  polorb=0
            splnorm:   0.15000    
               vcte:    0.0000    
               rinn:    0.0000    
                rcs:    0.0000      0.0000    
            lambdas:    1.0000      1.0000    
L=1  Nsemic=0  Cnfigmx=2
          n=1  nzeta=2  polorb=1
            splnorm:   0.15000    
               vcte:    0.0000    
               rinn:    0.0000    
                rcs:    0.0000      0.0000    
            lambdas:    1.0000      1.0000    
-------------------------------------------------------------------------------
L=0  Nkbl=1  erefs: 0.17977+309
L=1  Nkbl=1  erefs: 0.17977+309
L=2  Nkbl=1  erefs: 0.17977+309
L=3  Nkbl=1  erefs: 0.17977+309
===============================================================================
</basis_specs>

atom: Called for B                     (Z =   5)

read_vps: Pseudopotential generation method:
read_vps: ATM3      Troullier-Martins                       
Total valence charge:    3.00000

read_vps: Pseudopotential includes a core correction:
read_vps: Pseudo-core for xc-correction

xc_check: Exchange-correlation functional:
xc_check: GGA Perdew, Burke & Ernzerhof 1996
V l=0 = -2*Zval/r beyond r=  1.7165
V l=1 = -2*Zval/r beyond r=  1.7165
V l=2 = -2*Zval/r beyond r=  1.7165
V l=3 = -2*Zval/r beyond r=  1.6951
All V_l potentials equal beyond r=  1.7165
This should be close to max(r_c) in ps generation
All pots = -2*Zval/r beyond r=  1.7165

VLOCAL1: 99.0% of the norm of Vloc inside     14.733 Ry
VLOCAL1: 99.9% of the norm of Vloc inside     33.577 Ry
atom: Maximum radius for 4*pi*r*r*local-pseudopot. charge    2.04484
atom: Maximum radius for r*vlocal+2*Zval:    1.75994
GHOST: No ghost state for L =  0
GHOST: No ghost state for L =  1
GHOST: No ghost state for L =  2
GHOST: No ghost state for L =  3

KBgen: Kleinman-Bylander projectors: 
   l= 0   rc=  1.897051   el= -0.693730   Ekb=  4.595746   kbcos=  0.286105
   l= 1   rc=  1.920920   el= -0.265236   Ekb= -2.350715   kbcos= -0.315747
   l= 2   rc=  2.044840   el=  0.002055   Ekb= -0.690767   kbcos= -0.013822
   l= 3   rc=  2.149707   el=  0.003188   Ekb= -0.315358   kbcos= -0.002055

KBgen: Total number of  Kleinman-Bylander projectors:   16
atom: -------------------------------------------------------------------------

atom: SANKEY-TYPE ORBITALS:
atom: Selected multiple-zeta basis: split     

SPLIT: Orbitals with angular momentum L= 0

SPLIT: Basis orbitals for state 2s

SPLIT: PAO cut-off radius determined from an
SPLIT: energy shift=  0.007350 Ry

   izeta = 1
                 lambda =    1.000000
                     rc =    5.422032
                 energy =   -0.686029
                kinetic =    0.576707
    potential(screened) =   -1.262736
       potential(ionic) =   -3.271094

   izeta = 2
                 rmatch =    4.222573
              splitnorm =    0.150000
                 energy =   -0.602132
                kinetic =    0.858975
    potential(screened) =   -1.461107
       potential(ionic) =   -3.582536

SPLIT: Orbitals with angular momentum L= 1

SPLIT: Basis orbitals for state 2p

SPLIT: PAO cut-off radius determined from an
SPLIT: energy shift=  0.007350 Ry

   izeta = 1
                 lambda =    1.000000
                     rc =    6.790259
                 energy =   -0.258578
                kinetic =    1.481412
    potential(screened) =   -1.739989
       potential(ionic) =   -3.657461

   izeta = 2
                 rmatch =    4.608740
              splitnorm =    0.150000
                 energy =   -0.173757
                kinetic =    2.186690
    potential(screened) =   -2.360447
       potential(ionic) =   -4.464260

POLgen: Perturbative polarization orbital with L=  2

POLgen: Polarization orbital for state 2p

   izeta = 1
                     rc =    6.790259
                 energy =    0.684082
                kinetic =    1.471481
    potential(screened) =   -0.787399
       potential(ionic) =   -2.406985
atom: Total number of Sankey-type orbitals: 13

atm_pop: Valence configuration (for local Pseudopot. screening):
 2s( 2.00)                                                            
 2p( 1.00)                                                            
Vna: chval, zval:    3.00000   3.00000

Vna:  Cut-off radius for the neutral-atom potential:   6.790259
comcore: Pseudo-core radius Rcore=  2.122997

atom: _________________________________________________________________________

<basis_specs>
===============================================================================
C                    Z=   6    Mass=  12.010        Charge= 0.17977+309
Lmxo=1 Lmxkb= 3    BasisType=split      Semic=F
L=0  Nsemic=0  Cnfigmx=2
          n=1  nzeta=2  polorb=0
            splnorm:   0.15000    
               vcte:    0.0000    
               rinn:    0.0000    
                rcs:    0.0000      0.0000    
            lambdas:    1.0000      1.0000    
L=1  Nsemic=0  Cnfigmx=2
          n=1  nzeta=2  polorb=1
            splnorm:   0.15000    
               vcte:    0.0000    
               rinn:    0.0000    
                rcs:    0.0000      0.0000    
            lambdas:    1.0000      1.0000    
-------------------------------------------------------------------------------
L=0  Nkbl=1  erefs: 0.17977+309
L=1  Nkbl=1  erefs: 0.17977+309
L=2  Nkbl=1  erefs: 0.17977+309
L=3  Nkbl=1  erefs: 0.17977+309
===============================================================================
</basis_specs>

atom: Called for C                     (Z =   6)

read_vps: Pseudopotential generation method:
read_vps: ATM3      Troullier-Martins                       
Total valence charge:    4.00000

read_vps: Pseudopotential includes a core correction:
read_vps: Pseudo-core for xc-correction

xc_check: Exchange-correlation functional:
xc_check: GGA Perdew, Burke & Ernzerhof 1996
V l=0 = -2*Zval/r beyond r=  1.5227
V l=1 = -2*Zval/r beyond r=  1.5227
V l=2 = -2*Zval/r beyond r=  1.5227
V l=3 = -2*Zval/r beyond r=  1.5038
All V_l potentials equal beyond r=  1.5227
This should be close to max(r_c) in ps generation
All pots = -2*Zval/r beyond r=  1.5227

VLOCAL1: 99.0% of the norm of Vloc inside     18.722 Ry
VLOCAL1: 99.9% of the norm of Vloc inside     42.668 Ry
atom: Maximum radius for 4*pi*r*r*local-pseudopot. charge    1.83678
atom: Maximum radius for r*vlocal+2*Zval:    1.58088
GHOST: No ghost state for L =  0
GHOST: No ghost state for L =  1
GHOST: No ghost state for L =  2
GHOST: No ghost state for L =  3

KBgen: Kleinman-Bylander projectors: 
   l= 0   rc=  1.704034   el= -1.009801   Ekb=  5.335044   kbcos=  0.316824
   l= 1   rc=  1.704034   el= -0.388707   Ekb= -3.785862   kbcos= -0.366464
   l= 2   rc=  1.791422   el=  0.001971   Ekb= -0.970471   kbcos= -0.009212
   l= 3   rc=  1.859892   el=  0.003065   Ekb= -0.399525   kbcos= -0.001223

KBgen: Total number of  Kleinman-Bylander projectors:   16
atom: -------------------------------------------------------------------------

atom: SANKEY-TYPE ORBITALS:
atom: Selected multiple-zeta basis: split     

SPLIT: Orbitals with angular momentum L= 0

SPLIT: Basis orbitals for state 2s

SPLIT: PAO cut-off radius determined from an
SPLIT: energy shift=  0.007350 Ry

   izeta = 1
                 lambda =    1.000000
                     rc =    4.632753
                 energy =   -1.002270
                kinetic =    0.855760
    potential(screened) =   -1.858031
       potential(ionic) =   -5.417575

   izeta = 2
                 rmatch =    3.431921
              splitnorm =    0.150000
                 energy =   -0.867111
                kinetic =    1.300804
    potential(screened) =   -2.167915
       potential(ionic) =   -5.962684

SPLIT: Orbitals with angular momentum L= 1

SPLIT: Basis orbitals for state 2p

SPLIT: PAO cut-off radius determined from an
SPLIT: energy shift=  0.007350 Ry

   izeta = 1
                 lambda =    1.000000
                     rc =    5.658549
                 energy =   -0.381140
                kinetic =    2.399701
    potential(screened) =   -2.780841
       potential(ionic) =   -6.206085

   izeta = 2
                 rmatch =    3.653288
              splitnorm =    0.150000
                 energy =   -0.249149
                kinetic =    3.542762
    potential(screened) =   -3.791911
       potential(ionic) =   -7.581078

POLgen: Perturbative polarization orbital with L=  2

POLgen: Polarization orbital for state 2p

   izeta = 1
                     rc =    5.658549
                 energy =    1.109913
                kinetic =    2.304789
    potential(screened) =   -1.194876
       potential(ionic) =   -4.013592
atom: Total number of Sankey-type orbitals: 13

atm_pop: Valence configuration (for local Pseudopot. screening):
 2s( 2.00)                                                            
 2p( 2.00)                                                            
Vna: chval, zval:    4.00000   4.00000

Vna:  Cut-off radius for the neutral-atom potential:   5.658549
comcore: Pseudo-core radius Rcore=  1.791422

atom: _________________________________________________________________________

prinput: Basis input ----------------------------------------------------------

PAO.BasisType split     

%block ChemicalSpeciesLabel
    1    5 B                       # Species index, atomic number, species label
    2    6 C                       # Species index, atomic number, species label
%endblock ChemicalSpeciesLabel

%block PAO.Basis                 # Define Basis set
B                     2                    # Species label, number of l-shells
 n=2   0   2                         # n, l, Nzeta 
   5.422      4.223   
   1.000      1.000   
 n=2   1   2 P   1                   # n, l, Nzeta, Polarization, NzetaPol
   6.790      4.609   
   1.000      1.000   
C                     2                    # Species label, number of l-shells
 n=2   0   2                         # n, l, Nzeta 
   4.633      3.432   
   1.000      1.000   
 n=2   1   2 P   1                   # n, l, Nzeta, Polarization, NzetaPol
   5.659      3.653   
   1.000      1.000   
%endblock PAO.Basis

prinput: ----------------------------------------------------------------------

coor:   Atomic-coordinates input format  =     Fractional

siesta: Atomic coordinates (Bohr) and species
siesta:      4.63094  34.85847   0.00000  1        1
siesta:      4.63094  37.54693   0.00000  1        2
siesta:      6.95932  33.51406   0.00000  1        3
siesta:      4.63094  10.66124   0.00000  1        4
siesta:      4.63094  13.34970   0.00000  1        5
siesta:      6.95932  17.38257   0.00000  1        6
siesta:      2.30256  14.69411   0.00000  1        7
siesta:      2.30256  17.38257   0.00000  1        8
siesta:      4.63094  18.72698   0.00000  1        9
siesta:      4.63094  21.41544   0.00000  1       10
siesta:     -0.02582  18.72698   0.00000  1       11
siesta:     -0.02582  21.41544   0.00000  1       12
siesta:      2.30256  22.75985   0.00000  1       13
siesta:     -4.68258  21.41544   0.00000  1       14
siesta:     -2.35420  22.75985   0.00000  1       15
siesta:     -7.01096  22.75985   0.00000  1       16
siesta:     -7.01096  25.44831   0.00000  1       17
siesta:     -4.68258  26.79272   0.00000  1       18
siesta:     -4.68258  29.48119   0.00000  1       19
siesta:      2.30256  33.51406   0.00000  1       20
siesta:     -2.35420  30.82560   0.00000  1       21
siesta:     -2.35420  33.51406   0.00000  1       22
siesta:     -0.02582  34.85847   0.00000  1       23
siesta:     -0.02582   2.59549   0.00000  2       24
siesta:     -0.02582   5.28395   0.00000  2       25
siesta:     -2.35420  38.89134   0.00000  2       26
siesta:     -2.35420  41.57980   0.00000  2       27
siesta:      2.30256  38.89134   0.00000  2       28
siesta:      2.30256  41.57980   0.00000  2       29
siesta:      6.95932  30.82560   0.00000  2       30
siesta:      9.28770  26.79272   0.00000  2       31
siesta:      9.28770  29.48119   0.00000  2       32
siesta:     -4.68258  34.85847   0.00000  2       33
siesta:     -4.68258  37.54693   0.00000  2       34
siesta:      2.30256   6.62836   0.00000  2       35
siesta:      2.30256   9.31683   0.00000  2       36
siesta:      6.95932  14.69411   0.00000  2       37
siesta:      9.28770  18.72698   0.00000  2       38
siesta:      9.28770  21.41544   0.00000  2       39
siesta:     11.61608  22.75985   0.00000  2       40
siesta:     11.61608  25.44831   0.00000  2       41
siesta:     -2.35420   6.62836   0.00000  2       42
siesta:     -2.35420   9.31683   0.00000  2       43
siesta:     -0.02582  10.66124   0.00000  2       44
siesta:     -0.02582  13.34970   0.00000  2       45
siesta:      6.95932  22.75985   0.00000  2       46
siesta:      6.95932  25.44831   0.00000  2       47
siesta:     -4.68258  10.66124   0.00000  2       48
siesta:     -4.68258  13.34970   0.00000  2       49
siesta:     -2.35420  14.69411   0.00000  2       50
siesta:     -2.35420  17.38257   0.00000  2       51
siesta:      2.30256  25.44831   0.00000  2       52
siesta:     -7.01096  14.69411   0.00000  2       53
siesta:     -7.01096  17.38257   0.00000  2       54
siesta:     -4.68258  18.72698   0.00000  2       55
siesta:     -2.35420  25.44831   0.00000  2       56
siesta:     -9.33934  18.72698   0.00000  2       57
siesta:     -9.33934  21.41544   0.00000  2       58
siesta:    -11.66772  22.75985   0.00000  2       59
siesta:    -11.66772  25.44831   0.00000  2       60
siesta:     -9.33934  26.79272   0.00000  2       61
siesta:     -9.33934  29.48119   0.00000  2       62
siesta:      4.63094  26.79272   0.00000  2       63
siesta:      4.63094  29.48119   0.00000  2       64
siesta:     -0.02582  26.79272   0.00000  2       65
siesta:     -0.02582  29.48119   0.00000  2       66
siesta:      2.30256  30.82560   0.00000  2       67
siesta:     -7.01096  30.82560   0.00000  2       68
siesta:     -7.01096  33.51406   0.00000  2       69
siesta:     -0.02582  37.54693   0.00000  2       70
siesta:     -0.02582  42.92421   0.00000  2       71
siesta:     -0.02582  45.61267   0.00000  2       72

siesta: System type = slab      

initatomlists: Number of atoms, orbitals, and projectors:     72   936  1152

siesta: ******************** Simulation parameters ****************************
siesta:
siesta: The following are some of the parameters of the simulation.
siesta: A complete list of the parameters used, including default values,
siesta: can be found in file out.fdf
siesta:
redata: Non-Collinear-spin run           =     F
redata: SpinPolarized (Up/Down) run      =     F
redata: Number of spin components        =     1
redata: Long output                      =     F
redata: Number of Atomic Species         =        2
redata: Charge density info will appear in .RHO file
redata: Write Mulliken Pop.              =     NO
redata: Mesh Cutoff                      =   200.0000  Ry
redata: Net charge of the system         =     0.0000 |e|
redata: Max. number of SCF Iter          =      500
redata: SCF convergence failure will abort job
redata: Performing Pulay mixing using    =    10 iterations
redata: Mix DM in first SCF step ?       =     F
redata: Write Pulay info on disk?        =     F
redata: Discard 1st Pulay DM after  kick =     F
redata: New DM Mixing Weight             =     0.0500
redata: New DM Occupancy tolerance       = 0.000000000001
redata: No kicks to SCF
redata: DM Mixing Weight for Kicks       =     0.5000
redata: DM Tolerance for SCF             =     0.000100
redata: Require Energy convergence for SCF =     F
redata: DM Energy tolerance for SCF      =     0.000100 eV
redata: Require Harris convergence for SCF =     F
redata: DM Harris energy tolerance for SCF =     0.000100 eV
redata: Using Saved Data (generic)   =     F
redata: Use continuation files for DM    =     T
redata: Neglect nonoverlap interactions  =     F
redata: Method of Calculation            =     Diagonalization
redata: Divide and Conquer               =     T
redata: Electronic Temperature           =     0.0019  Ry
redata: Fix the spin of the system       =     F
redata: Dynamics option                  =     Verlet MD run
redata: Initial MD time step             =        1
redata:   Final MD time step             =        1
redata: Length of MD time step           =     1.0000  fs
redata: Initial Temperature of MD run    =     0.0000  K
redata: Perform a MD quench              =     F
redata: ***********************************************************************
Total number of electrons:   265.000000
Total ionic charge:   265.000000

* ProcessorY, Blocksize:    2  24

k-point displ. along   1 input, could be:     0.50    0.00
k-point displ. along   2 input, could be:     0.50    0.00
 Kpoints in:          231 . Kpoints trimmed:          231

siesta: k-grid: Number of k-points =   231
siesta: k-grid: Cutoff (effective) =     5.000 Ang
siesta: k-grid: Supercell and displacements
siesta: k-grid:   21   0   0      0.500
siesta: k-grid:    0  21   0      0.500
siesta: k-grid:    0   0   1      0.000
Naive supercell factors:     2    2    2

superc: Internal auxiliary supercell:     2 x     2 x     2  =       8
superc: Number of atoms, orbitals, and projectors:    576   7488   9216

* Maximum dynamic memory allocated =     4 MB

siesta:                 ==============================
                            Begin MD step =      1
                        ==============================

superc: Internal auxiliary supercell:     2 x     2 x     2  =       8
superc: Number of atoms, orbitals, and projectors:    576   7488   9216

outcell: Unit cell vectors (Ang):
       12.804619    7.392750    0.000000
        0.000000   14.785500    0.000000
        0.000000    0.000000   10.000000

outcell: Cell vector modules (Ang)   :   14.785500   14.785500   10.000000
outcell: Cell angles (23,13,12) (deg):     90.0000     90.0000     60.0000
outcell: Cell volume (Ang**3)        :   1893.2269
New_DM. Step:     1
Initializing Density Matrix...

InitMesh: MESH =   120 x   120 x    90 =     1296000
InitMesh: Mesh cutoff (required, used) =   200.000   223.865 Ry

* Maximum dynamic memory allocated =   229 MB

stepf: Fermi-Dirac step function

siesta: Program's energy decomposition (eV):
siesta: Ebs     =     -5453.777413
siesta: Eions   =     15457.706713
siesta: Ena     =      4151.684252
siesta: Ekin    =      5165.204314
siesta: Enl     =       828.672934
siesta: DEna    =        -0.000007
siesta: DUscf   =         0.000000
siesta: DUext   =         0.000000
siesta: Exc     =     -4201.664778
siesta: eta*DQ  =         0.000000
siesta: Emadel  =         0.000000
siesta: Emeta   =         0.000000
siesta: Emolmec =         0.000000
siesta: Ekinion =         0.000000
siesta: Eharris =     -9281.719826
siesta: Etot    =     -9513.809998
siesta: FreeEng =     -9513.809998

siesta: iscf   Eharris(eV)      E_KS(eV)   FreeEng(eV)   dDmax  Ef(eV)
siesta:    1    -9281.7198    -9513.8100    -9513.8100  6.5681 -8.5802
timer: Routine,Calls,Time,% = IterSCF        1    4439.718  99.74
elaps: Routine,Calls,Wall,% = IterSCF        1     555.622  99.74
siesta:    2   -15472.4304    -8359.6304    -8359.6700 20.2819 -5.2821
siesta:    3    -9256.7875    -9375.3913    -9375.4387  3.1182 -6.8573
siesta:    4    -9225.2964    -9277.9728    -9278.0225  1.8243 -6.2103
siesta:    5    -9167.1985    -9201.5918    -9201.6259  1.2035 -5.8073
siesta:    6    -9139.2162    -9139.2101    -9139.2408  1.2930 -5.4231
siesta:    7    -9133.5703    -9122.2461    -9122.2873  1.2622 -5.3122
siesta:    8    -9128.5200    -9112.5376    -9112.6013  1.0611 -5.3199
siesta:    9    -9127.5175    -9110.7615    -9110.8122  0.9582 -5.3560
siesta:   10    -9127.4357    -9102.2248    -9102.2981  0.5103 -5.3134
siesta:   11    -9126.0722    -9099.6621    -9099.7280  0.3857 -5.2122
siesta:   12    -9126.6799    -9096.8220    -9096.8814  0.3219 -5.1763
siesta:   13    -9125.8235    -9098.5786    -9098.6533  0.2034 -5.2057
siesta:   14    -9125.4667    -9102.0260    -9102.0809  0.1540 -5.2396
siesta:   15    -9125.2041    -9109.2242    -9109.2908  0.0992 -5.2787
siesta:   16    -9125.0632    -9114.4645    -9114.5346  0.1197 -5.2685
siesta:   17    -9125.0059    -9117.5347    -9117.5956  0.0770 -5.2846
siesta:   18    -9124.9747    -9120.7881    -9120.8557  0.0409 -5.3010
siesta:   19    -9124.9539    -9122.1004    -9122.1794  0.0201 -5.3050
siesta:   20    -9124.9444    -9122.7315    -9122.8101  0.0196 -5.3029
siesta:   21    -9124.9392    -9123.9776    -9124.0545  0.0210 -5.3042
siesta:   22    -9124.9403    -9124.7820    -9124.8612  0.0146 -5.2971
siesta:   23    -9124.9384    -9125.5346    -9125.6111  0.0106 -5.2957
siesta:   24    -9124.9376    -9125.5068    -9125.5842  0.0074 -5.2931
siesta:   25    -9124.9367    -9125.4626    -9125.5398  0.0047 -5.2922
siesta:   26    -9124.9367    -9125.1770    -9125.2547  0.0018 -5.2914
siesta:   27    -9124.9367    -9125.1254    -9125.2030  0.0014 -5.2907
siesta:   28    -9124.9367    -9125.0386    -9125.1162  0.0012 -5.2906
siesta:   29    -9124.9367    -9125.0022    -9125.0798  0.0013 -5.2906
siesta:   30    -9124.9367    -9124.9712    -9125.0487  0.0012 -5.2908
siesta:   31    -9124.9368    -9124.9418    -9125.0193  0.0008 -5.2911
siesta:   32    -9124.9368    -9124.9409    -9125.0183  0.0004 -5.2914
siesta:   33    -9124.9368    -9124.9372    -9125.0147  0.0002 -5.2916
siesta:   34    -9124.9368    -9124.9339    -9125.0114  0.0002 -5.2917
siesta:   35    -9124.9367    -9124.9344    -9125.0119  0.0002 -5.2917
siesta:   36    -9124.9368    -9124.9300    -9125.0075  0.0001 -5.2917

siesta: E_KS(eV) =            -9124.9304

siesta: E_KS - E_eggbox =     -9124.9304

siesta: Atomic forces (eV/Ang):
----------------------------------------
   Tot    0.008817    0.092871    0.000000
----------------------------------------
   Max  557.434629
   Res  136.496497    sqrt( Sum f_i^2 / 3N )
----------------------------------------
   Max  557.434629    constrained

Stress-tensor-Voigt (kbar):     -763.47    -2532.29       -0.70        7.22        0.00        0.00
(Free)E + p*V (eV/cell)    -7826.5914
Target enthalpy (eV/cell)    -9125.0078

siesta: Stress tensor (static) (eV/Ang**3):
        -0.476514    0.004506    0.000000
         0.004507   -1.580513    0.000000
         0.000000    0.000000   -0.000439

siesta: Pressure (static):       1098.81965814  kBar

siesta: Stress tensor (total) (eV/Ang**3):
        -0.476514    0.004506    0.000000
         0.004507   -1.580513    0.000000
         0.000000    0.000000   -0.000439

siesta: Pressure (total):       1098.81965814  kBar

siesta: Temp_ion =       0.000 K

* Maximum dynamic memory allocated =   246 MB
Computing bands...

siesta: Program's energy decomposition (eV):
siesta: Ebs     =     -4101.940377
siesta: Eions   =     15457.706713
siesta: Ena     =      4151.684252
siesta: Ekin    =      7962.339126
siesta: Enl     =      -767.403213
siesta: DEna    =      -750.276012
siesta: DUscf   =       100.188687
siesta: DUext   =         0.000000
siesta: Exc     =     -4363.756477
siesta: eta*DQ  =         0.000000
siesta: Emadel  =         0.000000
siesta: Emeta   =         0.000000
siesta: Emolmec =         0.000000
siesta: Ekinion =         0.000000
siesta: Eharris =     -9124.936754
siesta: Etot    =     -9124.930351
siesta: FreeEng =     -9125.007816

siesta: Final energy (eV):
siesta:  Band Struct. =   -4101.940377
siesta:       Kinetic =    7962.339126
siesta:       Hartree =   25743.500571
siesta:    Ext. field =       0.000000
siesta:   Exch.-corr. =   -4363.756477
siesta:  Ion-electron =  -59185.258448
siesta:       Ion-ion =   20718.244877
siesta:       Ekinion =       0.000000
siesta:         Total =   -9124.930351

siesta: Atomic forces (eV/Ang):
siesta:      1   15.487139   -0.271661    0.000000
siesta:      2   25.230918 -281.160481    0.000000
siesta:      3    3.955518    0.073485    0.000000
siesta:      4   26.108558  281.054576    0.000000
siesta:      5   19.524845    2.357966    0.000000
siesta:      6    8.434682   -5.352330    0.000000
siesta:      7   20.786202  403.306714    0.000000
siesta:      8   14.947805   -0.690062    0.000000
siesta:      9   -2.286153   -1.238532    0.000000
siesta:     10    4.160368    0.802346    0.000000
siesta:     11    0.771715  408.196222    0.000000
siesta:     12   -0.171398   -4.178511    0.000000
siesta:     13   -2.011189    5.783214    0.000000
siesta:     14    1.044835   -6.120171    0.000000
siesta:     15    0.480981    6.959614    0.000000
siesta:     16   -2.343191   -1.299515    0.000000
siesta:     17   -3.795427    2.588813    0.000000
siesta:     18    4.654290   -3.034480    0.000000
siesta:     19   -1.659537    3.742097    0.000000
siesta:     20   17.342188 -400.161890    0.000000
siesta:     21  -15.559496    2.294539    0.000000
siesta:     22  -14.619750 -398.467577    0.000000
siesta:     23    0.977571  103.110877    0.000000
siesta:     24    4.614835  548.935681    0.000000
siesta:     25   -4.510721 -132.427200    0.000000
siesta:     26    0.614036  125.510034    0.000000
siesta:     27  -20.043798 -550.972854    0.000000
siesta:     28    6.717179  119.985850    0.000000
siesta:     29   16.208899 -406.632093    0.000000
siesta:     30    2.799378   -2.184357    0.000000
siesta:     31    2.632361    2.247203    0.000000
siesta:     32   -0.975826    0.414477    0.000000
siesta:     33  -25.095722   -0.022795    0.000000
siesta:     34  -30.781682 -552.731983    0.000000
siesta:     35   14.965130  400.713813    0.000000
siesta:     36    9.211910 -123.828277    0.000000
siesta:     37   -0.957243   -1.994042    0.000000
siesta:     38    1.455467    4.172687    0.000000
siesta:     39    3.221723   -2.897949    0.000000
siesta:     40    0.156878    7.193082    0.000000
siesta:     41   -0.079535   -7.180218    0.000000
siesta:     42  -17.952473  407.137421    0.000000
siesta:     43    1.082875 -123.922222    0.000000
siesta:     44    1.357146  552.389217    0.000000
siesta:     45    7.451137 -118.486274    0.000000
siesta:     46    1.334485    3.691421    0.000000
siesta:     47    0.210401   -1.289142    0.000000
siesta:     48  -32.972456  551.987563    0.000000
siesta:     49  -26.146777   -4.507072    0.000000
siesta:     50  -25.050097  557.312203    0.000000
siesta:     51  -23.618909   -3.274292    0.000000
siesta:     52    0.557617    3.775209    0.000000
siesta:     53    2.144049   -1.458763    0.000000
siesta:     54   -2.291840   -1.399819    0.000000
siesta:     55    1.770895   -2.290309    0.000000
siesta:     56    3.703314    3.421268    0.000000
siesta:     57    1.658255    0.117749    0.000000
siesta:     58   -5.928161   -3.445953    0.000000
siesta:     59   -0.721235    5.034250    0.000000
siesta:     60    0.411872   -5.320250    0.000000
siesta:     61   -6.921502    3.502288    0.000000
siesta:     62    2.413966   -0.064086    0.000000
siesta:     63   -0.111121    0.851884    0.000000
siesta:     64   -1.679699   -2.651244    0.000000
siesta:     65   -0.089500   -1.484930    0.000000
siesta:     66   -3.478386 -557.434629    0.000000
siesta:     67   23.154320    5.268969    0.000000
siesta:     68   -6.823387    2.306484    0.000000
siesta:     69    2.690944    1.931435    0.000000
siesta:     70   -0.156886 -540.040320    0.000000
siesta:     71    6.029244  126.108198    0.000000
siesta:     72   -3.634017 -404.269692    0.000000
siesta: ----------------------------------------
siesta:    Tot    0.008817    0.092871    0.000000

siesta: Stress tensor (static) (eV/Ang**3):
siesta:    -0.476514    0.004506    0.000000
siesta:     0.004507   -1.580513    0.000000
siesta:     0.000000    0.000000   -0.000439

siesta: Cell volume =       1893.226884 Ang**3

siesta: Pressure (static):
siesta:                Solid            Molecule  Units
siesta:           0.00746948          0.10251700  Ry/Bohr**3
siesta:           0.68582187          9.41276210  eV/Ang**3
siesta:        1098.81965814      15081.07051206  kBar
(Free)E+ p_basis*V_orbitals  =       -9087.003271
(Free)Eharris+ p_basis*V_orbitals  =       -9087.010038

siesta: Electric dipole (a.u.)  =    0.000000    0.000000    0.000000
siesta: Electric dipole (Debye) =    0.000000    0.000000    0.000000

* Maximum dynamic memory allocated : Node    0 =   246 MB
* Maximum dynamic memory allocated : Node    1 =    86 MB
* Maximum dynamic memory allocated : Node    2 =    90 MB
* Maximum dynamic memory allocated : Node    3 =   235 MB
* Maximum dynamic memory allocated : Node    4 =   227 MB
* Maximum dynamic memory allocated : Node    5 =    82 MB
* Maximum dynamic memory allocated : Node    6 =    86 MB
* Maximum dynamic memory allocated : Node    7 =   209 MB

* Maximum memory occured during matrixMtoO                    

timer: CPU execution times:
timer:  Routine       Calls   Time/call    Tot.time        %
timer:  siesta            1  158072.562  158072.562   100.00
timer:  Setup             1       3.022       3.022     0.00
timer:  bands             3     269.296     807.888     0.51
timer:  writewave         1       0.017       0.017     0.00
timer:  KSV_init          1       0.002       0.002     0.00
timer:  IterMD            1  157255.821  157255.821    99.48
timer:  hsparse           1       0.396       0.396     0.00
timer:  overlap           1       7.811       7.811     0.00
timer:  IterSCF          36    4361.598  157017.521    99.33
timer:  kinefsm           2       4.080       8.159     0.01
timer:  nlefsm            2      21.751      43.502     0.03
timer:  DHSCF            37     128.065    4738.395     3.00
timer:  DHSCF1            1       1.001       1.001     0.00
timer:  DHSCF2            1      46.134      46.134     0.03
timer:  REORD           298       0.010       3.047     0.00
timer:  POISON           38       2.248      85.419     0.05
timer:  DHSCF3           37     125.528    4644.551     2.94
timer:  rhoofd           37      26.595     984.014     0.62
timer:  cellXC           37       3.479     128.719     0.08
timer:  vmat             37      61.474    2274.543     1.44
timer:  MolMec            2       0.000       0.001     0.00
timer:  diagon           36    4232.296  152362.655    96.39
timer:  c-eigval       8437       6.683   56386.983    35.67
timer:  c-buildHS      8437       0.124    1042.354     0.66
timer:  cdiag         16753       6.914  115826.362    73.27
timer:  cdiag1        16753       0.430    7200.000     4.55
timer:  cdiag2        16753       1.914   32072.625    20.29
timer:  cdiag3        16753       3.938   65976.503    41.74
timer:  cdiag4        16753       0.226    3785.907     2.40
timer:  c-eigvec       8316       7.329   60947.246    38.56
timer:  c-buildD       8316       4.304   35790.462    22.64
timer:  DHSCF4            1      44.787      44.787     0.03
timer:  dfscf             1      42.090      42.090     0.03
timer:  overfsm           1       0.492       0.492     0.00
timer:  optical           1       5.088       5.088     0.00
  

elaps: ELAPSED times:
elaps:  Routine       Calls   Time/call    Tot.time        %
elaps:  siesta            1   19781.543   19781.543   100.00
elaps:  Setup             1       0.376       0.376     0.00
elaps:  bands             3      33.713     101.138     0.51
elaps:  writewave         1       0.002       0.002     0.00
elaps:  KSV_init          1       0.000       0.000     0.00
elaps:  IterMD            1   19679.356   19679.356    99.48
elaps:  hsparse           1       0.050       0.050     0.00
elaps:  overlap           1       0.975       0.975     0.00
elaps:  IterSCF          36     545.821   19649.549    99.33
elaps:  kinefsm           2       0.504       1.008     0.01
elaps:  nlefsm            2       2.589       5.179     0.03
elaps:  DHSCF            37      16.174     598.422     3.03
elaps:  DHSCF1            1       0.130       0.130     0.00
elaps:  DHSCF2            1       5.769       5.769     0.03
elaps:  REORD           298       0.001       0.409     0.00
elaps:  POISON           38       0.281      10.683     0.05
elaps:  DHSCF3           37      15.704     581.050     2.94
elaps:  rhoofd           37       7.174     265.426     1.34
elaps:  cellXC           37       0.434      16.072     0.08
elaps:  vmat             37       7.690     284.530     1.44
elaps:  MolMec            2       0.000       0.000     0.00
elaps:  diagon           36     529.656   19067.598    96.39
elaps:  c-eigval       8437       0.836    7055.004    35.66
elaps:  c-buildHS      8437       0.017     140.784     0.71
elaps:  cdiag         16753       0.859   14384.441    72.72
elaps:  cdiag1        16753       0.053     888.706     4.49
elaps:  cdiag2        16753       0.240    4013.031    20.29
elaps:  cdiag3        16753       0.493    8266.123    41.79
elaps:  cdiag4        16753       0.028     474.242     2.40
elaps:  c-eigvec       8316       0.908    7552.957    38.18
elaps:  c-buildD       8316       0.548    4554.128    23.02
elaps:  DHSCF4            1      11.207      11.207     0.06
elaps:  dfscf             1      10.668      10.668     0.05
elaps:  overfsm           1       0.058       0.058     0.00
elaps:  optical           1       0.000       0.000     0.00
  
>> End of run:  24-APR-2016  23:41:03
