Siesta Version:                                        siesta-3.2-pl-3
Architecture  : x86_64-unknown-linux-gnu--unknown
Compiler flags: mpiifort -g -O2 -fPIC -xSSE4.1 -fp-model source -shared-intel 
PARALLEL version

* Running on   12 nodes in parallel
>> Start of run:   7-MAY-2016   6:42:48

                           ***********************       
                           *  WELCOME TO SIESTA  *       
                           ***********************       

reinit: Reading from standard input
************************** Dump of input data file ****************************
#(1) General system descriptors
SystemName            GRP_doping    # Descriptive name of the system
SystemLabel           GRP_doping    # Short name for naming files
%include STRUCT.fdf
%include KPT.fdf
%include BASIS.fdf
#%include TS.fdf # for transiesta calculation
#(4) DFT, Grid, SCF
XC.functional         GGA           # LDA or GGA (default = LDA)
XC.authors            PBE           # CA (Ceperley-Aldr) = PZ
                                    #    (Perdew-Zunger) - LDA - Default
                                    # PW92 (Perdew-Wang-92) - LDA
                                    # PBE (Perdew-Burke-Ernzerhof) - GGA
MeshCutoff            200.000000    Ry      # Default: 50.0 Ry ~ 0.444 Bohr
                                    #         100.0 Ry ~ 0.314 Bohr
MaxSCFIterations      500           # Default: 50
DM.MixingWeight       0.05          # Default: 0.25
DM.NumberPulay        10            # Default: 0
DM.PulayOnFile        F             # SystemLabel.P1, SystemLabel.P2
DM.Tolerance          1.d-4         # Default: 1.d-4
DM.UseSaveDM          .true.        # because of the bug
SCFMustConverge       .true.
NeglNonOverlapInt     F             # Default: F
#(5) Eigenvalue problem: order-N or diagonalization
SolutionMethod        Diagon        # or Transiesta
ElectronicTemperature 300.0 K       # Default: 300.0 K
#(6) Molecular dynamics and relaxations
#MD.TypeOfRun          CG            # Type of dynamics:
#MD.VariableCell       F
#MD.NumCGsteps         0           # 0 for single-point / 100 for gopt
#MD.MaxCGDispl         0.2 Bohr      # Default: 0.2 Bohr
#MD.MaxForceTol        0.02 eV/Ang   # Default: 0.04 eV/Ang
#MD.MaxStressTol       1.0 GPa       # Default: 1.0 GPa
# Geometry Constraints
#%block GeometryConstraints
#	position from 1 to 44
#%endblock GeometryConstraints
BandLinesScale   pi/a
%block BandLines
 1   0.00000000  0.00000000  0.00000000
50   0.00000000  0.07809418  0.00000000
50   0.04509075  0.07809242  0.00000000
20   0.00000000  0.00000000  0.00000000
%endblock BandLines
************************** End of input data file *****************************

reinit: -----------------------------------------------------------------------
reinit: System Name: GRP_doping
reinit: -----------------------------------------------------------------------
reinit: System Label: GRP_doping                                                  
reinit: -----------------------------------------------------------------------

initatom: Reading input for the pseudopotentials and atomic orbitals ----------
 Species number:            1  Label: N Atomic number:           7
 Species number:            2  Label: C Atomic number:           6
Ground state valence configuration:   2s02  2p03
Reading pseudopotential information in formatted form from N.psf

Valence configuration for pseudopotential generation:
2s( 2.00) rc: 1.48
2p( 3.00) rc: 1.48
3d( 0.00) rc: 1.48
4f( 0.00) rc: 1.48
Ground state valence configuration:   2s02  2p02
Reading pseudopotential information in formatted form from C.psf

Valence configuration for pseudopotential generation:
2s( 2.00) rc: 1.54
2p( 2.00) rc: 1.54
3d( 0.00) rc: 1.54
4f( 0.00) rc: 1.54
For N, standard SIESTA heuristics set lmxkb to 3
 (one more than the basis l, including polarization orbitals).
Use PS.lmax or PS.KBprojectors blocks to override.
For C, standard SIESTA heuristics set lmxkb to 3
 (one more than the basis l, including polarization orbitals).
Use PS.lmax or PS.KBprojectors blocks to override.

<basis_specs>
===============================================================================
N                    Z=   7    Mass=  14.010        Charge= 0.17977+309
Lmxo=1 Lmxkb= 3    BasisType=split      Semic=F
L=0  Nsemic=0  Cnfigmx=2
          n=1  nzeta=2  polorb=0
            splnorm:   0.15000    
               vcte:    0.0000    
               rinn:    0.0000    
                rcs:    0.0000      0.0000    
            lambdas:    1.0000      1.0000    
L=1  Nsemic=0  Cnfigmx=2
          n=1  nzeta=2  polorb=1
            splnorm:   0.15000    
               vcte:    0.0000    
               rinn:    0.0000    
                rcs:    0.0000      0.0000    
            lambdas:    1.0000      1.0000    
-------------------------------------------------------------------------------
L=0  Nkbl=1  erefs: 0.17977+309
L=1  Nkbl=1  erefs: 0.17977+309
L=2  Nkbl=1  erefs: 0.17977+309
L=3  Nkbl=1  erefs: 0.17977+309
===============================================================================
</basis_specs>

atom: Called for N                     (Z =   7)

read_vps: Pseudopotential generation method:
read_vps: ATM3      Troullier-Martins                       
Total valence charge:    5.00000

read_vps: Pseudopotential includes a core correction:
read_vps: Pseudo-core for xc-correction

xc_check: Exchange-correlation functional:
xc_check: GGA Perdew, Burke & Ernzerhof 1996
V l=0 = -2*Zval/r beyond r=  1.4606
V l=1 = -2*Zval/r beyond r=  1.4606
V l=2 = -2*Zval/r beyond r=  1.4606
V l=3 = -2*Zval/r beyond r=  1.4606
All V_l potentials equal beyond r=  1.4606
This should be close to max(r_c) in ps generation
All pots = -2*Zval/r beyond r=  1.4606

VLOCAL1: 99.0% of the norm of Vloc inside     20.347 Ry
VLOCAL1: 99.9% of the norm of Vloc inside     46.372 Ry
atom: Maximum radius for 4*pi*r*r*local-pseudopot. charge    1.76189
atom: Maximum radius for r*vlocal+2*Zval:    1.53550
GHOST: No ghost state for L =  0
GHOST: No ghost state for L =  1
GHOST: No ghost state for L =  2
GHOST: No ghost state for L =  3

KBgen: Kleinman-Bylander projectors: 
   l= 0   rc=  1.634559   el= -1.363963   Ekb=  5.296955   kbcos=  0.335621
   l= 1   rc=  1.614250   el= -0.521451   Ekb= -5.259161   kbcos= -0.433408
   l= 2   rc=  1.718383   el=  0.001991   Ekb= -1.271464   kbcos= -0.007566
   l= 3   rc=  1.761893   el=  0.003093   Ekb= -0.494769   kbcos= -0.001015

KBgen: Total number of  Kleinman-Bylander projectors:   16
atom: -------------------------------------------------------------------------

atom: SANKEY-TYPE ORBITALS:
atom: Selected multiple-zeta basis: split     

SPLIT: Orbitals with angular momentum L= 0

SPLIT: Basis orbitals for state 2s

SPLIT: PAO cut-off radius determined from an
SPLIT: energy shift=  0.007350 Ry

   izeta = 1
                 lambda =    1.000000
                     rc =    4.071465
                 energy =   -1.356470
                kinetic =    1.176977
    potential(screened) =   -2.533447
       potential(ionic) =   -8.057990

   izeta = 2
                 rmatch =    2.905100
              splitnorm =    0.150000
                 energy =   -1.158343
                kinetic =    1.813009
    potential(screened) =   -2.971352
       potential(ionic) =   -8.901931

SPLIT: Orbitals with angular momentum L= 1

SPLIT: Basis orbitals for state 2p

SPLIT: PAO cut-off radius determined from an
SPLIT: energy shift=  0.007350 Ry

   izeta = 1
                 lambda =    1.000000
                     rc =    4.972977
                 energy =   -0.513884
                kinetic =    3.441732
    potential(screened) =   -3.955616
       potential(ionic) =   -9.287901

   izeta = 2
                 rmatch =    3.054066
              splitnorm =    0.150000
                 energy =   -0.318226
                kinetic =    5.125348
    potential(screened) =   -5.443573
       potential(ionic) =  -11.380999

POLgen: Perturbative polarization orbital with L=  2

POLgen: Polarization orbital for state 2p

   izeta = 1
                     rc =    4.972977
                 energy =    1.607437
                kinetic =    3.268125
    potential(screened) =   -1.660688
       potential(ionic) =   -5.973652
atom: Total number of Sankey-type orbitals: 13

atm_pop: Valence configuration (for local Pseudopot. screening):
 2s( 2.00)                                                            
 2p( 3.00)                                                            
Vna: chval, zval:    5.00000   5.00000

Vna:  Cut-off radius for the neutral-atom potential:   4.972977
comcore: Pseudo-core radius Rcore=  1.554824

atom: _________________________________________________________________________

<basis_specs>
===============================================================================
C                    Z=   6    Mass=  12.010        Charge= 0.17977+309
Lmxo=1 Lmxkb= 3    BasisType=split      Semic=F
L=0  Nsemic=0  Cnfigmx=2
          n=1  nzeta=2  polorb=0
            splnorm:   0.15000    
               vcte:    0.0000    
               rinn:    0.0000    
                rcs:    0.0000      0.0000    
            lambdas:    1.0000      1.0000    
L=1  Nsemic=0  Cnfigmx=2
          n=1  nzeta=2  polorb=1
            splnorm:   0.15000    
               vcte:    0.0000    
               rinn:    0.0000    
                rcs:    0.0000      0.0000    
            lambdas:    1.0000      1.0000    
-------------------------------------------------------------------------------
L=0  Nkbl=1  erefs: 0.17977+309
L=1  Nkbl=1  erefs: 0.17977+309
L=2  Nkbl=1  erefs: 0.17977+309
L=3  Nkbl=1  erefs: 0.17977+309
===============================================================================
</basis_specs>

atom: Called for C                     (Z =   6)

read_vps: Pseudopotential generation method:
read_vps: ATM3      Troullier-Martins                       
Total valence charge:    4.00000

read_vps: Pseudopotential includes a core correction:
read_vps: Pseudo-core for xc-correction

xc_check: Exchange-correlation functional:
xc_check: GGA Perdew, Burke & Ernzerhof 1996
V l=0 = -2*Zval/r beyond r=  1.5227
V l=1 = -2*Zval/r beyond r=  1.5227
V l=2 = -2*Zval/r beyond r=  1.5227
V l=3 = -2*Zval/r beyond r=  1.5038
All V_l potentials equal beyond r=  1.5227
This should be close to max(r_c) in ps generation
All pots = -2*Zval/r beyond r=  1.5227

VLOCAL1: 99.0% of the norm of Vloc inside     18.722 Ry
VLOCAL1: 99.9% of the norm of Vloc inside     42.668 Ry
atom: Maximum radius for 4*pi*r*r*local-pseudopot. charge    1.83678
atom: Maximum radius for r*vlocal+2*Zval:    1.58088
GHOST: No ghost state for L =  0
GHOST: No ghost state for L =  1
GHOST: No ghost state for L =  2
GHOST: No ghost state for L =  3

KBgen: Kleinman-Bylander projectors: 
   l= 0   rc=  1.704034   el= -1.009801   Ekb=  5.335044   kbcos=  0.316824
   l= 1   rc=  1.704034   el= -0.388707   Ekb= -3.785862   kbcos= -0.366464
   l= 2   rc=  1.791422   el=  0.001971   Ekb= -0.970471   kbcos= -0.009212
   l= 3   rc=  1.859892   el=  0.003065   Ekb= -0.399525   kbcos= -0.001223

KBgen: Total number of  Kleinman-Bylander projectors:   16
atom: -------------------------------------------------------------------------

atom: SANKEY-TYPE ORBITALS:
atom: Selected multiple-zeta basis: split     

SPLIT: Orbitals with angular momentum L= 0

SPLIT: Basis orbitals for state 2s

SPLIT: PAO cut-off radius determined from an
SPLIT: energy shift=  0.007350 Ry

   izeta = 1
                 lambda =    1.000000
                     rc =    4.632753
                 energy =   -1.002270
                kinetic =    0.855760
    potential(screened) =   -1.858031
       potential(ionic) =   -5.417575

   izeta = 2
                 rmatch =    3.431921
              splitnorm =    0.150000
                 energy =   -0.867111
                kinetic =    1.300804
    potential(screened) =   -2.167915
       potential(ionic) =   -5.962684

SPLIT: Orbitals with angular momentum L= 1

SPLIT: Basis orbitals for state 2p

SPLIT: PAO cut-off radius determined from an
SPLIT: energy shift=  0.007350 Ry

   izeta = 1
                 lambda =    1.000000
                     rc =    5.658549
                 energy =   -0.381140
                kinetic =    2.399701
    potential(screened) =   -2.780841
       potential(ionic) =   -6.206085

   izeta = 2
                 rmatch =    3.653288
              splitnorm =    0.150000
                 energy =   -0.249149
                kinetic =    3.542762
    potential(screened) =   -3.791911
       potential(ionic) =   -7.581078

POLgen: Perturbative polarization orbital with L=  2

POLgen: Polarization orbital for state 2p

   izeta = 1
                     rc =    5.658549
                 energy =    1.109913
                kinetic =    2.304789
    potential(screened) =   -1.194876
       potential(ionic) =   -4.013592
atom: Total number of Sankey-type orbitals: 13

atm_pop: Valence configuration (for local Pseudopot. screening):
 2s( 2.00)                                                            
 2p( 2.00)                                                            
Vna: chval, zval:    4.00000   4.00000

Vna:  Cut-off radius for the neutral-atom potential:   5.658549
comcore: Pseudo-core radius Rcore=  1.791422

atom: _________________________________________________________________________

prinput: Basis input ----------------------------------------------------------

PAO.BasisType split     

%block ChemicalSpeciesLabel
    1    7 N                       # Species index, atomic number, species label
    2    6 C                       # Species index, atomic number, species label
%endblock ChemicalSpeciesLabel

%block PAO.Basis                 # Define Basis set
N                     2                    # Species label, number of l-shells
 n=2   0   2                         # n, l, Nzeta 
   4.071      2.905   
   1.000      1.000   
 n=2   1   2 P   1                   # n, l, Nzeta, Polarization, NzetaPol
   4.973      3.054   
   1.000      1.000   
C                     2                    # Species label, number of l-shells
 n=2   0   2                         # n, l, Nzeta 
   4.633      3.432   
   1.000      1.000   
 n=2   1   2 P   1                   # n, l, Nzeta, Polarization, NzetaPol
   5.659      3.653   
   1.000      1.000   
%endblock PAO.Basis

prinput: ----------------------------------------------------------------------

coor:   Atomic-coordinates input format  =     Fractional

siesta: Atomic coordinates (Bohr) and species
siesta:      2.30256  22.75985   0.00000  1        1
siesta:      2.30256  25.44831   0.00000  1        2
siesta:     -2.35420  22.75985   0.00000  1        3
siesta:     -2.35420  25.44831   0.00000  1        4
siesta:      4.63094  26.79272   0.00000  1        5
siesta:     -0.02582  26.79272   0.00000  1        6
siesta:     -0.02582  29.48119   0.00000  1        7
siesta:      2.30256  30.82560   0.00000  1        8
siesta:     -0.02582   2.59549   0.00000  2        9
siesta:     -0.02582   5.28395   0.00000  2       10
siesta:     -2.35420  38.89134   0.00000  2       11
siesta:     -2.35420  41.57980   0.00000  2       12
siesta:      2.30256  38.89134   0.00000  2       13
siesta:      2.30256  41.57980   0.00000  2       14
siesta:      4.63094  34.85847   0.00000  2       15
siesta:      4.63094  37.54693   0.00000  2       16
siesta:      6.95932  30.82560   0.00000  2       17
siesta:      6.95932  33.51406   0.00000  2       18
siesta:      9.28770  26.79272   0.00000  2       19
siesta:      9.28770  29.48119   0.00000  2       20
siesta:     -4.68258  34.85847   0.00000  2       21
siesta:     -4.68258  37.54693   0.00000  2       22
siesta:      2.30256   6.62836   0.00000  2       23
siesta:      2.30256   9.31683   0.00000  2       24
siesta:      4.63094  10.66124   0.00000  2       25
siesta:      4.63094  13.34970   0.00000  2       26
siesta:      6.95932  14.69411   0.00000  2       27
siesta:      6.95932  17.38257   0.00000  2       28
siesta:      9.28770  18.72698   0.00000  2       29
siesta:      9.28770  21.41544   0.00000  2       30
siesta:     11.61608  22.75985   0.00000  2       31
siesta:     11.61608  25.44831   0.00000  2       32
siesta:     -2.35420   6.62836   0.00000  2       33
siesta:     -2.35420   9.31683   0.00000  2       34
siesta:     -0.02582  10.66124   0.00000  2       35
siesta:     -0.02582  13.34970   0.00000  2       36
siesta:      2.30256  14.69411   0.00000  2       37
siesta:      2.30256  17.38257   0.00000  2       38
siesta:      4.63094  18.72698   0.00000  2       39
siesta:      4.63094  21.41544   0.00000  2       40
siesta:      6.95932  22.75985   0.00000  2       41
siesta:      6.95932  25.44831   0.00000  2       42
siesta:     -4.68258  10.66124   0.00000  2       43
siesta:     -4.68258  13.34970   0.00000  2       44
siesta:     -2.35420  14.69411   0.00000  2       45
siesta:     -2.35420  17.38257   0.00000  2       46
siesta:     -0.02582  18.72698   0.00000  2       47
siesta:     -0.02582  21.41544   0.00000  2       48
siesta:     -7.01096  14.69411   0.00000  2       49
siesta:     -7.01096  17.38257   0.00000  2       50
siesta:     -4.68258  18.72698   0.00000  2       51
siesta:     -4.68258  21.41544   0.00000  2       52
siesta:     -9.33934  18.72698   0.00000  2       53
siesta:     -9.33934  21.41544   0.00000  2       54
siesta:     -7.01096  22.75985   0.00000  2       55
siesta:     -7.01096  25.44831   0.00000  2       56
siesta:    -11.66772  22.75985   0.00000  2       57
siesta:    -11.66772  25.44831   0.00000  2       58
siesta:     -9.33934  26.79272   0.00000  2       59
siesta:     -9.33934  29.48119   0.00000  2       60
siesta:      4.63094  29.48119   0.00000  2       61
siesta:     -4.68258  26.79272   0.00000  2       62
siesta:     -4.68258  29.48119   0.00000  2       63
siesta:      2.30256  33.51406   0.00000  2       64
siesta:     -2.35420  30.82560   0.00000  2       65
siesta:     -2.35420  33.51406   0.00000  2       66
siesta:     -7.01096  30.82560   0.00000  2       67
siesta:     -7.01096  33.51406   0.00000  2       68
siesta:     -0.02582  34.85847   0.00000  2       69
siesta:     -0.02582  37.54693   0.00000  2       70
siesta:     -0.02582  42.92421   0.00000  2       71
siesta:     -0.02582  45.61267   0.00000  2       72

siesta: System type = slab      

initatomlists: Number of atoms, orbitals, and projectors:     72   936  1152

siesta: ******************** Simulation parameters ****************************
siesta:
siesta: The following are some of the parameters of the simulation.
siesta: A complete list of the parameters used, including default values,
siesta: can be found in file out.fdf
siesta:
redata: Non-Collinear-spin run           =     F
redata: SpinPolarized (Up/Down) run      =     F
redata: Number of spin components        =     1
redata: Long output                      =     F
redata: Number of Atomic Species         =        2
redata: Charge density info will appear in .RHO file
redata: Write Mulliken Pop.              =     NO
redata: Mesh Cutoff                      =   200.0000  Ry
redata: Net charge of the system         =     0.0000 |e|
redata: Max. number of SCF Iter          =      500
redata: SCF convergence failure will abort job
redata: Performing Pulay mixing using    =    10 iterations
redata: Mix DM in first SCF step ?       =     F
redata: Write Pulay info on disk?        =     F
redata: Discard 1st Pulay DM after  kick =     F
redata: New DM Mixing Weight             =     0.0500
redata: New DM Occupancy tolerance       = 0.000000000001
redata: No kicks to SCF
redata: DM Mixing Weight for Kicks       =     0.5000
redata: DM Tolerance for SCF             =     0.000100
redata: Require Energy convergence for SCF =     F
redata: DM Energy tolerance for SCF      =     0.000100 eV
redata: Require Harris convergence for SCF =     F
redata: DM Harris energy tolerance for SCF =     0.000100 eV
redata: Using Saved Data (generic)   =     F
redata: Use continuation files for DM    =     T
redata: Neglect nonoverlap interactions  =     F
redata: Method of Calculation            =     Diagonalization
redata: Divide and Conquer               =     T
redata: Electronic Temperature           =     0.0019  Ry
redata: Fix the spin of the system       =     F
redata: Dynamics option                  =     Verlet MD run
redata: Initial MD time step             =        1
redata:   Final MD time step             =        1
redata: Length of MD time step           =     1.0000  fs
redata: Initial Temperature of MD run    =     0.0000  K
redata: Perform a MD quench              =     F
redata: ***********************************************************************
Total number of electrons:   296.000000
Total ionic charge:   296.000000

* ProcessorY, Blocksize:    3  24

k-point displ. along   1 input, could be:     0.50    0.00
k-point displ. along   2 input, could be:     0.50    0.00
 Kpoints in:          231 . Kpoints trimmed:          231

siesta: k-grid: Number of k-points =   231
siesta: k-grid: Cutoff (effective) =     5.000 Ang
siesta: k-grid: Supercell and displacements
siesta: k-grid:   21   0   0      0.500
siesta: k-grid:    0  21   0      0.500
siesta: k-grid:    0   0   1      0.000
Naive supercell factors:     2    2    2

superc: Internal auxiliary supercell:     2 x     2 x     2  =       8
superc: Number of atoms, orbitals, and projectors:    576   7488   9216

* Maximum dynamic memory allocated =     4 MB

siesta:                 ==============================
                            Begin MD step =      1
                        ==============================

superc: Internal auxiliary supercell:     2 x     2 x     2  =       8
superc: Number of atoms, orbitals, and projectors:    576   7488   9216

outcell: Unit cell vectors (Ang):
       12.804619    7.392750    0.000000
        0.000000   14.785500    0.000000
        0.000000    0.000000   10.000000

outcell: Cell vector modules (Ang)   :   14.785500   14.785500   10.000000
outcell: Cell angles (23,13,12) (deg):     90.0000     90.0000     60.0000
outcell: Cell volume (Ang**3)        :   1893.2269
New_DM. Step:     1
Initializing Density Matrix...

InitMesh: MESH =   120 x   120 x    90 =     1296000
InitMesh: Mesh cutoff (required, used) =   200.000   223.865 Ry

* Maximum dynamic memory allocated =   137 MB

stepf: Fermi-Dirac step function

siesta: Program's energy decomposition (eV):
siesta: Ebs     =     -6013.958400
siesta: Eions   =     19688.985824
siesta: Ena     =      4799.292613
siesta: Ekin    =      7049.557044
siesta: Enl     =       400.713334
siesta: DEna    =        -0.000015
siesta: DUscf   =         0.000000
siesta: DUext   =         0.000000
siesta: Exc     =     -4365.069875
siesta: eta*DQ  =         0.000000
siesta: Emadel  =         0.000000
siesta: Emeta   =         0.000000
siesta: Emolmec =         0.000000
siesta: Ekinion =         0.000000
siesta: Eharris =    -11475.260340
siesta: Etot    =    -11804.492725
siesta: FreeEng =    -11804.492725

siesta: iscf   Eharris(eV)      E_KS(eV)   FreeEng(eV)   dDmax  Ef(eV)
siesta:    1   -11475.2603   -11804.4927   -11804.4927  6.3654 -7.3561
timer: Routine,Calls,Time,% = IterSCF        1    3005.979  99.59
elaps: Routine,Calls,Wall,% = IterSCF        1     251.093  99.59
siesta:    2   -16916.3447   -10716.8709   -10716.9373 19.2046 -5.2771
siesta:    3   -11429.2607   -11615.9909   -11615.9945  2.5736 -5.2340
siesta:    4   -11375.9076   -11496.3975   -11496.4629  1.2187 -4.7453
siesta:    5   -11339.6560   -11408.3761   -11408.4423  0.7792 -4.3424
siesta:    6   -11326.1217   -11377.3959   -11377.4305  0.8236 -4.0093
siesta:    7   -11321.1933   -11368.1328   -11368.1820  0.6622 -3.9613
siesta:    8   -11316.2861   -11353.6611   -11353.7196  0.6816 -3.9220
siesta:    9   -11314.6505   -11328.4298   -11328.4773  0.4769 -4.0971
siesta:   10   -11314.1541   -11320.2604   -11320.3081  0.3688 -4.0498
siesta:   11   -11314.6375   -11310.4220   -11310.4739  0.2886 -4.0980
siesta:   12   -11313.7637   -11308.0981   -11308.1495  0.2398 -3.9899
siesta:   13   -11313.4075   -11299.3046   -11299.3482  0.1869 -4.0104
siesta:   14   -11313.1345   -11300.4072   -11300.4668  0.1671 -3.9916
siesta:   15   -11312.8011   -11301.3796   -11301.4435  0.1433 -4.0184
siesta:   16   -11312.2612   -11303.3397   -11303.3945  0.0877 -4.0208
siesta:   17   -11312.2107   -11305.3337   -11305.3994  0.0758 -4.0284
siesta:   18   -11312.1503   -11305.6568   -11305.7193  0.0691 -4.0444
siesta:   19   -11312.1216   -11307.5333   -11307.5941  0.0323 -4.0435
siesta:   20   -11312.1134   -11308.1645   -11308.2246  0.0240 -4.0433
siesta:   21   -11312.1051   -11309.3056   -11309.3651  0.0181 -4.0368
siesta:   22   -11312.0985   -11310.8237   -11310.8855  0.0145 -4.0352
siesta:   23   -11312.0942   -11311.4774   -11311.5410  0.0137 -4.0386
siesta:   24   -11312.0935   -11311.4388   -11311.5020  0.0142 -4.0439
siesta:   25   -11312.0927   -11311.6791   -11311.7405  0.0117 -4.0422
siesta:   26   -11312.0924   -11311.9028   -11311.9645  0.0078 -4.0402
siesta:   27   -11312.0922   -11312.0655   -11312.1275  0.0055 -4.0396
siesta:   28   -11312.0920   -11312.1542   -11312.2163  0.0023 -4.0391
siesta:   29   -11312.0920   -11312.1815   -11312.2436  0.0019 -4.0392
siesta:   30   -11312.0920   -11312.1349   -11312.1970  0.0011 -4.0399
siesta:   31   -11312.0920   -11312.1484   -11312.2104  0.0007 -4.0404
siesta:   32   -11312.0921   -11312.1371   -11312.1991  0.0005 -4.0405
siesta:   33   -11312.0920   -11312.1301   -11312.1920  0.0002 -4.0405
siesta:   34   -11312.0921   -11312.1240   -11312.1860  0.0002 -4.0404
siesta:   35   -11312.0920   -11312.1237   -11312.1856  0.0002 -4.0404
siesta:   36   -11312.0921   -11312.1174   -11312.1793  0.0001 -4.0404
siesta:   37   -11312.0920   -11312.1163   -11312.1782  0.0001 -4.0403
siesta:   38   -11312.0920   -11312.1138   -11312.1758  0.0001 -4.0403

siesta: E_KS(eV) =           -11312.1067

siesta: E_KS - E_eggbox =    -11312.1067

siesta: Atomic forces (eV/Ang):
----------------------------------------
   Tot   -0.086126   -0.332132    0.000000
----------------------------------------
   Max  683.965839
   Res  165.161521    sqrt( Sum f_i^2 / 3N )
----------------------------------------
   Max  683.965839    constrained

Stress-tensor-Voigt (kbar):     -720.81    -2884.12       -0.15       -7.86        0.00        0.00
(Free)E + p*V (eV/cell)    -9892.1912
Target enthalpy (eV/cell)   -11312.1687

siesta: Stress tensor (static) (eV/Ang**3):
        -0.449890   -0.004908    0.000000
        -0.004907   -1.800106    0.000000
         0.000000    0.000000   -0.000095

siesta: Pressure (static):       1201.69399063  kBar

siesta: Stress tensor (total) (eV/Ang**3):
        -0.449890   -0.004908    0.000000
        -0.004907   -1.800106    0.000000
         0.000000    0.000000   -0.000095

siesta: Pressure (total):       1201.69399063  kBar

siesta: Temp_ion =       0.000 K

* Maximum dynamic memory allocated =   150 MB
Computing bands...

siesta: Program's energy decomposition (eV):
siesta: Ebs     =     -4780.727131
siesta: Eions   =     19688.985824
siesta: Ena     =      4799.292613
siesta: Ekin    =     10039.893919
siesta: Enl     =     -1264.070280
siesta: DEna    =      -769.200247
siesta: DUscf   =       104.039124
siesta: DUext   =         0.000000
siesta: Exc     =     -4533.076010
siesta: eta*DQ  =         0.000000
siesta: Emadel  =         0.000000
siesta: Emeta   =         0.000000
siesta: Emolmec =         0.000000
siesta: Ekinion =         0.000000
siesta: Eharris =    -11312.092041
siesta: Etot    =    -11312.106705
siesta: FreeEng =    -11312.168657

siesta: Final energy (eV):
siesta:  Band Struct. =   -4780.727131
siesta:       Kinetic =   10039.893919
siesta:       Hartree =   32723.989556
siesta:    Ext. field =       0.000000
siesta:   Exch.-corr. =   -4533.076010
siesta:  Ion-electron =  -75124.046321
siesta:       Ion-ion =   25581.132150
siesta:       Ekinion =       0.000000
siesta:         Total =  -11312.106705

siesta: Atomic forces (eV/Ang):
siesta:      1   -0.776653   -1.408684    0.000000
siesta:      2    1.698508   -0.840984    0.000000
siesta:      3    1.373035   -0.951020    0.000000
siesta:      4   -0.956448   -0.612697    0.000000
siesta:      5    0.302328    1.532867    0.000000
siesta:      6   -1.374003    4.106609    0.000000
siesta:      7  -18.870012 -683.965839    0.000000
siesta:      8   37.135472   13.405837    0.000000
siesta:      9   12.636809  639.632965    0.000000
siesta:     10    1.471715 -119.146666    0.000000
siesta:     11    1.239575  126.641283    0.000000
siesta:     12  -15.990013 -548.364835    0.000000
siesta:     13   -1.837935  127.491900    0.000000
siesta:     14   16.078087 -549.165425    0.000000
siesta:     15   26.482110    6.824344    0.000000
siesta:     16   33.925532 -549.541430    0.000000
siesta:     17    1.572745   -0.241053    0.000000
siesta:     18   -2.653331    1.761341    0.000000
siesta:     19    1.535098    1.988520    0.000000
siesta:     20   -0.651681    0.539456    0.000000
siesta:     21  -26.553555    5.681412    0.000000
siesta:     22  -32.443632 -549.647452    0.000000
siesta:     23   19.006894  552.745744    0.000000
siesta:     24   -1.211134 -127.756800    0.000000
siesta:     25   34.444194  549.930024    0.000000
siesta:     26   26.489315   -6.562191    0.000000
siesta:     27   -2.539502   -1.750987    0.000000
siesta:     28    2.325833    0.107225    0.000000
siesta:     29   -1.031721   -0.679132    0.000000
siesta:     30    2.112143   -1.678775    0.000000
siesta:     31   -0.273708    6.720019    0.000000
siesta:     32   -0.277528   -6.672401    0.000000
siesta:     33  -15.576724  546.175716    0.000000
siesta:     34    0.995151 -126.665763    0.000000
siesta:     35    0.522193  544.750235    0.000000
siesta:     36    0.344244 -127.248314    0.000000
siesta:     37   20.469349  558.357847    0.000000
siesta:     38   22.631819   -5.590825    0.000000
siesta:     39   -2.254766    3.353163    0.000000
siesta:     40    0.214913   -0.338390    0.000000
siesta:     41   -1.142554    0.970190    0.000000
siesta:     42   -0.641286   -0.902469    0.000000
siesta:     43  -34.484072  550.464469    0.000000
siesta:     44  -26.774342   -6.518078    0.000000
siesta:     45  -21.468721  558.114279    0.000000
siesta:     46  -22.489615   -5.895315    0.000000
siesta:     47    0.511132  563.049351    0.000000
siesta:     48   -0.211156    2.878757    0.000000
siesta:     49    2.368541   -1.544659    0.000000
siesta:     50   -2.171772   -0.063034    0.000000
siesta:     51    2.118589    3.267822    0.000000
siesta:     52   -0.286200   -0.283802    0.000000
siesta:     53    1.196410   -0.384357    0.000000
siesta:     54   -2.132958   -2.132368    0.000000
siesta:     55    0.557402    0.876188    0.000000
siesta:     56    0.523915   -1.070430    0.000000
siesta:     57    0.295316    7.311084    0.000000
siesta:     58    0.340973   -7.201859    0.000000
siesta:     59   -2.166975    2.029929    0.000000
siesta:     60    1.238410    0.527115    0.000000
siesta:     61   -1.524910   -3.050133    0.000000
siesta:     62    0.236760    0.995091    0.000000
siesta:     63    2.022885   -3.396429    0.000000
siesta:     64   12.615155 -560.244474    0.000000
siesta:     65  -25.466779   11.038972    0.000000
siesta:     66  -24.498612 -556.206717    0.000000
siesta:     67   -2.343764   -0.074228    0.000000
siesta:     68    2.528826    1.906244    0.000000
siesta:     69    1.290646  126.983757    0.000000
siesta:     70    0.361777 -544.793492    0.000000
siesta:     71    0.208018  128.023149    0.000000
siesta:     72   -0.431886 -547.923524    0.000000
siesta: ----------------------------------------
siesta:    Tot   -0.086126   -0.332132    0.000000

siesta: Stress tensor (static) (eV/Ang**3):
siesta:    -0.449890   -0.004908    0.000000
siesta:    -0.004907   -1.800106    0.000000
siesta:     0.000000    0.000000   -0.000095

siesta: Cell volume =       1893.226884 Ang**3

siesta: Pressure (static):
siesta:                Solid            Molecule  Units
siesta:           0.00816879          0.12870122  Ry/Bohr**3
siesta:           0.75003029         11.81690850  eV/Ang**3
siesta:        1201.69399063      18932.97933234  kBar
(Free)E+ p_basis*V_orbitals  =      -11282.574747
(Free)Eharris+ p_basis*V_orbitals  =      -11282.552945

siesta: Electric dipole (a.u.)  =    0.000000    0.000000    0.000000
siesta: Electric dipole (Debye) =    0.000000    0.000000    0.000000

* Maximum dynamic memory allocated : Node    0 =   150 MB
* Maximum dynamic memory allocated : Node    1 =    60 MB
* Maximum dynamic memory allocated : Node    2 =    61 MB
* Maximum dynamic memory allocated : Node    3 =   136 MB
* Maximum dynamic memory allocated : Node    4 =   148 MB
* Maximum dynamic memory allocated : Node    5 =    54 MB
* Maximum dynamic memory allocated : Node    6 =    56 MB
* Maximum dynamic memory allocated : Node    7 =   141 MB
* Maximum dynamic memory allocated : Node    8 =   130 MB
* Maximum dynamic memory allocated : Node    9 =    52 MB
* Maximum dynamic memory allocated : Node   10 =    53 MB
* Maximum dynamic memory allocated : Node   11 =   124 MB

* Maximum memory occured during matrixMtoO                    

timer: CPU execution times:
timer:  Routine       Calls   Time/call    Tot.time        %
timer:  siesta            1  112096.194  112096.194   100.00
timer:  Setup             1       3.345       3.345     0.00
timer:  bands             3     226.385     679.155     0.61
timer:  writewave         1       0.024       0.024     0.00
timer:  KSV_init          1       0.000       0.000     0.00
timer:  IterMD            1  111406.775  111406.775    99.38
timer:  hsparse           1       0.170       0.170     0.00
timer:  overlap           1       5.976       5.976     0.01
timer:  IterSCF          38    2928.339  111276.882    99.27
timer:  kinefsm           2       3.034       6.067     0.01
timer:  nlefsm            2      18.770      37.540     0.03
timer:  DHSCF            39      65.245    2544.563     2.27
timer:  DHSCF1            1       0.902       0.902     0.00
timer:  DHSCF2            1      25.405      25.405     0.02
timer:  REORD           314       0.002       0.770     0.00
timer:  POISON           40       0.449      17.976     0.02
timer:  DHSCF3           39      64.007    2496.287     2.23
timer:  rhoofd           39      13.145     512.658     0.46
timer:  cellXC           39       2.424      94.525     0.08
timer:  vmat             39      30.185    1177.204     1.05
timer:  MolMec            2       0.000       0.000     0.00
timer:  diagon           38    2861.924  108753.095    97.02
timer:  c-eigval       8899       5.594   49778.687    44.41
timer:  c-buildHS      8899       0.033     294.704     0.26
timer:  cdiag         17677       5.692  100610.402    89.75
timer:  cdiag1        17677       0.263    4641.566     4.14
timer:  cdiag2        17677       1.838   32483.784    28.98
timer:  cdiag3        17677       3.383   59804.996    53.35
timer:  cdiag4        17677       0.088    1559.764     1.39
timer:  c-eigvec       8778       5.853   51374.578    45.83
timer:  c-buildD       8778       0.938    8230.999     7.34
timer:  DHSCF4            1      21.740      21.740     0.02
timer:  dfscf             1      20.299      20.299     0.02
timer:  overfsm           1       0.282       0.282     0.00
timer:  optical           1       6.319       6.319     0.01
  

elaps: ELAPSED times:
elaps:  Routine       Calls   Time/call    Tot.time        %
elaps:  siesta            1    9363.285    9363.285   100.00
elaps:  Setup             1       0.279       0.279     0.00
elaps:  bands             3      18.925      56.775     0.61
elaps:  writewave         1       0.002       0.002     0.00
elaps:  KSV_init          1       0.000       0.000     0.00
elaps:  IterMD            1    9305.699    9305.699    99.38
elaps:  hsparse           1       0.016       0.016     0.00
elaps:  overlap           1       0.713       0.713     0.01
elaps:  IterSCF          38     244.601    9294.849    99.27
elaps:  kinefsm           2       0.364       0.728     0.01
elaps:  nlefsm            2       1.628       3.256     0.03
elaps:  DHSCF            39       5.497     214.383     2.29
elaps:  DHSCF1            1       0.077       0.077     0.00
elaps:  DHSCF2            1       2.121       2.121     0.02
elaps:  REORD           314       0.000       0.094     0.00
elaps:  POISON           40       0.038       1.511     0.02
elaps:  DHSCF3           39       5.347     208.532     2.23
elaps:  rhoofd           39       2.272      88.618     0.95
elaps:  cellXC           39       0.202       7.881     0.08
elaps:  vmat             39       2.522      98.352     1.05
elaps:  MolMec            2       0.000       0.000     0.00
elaps:  diagon           38     239.060    9084.268    97.02
elaps:  c-eigval       8899       0.467    4157.898    44.41
elaps:  c-buildHS      8899       0.004      31.797     0.34
elaps:  cdiag         17677       0.471    8320.453    88.86
elaps:  cdiag1        17677       0.021     379.514     4.05
elaps:  cdiag2        17677       0.154    2715.793    29.00
elaps:  cdiag3        17677       0.283    5003.193    53.43
elaps:  cdiag4        17677       0.007     125.220     1.34
elaps:  c-eigvec       8778       0.481    4221.630    45.09
elaps:  c-buildD       8778       0.086     756.869     8.08
elaps:  DHSCF4            1       3.611       3.611     0.04
elaps:  dfscf             1       3.420       3.420     0.04
elaps:  overfsm           1       0.031       0.031     0.00
elaps:  optical           1       0.000       0.000     0.00
  
>> End of run:   7-MAY-2016   9:18:51
