Siesta Version:                                        siesta-3.2-pl-3
Architecture  : x86_64-unknown-linux-gnu--unknown
Compiler flags: mpiifort -g -O2 -fPIC -xSSE4.1 -fp-model source -shared-intel 
PARALLEL version

* Running on    8 nodes in parallel
>> Start of run:   7-MAY-2016   7:54:38

                           ***********************       
                           *  WELCOME TO SIESTA  *       
                           ***********************       

reinit: Reading from standard input
************************** Dump of input data file ****************************
#(1) General system descriptors
SystemName            GRP_doping    # Descriptive name of the system
SystemLabel           GRP_doping    # Short name for naming files
%include STRUCT.fdf
%include KPT.fdf
%include BASIS.fdf
#%include TS.fdf # for transiesta calculation
#(4) DFT, Grid, SCF
XC.functional         GGA           # LDA or GGA (default = LDA)
XC.authors            PBE           # CA (Ceperley-Aldr) = PZ
                                    #    (Perdew-Zunger) - LDA - Default
                                    # PW92 (Perdew-Wang-92) - LDA
                                    # PBE (Perdew-Burke-Ernzerhof) - GGA
MeshCutoff            200.000000    Ry      # Default: 50.0 Ry ~ 0.444 Bohr
                                    #         100.0 Ry ~ 0.314 Bohr
MaxSCFIterations      500           # Default: 50
DM.MixingWeight       0.05          # Default: 0.25
DM.NumberPulay        10            # Default: 0
DM.PulayOnFile        F             # SystemLabel.P1, SystemLabel.P2
DM.Tolerance          1.d-4         # Default: 1.d-4
DM.UseSaveDM          .true.        # because of the bug
SCFMustConverge       .true.
NeglNonOverlapInt     F             # Default: F
#(5) Eigenvalue problem: order-N or diagonalization
SolutionMethod        Diagon        # or Transiesta
ElectronicTemperature 300.0 K       # Default: 300.0 K
#(6) Molecular dynamics and relaxations
#MD.TypeOfRun          CG            # Type of dynamics:
#MD.VariableCell       F
#MD.NumCGsteps         0           # 0 for single-point / 100 for gopt
#MD.MaxCGDispl         0.2 Bohr      # Default: 0.2 Bohr
#MD.MaxForceTol        0.02 eV/Ang   # Default: 0.04 eV/Ang
#MD.MaxStressTol       1.0 GPa       # Default: 1.0 GPa
# Geometry Constraints
#%block GeometryConstraints
#	position from 1 to 44
#%endblock GeometryConstraints
BandLinesScale   pi/a
%block BandLines
 1   0.00000000  0.00000000  0.00000000
50   0.00000000  0.07809418  0.00000000
50   0.04509075  0.07809242  0.00000000
20   0.00000000  0.00000000  0.00000000
%endblock BandLines
************************** End of input data file *****************************

reinit: -----------------------------------------------------------------------
reinit: System Name: GRP_doping
reinit: -----------------------------------------------------------------------
reinit: System Label: GRP_doping                                                  
reinit: -----------------------------------------------------------------------

initatom: Reading input for the pseudopotentials and atomic orbitals ----------
 Species number:            1  Label: N Atomic number:           7
 Species number:            2  Label: C Atomic number:           6
Ground state valence configuration:   2s02  2p03
Reading pseudopotential information in formatted form from N.psf

Valence configuration for pseudopotential generation:
2s( 2.00) rc: 1.48
2p( 3.00) rc: 1.48
3d( 0.00) rc: 1.48
4f( 0.00) rc: 1.48
Ground state valence configuration:   2s02  2p02
Reading pseudopotential information in formatted form from C.psf

Valence configuration for pseudopotential generation:
2s( 2.00) rc: 1.54
2p( 2.00) rc: 1.54
3d( 0.00) rc: 1.54
4f( 0.00) rc: 1.54
For N, standard SIESTA heuristics set lmxkb to 3
 (one more than the basis l, including polarization orbitals).
Use PS.lmax or PS.KBprojectors blocks to override.
For C, standard SIESTA heuristics set lmxkb to 3
 (one more than the basis l, including polarization orbitals).
Use PS.lmax or PS.KBprojectors blocks to override.

<basis_specs>
===============================================================================
N                    Z=   7    Mass=  14.010        Charge= 0.17977+309
Lmxo=1 Lmxkb= 3    BasisType=split      Semic=F
L=0  Nsemic=0  Cnfigmx=2
          n=1  nzeta=2  polorb=0
            splnorm:   0.15000    
               vcte:    0.0000    
               rinn:    0.0000    
                rcs:    0.0000      0.0000    
            lambdas:    1.0000      1.0000    
L=1  Nsemic=0  Cnfigmx=2
          n=1  nzeta=2  polorb=1
            splnorm:   0.15000    
               vcte:    0.0000    
               rinn:    0.0000    
                rcs:    0.0000      0.0000    
            lambdas:    1.0000      1.0000    
-------------------------------------------------------------------------------
L=0  Nkbl=1  erefs: 0.17977+309
L=1  Nkbl=1  erefs: 0.17977+309
L=2  Nkbl=1  erefs: 0.17977+309
L=3  Nkbl=1  erefs: 0.17977+309
===============================================================================
</basis_specs>

atom: Called for N                     (Z =   7)

read_vps: Pseudopotential generation method:
read_vps: ATM3      Troullier-Martins                       
Total valence charge:    5.00000

read_vps: Pseudopotential includes a core correction:
read_vps: Pseudo-core for xc-correction

xc_check: Exchange-correlation functional:
xc_check: GGA Perdew, Burke & Ernzerhof 1996
V l=0 = -2*Zval/r beyond r=  1.4606
V l=1 = -2*Zval/r beyond r=  1.4606
V l=2 = -2*Zval/r beyond r=  1.4606
V l=3 = -2*Zval/r beyond r=  1.4606
All V_l potentials equal beyond r=  1.4606
This should be close to max(r_c) in ps generation
All pots = -2*Zval/r beyond r=  1.4606

VLOCAL1: 99.0% of the norm of Vloc inside     20.347 Ry
VLOCAL1: 99.9% of the norm of Vloc inside     46.372 Ry
atom: Maximum radius for 4*pi*r*r*local-pseudopot. charge    1.76189
atom: Maximum radius for r*vlocal+2*Zval:    1.53550
GHOST: No ghost state for L =  0
GHOST: No ghost state for L =  1
GHOST: No ghost state for L =  2
GHOST: No ghost state for L =  3

KBgen: Kleinman-Bylander projectors: 
   l= 0   rc=  1.634559   el= -1.363963   Ekb=  5.296955   kbcos=  0.335621
   l= 1   rc=  1.614250   el= -0.521451   Ekb= -5.259161   kbcos= -0.433408
   l= 2   rc=  1.718383   el=  0.001991   Ekb= -1.271464   kbcos= -0.007566
   l= 3   rc=  1.761893   el=  0.003093   Ekb= -0.494769   kbcos= -0.001015

KBgen: Total number of  Kleinman-Bylander projectors:   16
atom: -------------------------------------------------------------------------

atom: SANKEY-TYPE ORBITALS:
atom: Selected multiple-zeta basis: split     

SPLIT: Orbitals with angular momentum L= 0

SPLIT: Basis orbitals for state 2s

SPLIT: PAO cut-off radius determined from an
SPLIT: energy shift=  0.007350 Ry

   izeta = 1
                 lambda =    1.000000
                     rc =    4.071465
                 energy =   -1.356470
                kinetic =    1.176977
    potential(screened) =   -2.533447
       potential(ionic) =   -8.057990

   izeta = 2
                 rmatch =    2.905100
              splitnorm =    0.150000
                 energy =   -1.158343
                kinetic =    1.813009
    potential(screened) =   -2.971352
       potential(ionic) =   -8.901931

SPLIT: Orbitals with angular momentum L= 1

SPLIT: Basis orbitals for state 2p

SPLIT: PAO cut-off radius determined from an
SPLIT: energy shift=  0.007350 Ry

   izeta = 1
                 lambda =    1.000000
                     rc =    4.972977
                 energy =   -0.513884
                kinetic =    3.441732
    potential(screened) =   -3.955616
       potential(ionic) =   -9.287901

   izeta = 2
                 rmatch =    3.054066
              splitnorm =    0.150000
                 energy =   -0.318226
                kinetic =    5.125348
    potential(screened) =   -5.443573
       potential(ionic) =  -11.380999

POLgen: Perturbative polarization orbital with L=  2

POLgen: Polarization orbital for state 2p

   izeta = 1
                     rc =    4.972977
                 energy =    1.607437
                kinetic =    3.268125
    potential(screened) =   -1.660688
       potential(ionic) =   -5.973652
atom: Total number of Sankey-type orbitals: 13

atm_pop: Valence configuration (for local Pseudopot. screening):
 2s( 2.00)                                                            
 2p( 3.00)                                                            
Vna: chval, zval:    5.00000   5.00000

Vna:  Cut-off radius for the neutral-atom potential:   4.972977
comcore: Pseudo-core radius Rcore=  1.554824

atom: _________________________________________________________________________

<basis_specs>
===============================================================================
C                    Z=   6    Mass=  12.010        Charge= 0.17977+309
Lmxo=1 Lmxkb= 3    BasisType=split      Semic=F
L=0  Nsemic=0  Cnfigmx=2
          n=1  nzeta=2  polorb=0
            splnorm:   0.15000    
               vcte:    0.0000    
               rinn:    0.0000    
                rcs:    0.0000      0.0000    
            lambdas:    1.0000      1.0000    
L=1  Nsemic=0  Cnfigmx=2
          n=1  nzeta=2  polorb=1
            splnorm:   0.15000    
               vcte:    0.0000    
               rinn:    0.0000    
                rcs:    0.0000      0.0000    
            lambdas:    1.0000      1.0000    
-------------------------------------------------------------------------------
L=0  Nkbl=1  erefs: 0.17977+309
L=1  Nkbl=1  erefs: 0.17977+309
L=2  Nkbl=1  erefs: 0.17977+309
L=3  Nkbl=1  erefs: 0.17977+309
===============================================================================
</basis_specs>

atom: Called for C                     (Z =   6)

read_vps: Pseudopotential generation method:
read_vps: ATM3      Troullier-Martins                       
Total valence charge:    4.00000

read_vps: Pseudopotential includes a core correction:
read_vps: Pseudo-core for xc-correction

xc_check: Exchange-correlation functional:
xc_check: GGA Perdew, Burke & Ernzerhof 1996
V l=0 = -2*Zval/r beyond r=  1.5227
V l=1 = -2*Zval/r beyond r=  1.5227
V l=2 = -2*Zval/r beyond r=  1.5227
V l=3 = -2*Zval/r beyond r=  1.5038
All V_l potentials equal beyond r=  1.5227
This should be close to max(r_c) in ps generation
All pots = -2*Zval/r beyond r=  1.5227

VLOCAL1: 99.0% of the norm of Vloc inside     18.722 Ry
VLOCAL1: 99.9% of the norm of Vloc inside     42.668 Ry
atom: Maximum radius for 4*pi*r*r*local-pseudopot. charge    1.83678
atom: Maximum radius for r*vlocal+2*Zval:    1.58088
GHOST: No ghost state for L =  0
GHOST: No ghost state for L =  1
GHOST: No ghost state for L =  2
GHOST: No ghost state for L =  3

KBgen: Kleinman-Bylander projectors: 
   l= 0   rc=  1.704034   el= -1.009801   Ekb=  5.335044   kbcos=  0.316824
   l= 1   rc=  1.704034   el= -0.388707   Ekb= -3.785862   kbcos= -0.366464
   l= 2   rc=  1.791422   el=  0.001971   Ekb= -0.970471   kbcos= -0.009212
   l= 3   rc=  1.859892   el=  0.003065   Ekb= -0.399525   kbcos= -0.001223

KBgen: Total number of  Kleinman-Bylander projectors:   16
atom: -------------------------------------------------------------------------

atom: SANKEY-TYPE ORBITALS:
atom: Selected multiple-zeta basis: split     

SPLIT: Orbitals with angular momentum L= 0

SPLIT: Basis orbitals for state 2s

SPLIT: PAO cut-off radius determined from an
SPLIT: energy shift=  0.007350 Ry

   izeta = 1
                 lambda =    1.000000
                     rc =    4.632753
                 energy =   -1.002270
                kinetic =    0.855760
    potential(screened) =   -1.858031
       potential(ionic) =   -5.417575

   izeta = 2
                 rmatch =    3.431921
              splitnorm =    0.150000
                 energy =   -0.867111
                kinetic =    1.300804
    potential(screened) =   -2.167915
       potential(ionic) =   -5.962684

SPLIT: Orbitals with angular momentum L= 1

SPLIT: Basis orbitals for state 2p

SPLIT: PAO cut-off radius determined from an
SPLIT: energy shift=  0.007350 Ry

   izeta = 1
                 lambda =    1.000000
                     rc =    5.658549
                 energy =   -0.381140
                kinetic =    2.399701
    potential(screened) =   -2.780841
       potential(ionic) =   -6.206085

   izeta = 2
                 rmatch =    3.653288
              splitnorm =    0.150000
                 energy =   -0.249149
                kinetic =    3.542762
    potential(screened) =   -3.791911
       potential(ionic) =   -7.581078

POLgen: Perturbative polarization orbital with L=  2

POLgen: Polarization orbital for state 2p

   izeta = 1
                     rc =    5.658549
                 energy =    1.109913
                kinetic =    2.304789
    potential(screened) =   -1.194876
       potential(ionic) =   -4.013592
atom: Total number of Sankey-type orbitals: 13

atm_pop: Valence configuration (for local Pseudopot. screening):
 2s( 2.00)                                                            
 2p( 2.00)                                                            
Vna: chval, zval:    4.00000   4.00000

Vna:  Cut-off radius for the neutral-atom potential:   5.658549
comcore: Pseudo-core radius Rcore=  1.791422

atom: _________________________________________________________________________

prinput: Basis input ----------------------------------------------------------

PAO.BasisType split     

%block ChemicalSpeciesLabel
    1    7 N                       # Species index, atomic number, species label
    2    6 C                       # Species index, atomic number, species label
%endblock ChemicalSpeciesLabel

%block PAO.Basis                 # Define Basis set
N                     2                    # Species label, number of l-shells
 n=2   0   2                         # n, l, Nzeta 
   4.071      2.905   
   1.000      1.000   
 n=2   1   2 P   1                   # n, l, Nzeta, Polarization, NzetaPol
   4.973      3.054   
   1.000      1.000   
C                     2                    # Species label, number of l-shells
 n=2   0   2                         # n, l, Nzeta 
   4.633      3.432   
   1.000      1.000   
 n=2   1   2 P   1                   # n, l, Nzeta, Polarization, NzetaPol
   5.659      3.653   
   1.000      1.000   
%endblock PAO.Basis

prinput: ----------------------------------------------------------------------

coor:   Atomic-coordinates input format  =     Fractional

siesta: Atomic coordinates (Bohr) and species
siesta:      2.30256  41.57980   0.00000  1        1
siesta:      4.63094  34.85847   0.00000  1        2
siesta:      9.28770  29.48119   0.00000  1        3
siesta:     -0.02582  10.66124   0.00000  1        4
siesta:      2.30256  17.38257   0.00000  1        5
siesta:      6.95932  22.75985   0.00000  1        6
siesta:     -4.68258  10.66124   0.00000  1        7
siesta:     -4.68258  18.72698   0.00000  1        8
siesta:     -9.33934  18.72698   0.00000  1        9
siesta:     -7.01096  25.44831   0.00000  1       10
siesta:     -0.02582  26.79272   0.00000  1       11
siesta:     -2.35420  33.51406   0.00000  1       12
siesta:     -0.02582   2.59549   0.00000  2       13
siesta:     -0.02582   5.28395   0.00000  2       14
siesta:     -2.35420  38.89134   0.00000  2       15
siesta:     -2.35420  41.57980   0.00000  2       16
siesta:      2.30256  38.89134   0.00000  2       17
siesta:      4.63094  37.54693   0.00000  2       18
siesta:      6.95932  30.82560   0.00000  2       19
siesta:      6.95932  33.51406   0.00000  2       20
siesta:      9.28770  26.79272   0.00000  2       21
siesta:     -4.68258  34.85847   0.00000  2       22
siesta:     -4.68258  37.54693   0.00000  2       23
siesta:      2.30256   6.62836   0.00000  2       24
siesta:      2.30256   9.31683   0.00000  2       25
siesta:      4.63094  10.66124   0.00000  2       26
siesta:      4.63094  13.34970   0.00000  2       27
siesta:      6.95932  14.69411   0.00000  2       28
siesta:      6.95932  17.38257   0.00000  2       29
siesta:      9.28770  18.72698   0.00000  2       30
siesta:      9.28770  21.41544   0.00000  2       31
siesta:     11.61608  22.75985   0.00000  2       32
siesta:     11.61608  25.44831   0.00000  2       33
siesta:     -2.35420   6.62836   0.00000  2       34
siesta:     -2.35420   9.31683   0.00000  2       35
siesta:     -0.02582  13.34970   0.00000  2       36
siesta:      2.30256  14.69411   0.00000  2       37
siesta:      4.63094  18.72698   0.00000  2       38
siesta:      4.63094  21.41544   0.00000  2       39
siesta:      6.95932  25.44831   0.00000  2       40
siesta:     -4.68258  13.34970   0.00000  2       41
siesta:     -2.35420  14.69411   0.00000  2       42
siesta:     -2.35420  17.38257   0.00000  2       43
siesta:     -0.02582  18.72698   0.00000  2       44
siesta:     -0.02582  21.41544   0.00000  2       45
siesta:      2.30256  22.75985   0.00000  2       46
siesta:      2.30256  25.44831   0.00000  2       47
siesta:     -7.01096  14.69411   0.00000  2       48
siesta:     -7.01096  17.38257   0.00000  2       49
siesta:     -4.68258  21.41544   0.00000  2       50
siesta:     -2.35420  22.75985   0.00000  2       51
siesta:     -2.35420  25.44831   0.00000  2       52
siesta:     -9.33934  21.41544   0.00000  2       53
siesta:     -7.01096  22.75985   0.00000  2       54
siesta:    -11.66772  22.75985   0.00000  2       55
siesta:    -11.66772  25.44831   0.00000  2       56
siesta:     -9.33934  26.79272   0.00000  2       57
siesta:     -9.33934  29.48119   0.00000  2       58
siesta:      4.63094  26.79272   0.00000  2       59
siesta:      4.63094  29.48119   0.00000  2       60
siesta:     -0.02582  29.48119   0.00000  2       61
siesta:     -4.68258  26.79272   0.00000  2       62
siesta:     -4.68258  29.48119   0.00000  2       63
siesta:      2.30256  30.82560   0.00000  2       64
siesta:      2.30256  33.51406   0.00000  2       65
siesta:     -2.35420  30.82560   0.00000  2       66
siesta:     -7.01096  30.82560   0.00000  2       67
siesta:     -7.01096  33.51406   0.00000  2       68
siesta:     -0.02582  34.85847   0.00000  2       69
siesta:     -0.02582  37.54693   0.00000  2       70
siesta:     -0.02582  42.92421   0.00000  2       71
siesta:     -0.02582  45.61267   0.00000  2       72

siesta: System type = slab      

initatomlists: Number of atoms, orbitals, and projectors:     72   936  1152

siesta: ******************** Simulation parameters ****************************
siesta:
siesta: The following are some of the parameters of the simulation.
siesta: A complete list of the parameters used, including default values,
siesta: can be found in file out.fdf
siesta:
redata: Non-Collinear-spin run           =     F
redata: SpinPolarized (Up/Down) run      =     F
redata: Number of spin components        =     1
redata: Long output                      =     F
redata: Number of Atomic Species         =        2
redata: Charge density info will appear in .RHO file
redata: Write Mulliken Pop.              =     NO
redata: Mesh Cutoff                      =   200.0000  Ry
redata: Net charge of the system         =     0.0000 |e|
redata: Max. number of SCF Iter          =      500
redata: SCF convergence failure will abort job
redata: Performing Pulay mixing using    =    10 iterations
redata: Mix DM in first SCF step ?       =     F
redata: Write Pulay info on disk?        =     F
redata: Discard 1st Pulay DM after  kick =     F
redata: New DM Mixing Weight             =     0.0500
redata: New DM Occupancy tolerance       = 0.000000000001
redata: No kicks to SCF
redata: DM Mixing Weight for Kicks       =     0.5000
redata: DM Tolerance for SCF             =     0.000100
redata: Require Energy convergence for SCF =     F
redata: DM Energy tolerance for SCF      =     0.000100 eV
redata: Require Harris convergence for SCF =     F
redata: DM Harris energy tolerance for SCF =     0.000100 eV
redata: Using Saved Data (generic)   =     F
redata: Use continuation files for DM    =     T
redata: Neglect nonoverlap interactions  =     F
redata: Method of Calculation            =     Diagonalization
redata: Divide and Conquer               =     T
redata: Electronic Temperature           =     0.0019  Ry
redata: Fix the spin of the system       =     F
redata: Dynamics option                  =     Verlet MD run
redata: Initial MD time step             =        1
redata:   Final MD time step             =        1
redata: Length of MD time step           =     1.0000  fs
redata: Initial Temperature of MD run    =     0.0000  K
redata: Perform a MD quench              =     F
redata: ***********************************************************************
Total number of electrons:   300.000000
Total ionic charge:   300.000000

* ProcessorY, Blocksize:    2  24

k-point displ. along   1 input, could be:     0.50    0.00
k-point displ. along   2 input, could be:     0.50    0.00
 Kpoints in:          231 . Kpoints trimmed:          231

siesta: k-grid: Number of k-points =   231
siesta: k-grid: Cutoff (effective) =     5.000 Ang
siesta: k-grid: Supercell and displacements
siesta: k-grid:   21   0   0      0.500
siesta: k-grid:    0  21   0      0.500
siesta: k-grid:    0   0   1      0.000
Naive supercell factors:     2    2    2

superc: Internal auxiliary supercell:     2 x     2 x     2  =       8
superc: Number of atoms, orbitals, and projectors:    576   7488   9216

* Maximum dynamic memory allocated =     4 MB

siesta:                 ==============================
                            Begin MD step =      1
                        ==============================

superc: Internal auxiliary supercell:     2 x     2 x     2  =       8
superc: Number of atoms, orbitals, and projectors:    576   7488   9216

outcell: Unit cell vectors (Ang):
       12.804619    7.392750    0.000000
        0.000000   14.785500    0.000000
        0.000000    0.000000   10.000000

outcell: Cell vector modules (Ang)   :   14.785500   14.785500   10.000000
outcell: Cell angles (23,13,12) (deg):     90.0000     90.0000     60.0000
outcell: Cell volume (Ang**3)        :   1893.2269
New_DM. Step:     1
Initializing Density Matrix...

InitMesh: MESH =   120 x   120 x    90 =     1296000
InitMesh: Mesh cutoff (required, used) =   200.000   223.865 Ry

* Maximum dynamic memory allocated =   190 MB

stepf: Fermi-Dirac step function

siesta: Program's energy decomposition (eV):
siesta: Ebs     =     -6154.724528
siesta: Eions   =     20331.973201
siesta: Ena     =      4856.051005
siesta: Ekin    =      7385.248291
siesta: Enl     =       279.478884
siesta: DEna    =        -0.000015
siesta: DUscf   =         0.000000
siesta: DUext   =         0.000000
siesta: Exc     =     -4473.049466
siesta: eta*DQ  =         0.000000
siesta: Emadel  =         0.000000
siesta: Emeta   =         0.000000
siesta: Emolmec =         0.000000
siesta: Ekinion =         0.000000
siesta: Eharris =    -11935.896596
siesta: Etot    =    -12284.244502
siesta: FreeEng =    -12284.244502

siesta: iscf   Eharris(eV)      E_KS(eV)   FreeEng(eV)   dDmax  Ef(eV)
siesta:    1   -11935.8966   -12284.2445   -12284.2445  5.6843 -7.0355
timer: Routine,Calls,Time,% = IterSCF        1    3433.316  99.70
elaps: Routine,Calls,Wall,% = IterSCF        1     430.001  99.70
siesta:    2   -14699.7554   -11445.6254   -11445.6784  5.9888 -1.7746
siesta:    3   -11871.7477   -12007.0751   -12007.1039  1.6542 -4.2401
siesta:    4   -11835.7809   -11936.6229   -11936.6682  1.0213 -3.9235
siesta:    5   -11797.5890   -11871.6739   -11871.6762  0.6946 -4.0712
siesta:    6   -11793.3470   -11856.3604   -11856.3977  0.6740 -4.1013
siesta:    7   -11792.0389   -11852.9713   -11853.0048  0.6239 -4.1609
siesta:    8   -11786.1028   -11837.5767   -11837.6334  0.5349 -4.1240
siesta:    9   -11785.8373   -11831.2907   -11831.3252  0.4835 -4.1522
siesta:   10   -11784.7160   -11822.8684   -11822.8959  0.3943 -4.0085
siesta:   11   -11785.0290   -11793.9770   -11794.0368  0.3473 -3.9338
siesta:   12   -11785.6967   -11783.1012   -11783.1783  0.2949 -3.8075
siesta:   13   -11785.1233   -11781.4913   -11781.5473  0.2626 -3.8502
siesta:   14   -11784.7186   -11782.3335   -11782.3845  0.1973 -3.8503
siesta:   15   -11784.0560   -11778.6099   -11778.6614  0.1126 -3.9066
siesta:   16   -11783.8779   -11779.0200   -11779.0665  0.0720 -3.9079
siesta:   17   -11783.8376   -11779.5810   -11779.6302  0.0638 -3.9185
siesta:   18   -11783.8125   -11779.8539   -11779.9043  0.0629 -3.9218
siesta:   19   -11783.7954   -11782.3403   -11782.3916  0.0243 -3.9317
siesta:   20   -11783.7896   -11783.3863   -11783.4434  0.0188 -3.9214
siesta:   21   -11783.7779   -11784.0672   -11784.1257  0.0162 -3.9208
siesta:   22   -11783.7696   -11783.7678   -11783.8291  0.0120 -3.9135
siesta:   23   -11783.7701   -11783.4352   -11783.4968  0.0086 -3.9116
siesta:   24   -11783.7700   -11783.5032   -11783.5637  0.0054 -3.9126
siesta:   25   -11783.7699   -11783.7196   -11783.7793  0.0046 -3.9132
siesta:   26   -11783.7685   -11783.8252   -11783.8843  0.0039 -3.9152
siesta:   27   -11783.7693   -11783.7160   -11783.7758  0.0024 -3.9153
siesta:   28   -11783.7688   -11783.7608   -11783.8196  0.0025 -3.9157
siesta:   29   -11783.7688   -11783.7319   -11783.7912  0.0021 -3.9158
siesta:   30   -11783.7690   -11783.7777   -11783.8370  0.0015 -3.9159
siesta:   31   -11783.7687   -11783.8480   -11783.9070  0.0006 -3.9162
siesta:   32   -11783.7687   -11783.8191   -11783.8784  0.0005 -3.9161
siesta:   33   -11783.7687   -11783.7965   -11783.8557  0.0005 -3.9160
siesta:   34   -11783.7687   -11783.7865   -11783.8457  0.0004 -3.9159
siesta:   35   -11783.7687   -11783.7844   -11783.8437  0.0003 -3.9159
siesta:   36   -11783.7687   -11783.7828   -11783.8421  0.0002 -3.9159
siesta:   37   -11783.7687   -11783.7792   -11783.8385  0.0001 -3.9159
siesta:   38   -11783.7687   -11783.7713   -11783.8306  0.0001 -3.9159

siesta: E_KS(eV) =           -11783.7705

siesta: E_KS - E_eggbox =    -11783.7705

siesta: Atomic forces (eV/Ang):
----------------------------------------
   Tot   -0.331452    0.101591    0.000000
----------------------------------------
   Max  673.520824
   Res  176.789955    sqrt( Sum f_i^2 / 3N )
----------------------------------------
   Max  673.520824    constrained

Stress-tensor-Voigt (kbar):     -645.11    -3127.87       -0.10       -2.18        0.00        0.00
(Free)E + p*V (eV/cell)   -10297.6789
Target enthalpy (eV/cell)   -11783.8298

siesta: Stress tensor (static) (eV/Ang**3):
        -0.402642   -0.001360    0.000000
        -0.001360   -1.952243    0.000000
         0.000000    0.000000   -0.000064

siesta: Pressure (static):       1257.69496969  kBar

siesta: Stress tensor (total) (eV/Ang**3):
        -0.402642   -0.001360    0.000000
        -0.001360   -1.952243    0.000000
         0.000000    0.000000   -0.000064

siesta: Pressure (total):       1257.69496969  kBar

siesta: Temp_ion =       0.000 K

* Maximum dynamic memory allocated =   207 MB
Computing bands...

siesta: Program's energy decomposition (eV):
siesta: Ebs     =     -4863.968583
siesta: Eions   =     20331.973201
siesta: Ena     =      4856.051005
siesta: Ekin    =     10474.262592
siesta: Enl     =     -1434.194754
siesta: DEna    =      -807.705797
siesta: DUscf   =       109.444716
siesta: DUext   =         0.000000
siesta: Exc     =     -4649.655061
siesta: eta*DQ  =         0.000000
siesta: Emadel  =         0.000000
siesta: Emeta   =         0.000000
siesta: Emolmec =         0.000000
siesta: Ekinion =         0.000000
siesta: Eharris =    -11783.768694
siesta: Etot    =    -11783.770500
siesta: FreeEng =    -11783.829790

siesta: Final energy (eV):
siesta:  Band Struct. =   -4863.968583
siesta:       Kinetic =   10474.262592
siesta:       Hartree =   33929.768092
siesta:    Ext. field =       0.000000
siesta:   Exch.-corr. =   -4649.655061
siesta:  Ion-electron =  -77914.797495
siesta:       Ion-ion =   26376.651372
siesta:       Ekinion =       0.000000
siesta:         Total =  -11783.770500

siesta: Atomic forces (eV/Ang):
siesta:      1   25.895090 -661.724223    0.000000
siesta:      2   29.564402    6.780108    0.000000
siesta:      3   -1.396435   -0.850925    0.000000
siesta:      4    6.085546  663.783966    0.000000
siesta:      5   27.341335   -1.877204    0.000000
siesta:      6   -0.543852    1.381522    0.000000
siesta:      7  -35.265638  657.973915    0.000000
siesta:      8    0.955577    3.343285    0.000000
siesta:      9    2.601570    0.539567    0.000000
siesta:     10    0.464166   -1.574068    0.000000
siesta:     11   -0.110045    1.011769    0.000000
siesta:     12   -9.068005 -673.520824    0.000000
siesta:     13   -3.417438  545.097782    0.000000
siesta:     14   -2.889155 -128.326769    0.000000
siesta:     15   -0.053084  130.978563    0.000000
siesta:     16  -16.631798 -554.322451    0.000000
siesta:     17    1.881692  121.657708    0.000000
siesta:     18   26.103301 -550.626111    0.000000
siesta:     19    1.637471   -1.356734    0.000000
siesta:     20   -1.636310    0.967822    0.000000
siesta:     21    0.831744    4.184752    0.000000
siesta:     22  -26.582849    8.865623    0.000000
siesta:     23  -25.728279 -654.871865    0.000000
siesta:     24   27.140019  550.015121    0.000000
siesta:     25    0.803790 -129.377410    0.000000
siesta:     26   26.655117  550.625858    0.000000
siesta:     27   26.095406   -5.756422    0.000000
siesta:     28   -2.110114   -1.117480    0.000000
siesta:     29    1.085593   -0.077038    0.000000
siesta:     30   -0.973011    0.209450    0.000000
siesta:     31    1.190907   -1.915155    0.000000
siesta:     32   -0.457610    6.743307    0.000000
siesta:     33   -0.218083   -6.445959    0.000000
siesta:     34  -22.086137  650.695973    0.000000
siesta:     35    3.726464 -128.571535    0.000000
siesta:     36   -3.821299 -121.495747    0.000000
siesta:     37    2.100378  673.074964    0.000000
siesta:     38   -0.545250    3.837119    0.000000
siesta:     39    1.319665   -0.254514    0.000000
siesta:     40   -0.347447   -2.079843    0.000000
siesta:     41  -24.711886   -4.337153    0.000000
siesta:     42  -15.630868  564.634653    0.000000
siesta:     43  -23.526632   -6.914744    0.000000
siesta:     44  -10.361239  576.534550    0.000000
siesta:     45   -0.421554    0.153480    0.000000
siesta:     46   -0.604688    1.392658    0.000000
siesta:     47    0.538833   -0.953919    0.000000
siesta:     48    2.574912   -0.956297    0.000000
siesta:     49   -2.471383    1.004254    0.000000
siesta:     50   -1.086008   -0.094110    0.000000
siesta:     51    0.944879    0.153749    0.000000
siesta:     52   -1.285162   -0.437541    0.000000
siesta:     53   -1.478861   -3.553446    0.000000
siesta:     54    0.928009    1.523494    0.000000
siesta:     55    0.621466    5.925485    0.000000
siesta:     56    0.534011   -6.489708    0.000000
siesta:     57   -1.165774    1.983793    0.000000
siesta:     58    0.758947   -0.271386    0.000000
siesta:     59   -0.296170   -0.183235    0.000000
siesta:     60   -1.161781   -2.041709    0.000000
siesta:     61    2.303234 -567.913055    0.000000
siesta:     62   -0.139891   -0.291396    0.000000
siesta:     63    1.019727   -2.454636    0.000000
siesta:     64   22.796453    6.058650    0.000000
siesta:     65    6.070405 -563.799938    0.000000
siesta:     66  -22.546348    5.607637    0.000000
siesta:     67   -1.300306    0.142212    0.000000
siesta:     68    1.923229    1.500146    0.000000
siesta:     69    3.696751  121.441885    0.000000
siesta:     70   -9.799937 -657.639316    0.000000
siesta:     71    2.084304  126.170700    0.000000
siesta:     72   11.264485 -551.420061    0.000000
siesta: ----------------------------------------
siesta:    Tot   -0.331452    0.101591    0.000000

siesta: Stress tensor (static) (eV/Ang**3):
siesta:    -0.402642   -0.001360    0.000000
siesta:    -0.001360   -1.952243    0.000000
siesta:     0.000000    0.000000   -0.000064

siesta: Cell volume =       1893.226884 Ang**3

siesta: Pressure (static):
siesta:                Solid            Molecule  Units
siesta:           0.00854947          0.13914313  Ry/Bohr**3
siesta:           0.78498297         12.77564942  eV/Ang**3
siesta:        1257.69496969      20469.06823365  kBar
(Free)E+ p_basis*V_orbitals  =      -11754.807735
(Free)Eharris+ p_basis*V_orbitals  =      -11754.805100

siesta: Electric dipole (a.u.)  =    0.000000    0.000000    0.000000
siesta: Electric dipole (Debye) =    0.000000    0.000000    0.000000

* Maximum dynamic memory allocated : Node    0 =   207 MB
* Maximum dynamic memory allocated : Node    1 =    72 MB
* Maximum dynamic memory allocated : Node    2 =    75 MB
* Maximum dynamic memory allocated : Node    3 =   196 MB
* Maximum dynamic memory allocated : Node    4 =   190 MB
* Maximum dynamic memory allocated : Node    5 =    71 MB
* Maximum dynamic memory allocated : Node    6 =    73 MB
* Maximum dynamic memory allocated : Node    7 =   176 MB

* Maximum memory occured during matrixMtoO                    

timer: CPU execution times:
timer:  Routine       Calls   Time/call    Tot.time        %
timer:  siesta            1  129341.442  129341.442   100.00
timer:  Setup             1       2.677       2.677     0.00
timer:  bands             3     244.224     732.671     0.57
timer:  writewave         1       0.018       0.018     0.00
timer:  KSV_init          1       0.005       0.005     0.00
timer:  IterMD            1  128600.889  128600.889    99.43
timer:  hsparse           1       0.282       0.282     0.00
timer:  overlap           1       6.710       6.710     0.01
timer:  IterSCF          38    3380.058  128442.195    99.30
timer:  kinefsm           2       3.468       6.936     0.01
timer:  nlefsm            2      17.597      35.193     0.03
timer:  DHSCF            39      79.212    3089.264     2.39
timer:  DHSCF1            1       0.745       0.745     0.00
timer:  DHSCF2            1      31.394      31.394     0.02
timer:  REORD           314       0.005       1.525     0.00
timer:  POISON           40       0.877      35.075     0.03
timer:  DHSCF3           39      77.606    3026.639     2.34
timer:  rhoofd           39      16.494     643.251     0.50
timer:  cellXC           39       3.248     126.682     0.10
timer:  vmat             39      36.167    1410.501     1.09
timer:  MolMec            2       0.000       0.000     0.00
timer:  diagon           38    3300.111  125404.229    96.96
timer:  c-eigval       8899       6.019   53565.924    41.41
timer:  c-buildHS      8899       0.048     426.412     0.33
timer:  cdiag         17677       6.163  108936.665    84.22
timer:  cdiag1        17677       0.384    6788.282     5.25
timer:  cdiag2        17677       1.768   31251.870    24.16
timer:  cdiag3        17677       3.721   65778.393    50.86
timer:  cdiag4        17677       0.152    2689.443     2.08
timer:  c-eigvec       8778       6.394   56129.301    43.40
timer:  c-buildD       8778       1.868   16396.509    12.68
timer:  DHSCF4            1      29.743      29.743     0.02
timer:  dfscf             1      27.844      27.844     0.02
timer:  overfsm           1       0.385       0.385     0.00
timer:  optical           1       4.540       4.540     0.00
  

elaps: ELAPSED times:
elaps:  Routine       Calls   Time/call    Tot.time        %
elaps:  siesta            1   16198.284   16198.284   100.00
elaps:  Setup             1       0.335       0.335     0.00
elaps:  bands             3      30.603      91.808     0.57
elaps:  writewave         1       0.002       0.002     0.00
elaps:  KSV_init          1       0.000       0.000     0.00
elaps:  IterMD            1   16105.541   16105.541    99.43
elaps:  hsparse           1       0.036       0.036     0.00
elaps:  overlap           1       0.899       0.899     0.01
elaps:  IterSCF          38     423.307   16085.668    99.30
elaps:  kinefsm           2       0.463       0.926     0.01
elaps:  nlefsm            2       2.145       4.289     0.03
elaps:  DHSCF            39      10.023     390.910     2.41
elaps:  DHSCF1            1       0.096       0.096     0.00
elaps:  DHSCF2            1       3.931       3.931     0.02
elaps:  REORD           314       0.001       0.217     0.00
elaps:  POISON           40       0.111       4.440     0.03
elaps:  DHSCF3           39       9.720     379.072     2.34
elaps:  rhoofd           39       4.633     180.698     1.12
elaps:  cellXC           39       0.406      15.853     0.10
elaps:  vmat             39       4.530     176.657     1.09
elaps:  MolMec            2       0.000       0.000     0.00
elaps:  diagon           38     413.300   15705.410    96.96
elaps:  c-eigval       8899       0.754    6708.258    41.41
elaps:  c-buildHS      8899       0.007      58.949     0.36
elaps:  cdiag         17677       0.768   13580.355    83.84
elaps:  cdiag1        17677       0.048     844.927     5.22
elaps:  cdiag2        17677       0.221    3914.885    24.17
elaps:  cdiag3        17677       0.467    8248.649    50.92
elaps:  cdiag4        17677       0.019     337.407     2.08
elaps:  c-eigvec       8778       0.795    6978.638    43.08
elaps:  c-buildD       8778       0.240    2102.489    12.98
elaps:  DHSCF4            1       7.714       7.714     0.05
elaps:  dfscf             1       7.304       7.304     0.05
elaps:  overfsm           1       0.049       0.049     0.00
elaps:  optical           1       0.000       0.000     0.00
  
>> End of run:   7-MAY-2016  12:24:36
