Siesta Version:                                        siesta-3.2-pl-3
Architecture  : x86_64-unknown-linux-gnu--unknown
Compiler flags: mpiifort -g -O2 -fPIC -xSSE4.1 -fp-model source -shared-intel 
PARALLEL version

* Running on    8 nodes in parallel
>> Start of run:  28-APR-2016  20:48:54

                           ***********************       
                           *  WELCOME TO SIESTA  *       
                           ***********************       

reinit: Reading from standard input
************************** Dump of input data file ****************************
#(1) General system descriptors
SystemName            GRP_doping    # Descriptive name of the system
SystemLabel           GRP_doping    # Short name for naming files
%include STRUCT.fdf
%include KPT.fdf
%include BASIS.fdf
#%include TS.fdf # for transiesta calculation
#(4) DFT, Grid, SCF
XC.functional         GGA           # LDA or GGA (default = LDA)
XC.authors            PBE           # CA (Ceperley-Aldr) = PZ
                                    #    (Perdew-Zunger) - LDA - Default
                                    # PW92 (Perdew-Wang-92) - LDA
                                    # PBE (Perdew-Burke-Ernzerhof) - GGA
MeshCutoff            200.000000    Ry      # Default: 50.0 Ry ~ 0.444 Bohr
                                    #         100.0 Ry ~ 0.314 Bohr
MaxSCFIterations      500           # Default: 50
DM.MixingWeight       0.05          # Default: 0.25
DM.NumberPulay        10            # Default: 0
DM.PulayOnFile        F             # SystemLabel.P1, SystemLabel.P2
DM.Tolerance          1.d-4         # Default: 1.d-4
DM.UseSaveDM          .true.        # because of the bug
SCFMustConverge       .true.
NeglNonOverlapInt     F             # Default: F
#(5) Eigenvalue problem: order-N or diagonalization
SolutionMethod        Diagon        # or Transiesta
ElectronicTemperature 300.0 K       # Default: 300.0 K
#(6) Molecular dynamics and relaxations
#MD.TypeOfRun          CG            # Type of dynamics:
#MD.VariableCell       F
#MD.NumCGsteps         0           # 0 for single-point / 100 for gopt
#MD.MaxCGDispl         0.2 Bohr      # Default: 0.2 Bohr
#MD.MaxForceTol        0.02 eV/Ang   # Default: 0.04 eV/Ang
#MD.MaxStressTol       1.0 GPa       # Default: 1.0 GPa
# Geometry Constraints
#%block GeometryConstraints
#	position from 1 to 44
#%endblock GeometryConstraints
BandLinesScale   pi/a
%block BandLines
 1   0.00000000  0.00000000  0.00000000
50   0.00000000  0.07809418  0.00000000
50   0.04509075  0.07809242  0.00000000
20   0.00000000  0.00000000  0.00000000
%endblock BandLines
************************** End of input data file *****************************

reinit: -----------------------------------------------------------------------
reinit: System Name: GRP_doping
reinit: -----------------------------------------------------------------------
reinit: System Label: GRP_doping                                                  
reinit: -----------------------------------------------------------------------

initatom: Reading input for the pseudopotentials and atomic orbitals ----------
 Species number:            1  Label: N Atomic number:           7
 Species number:            2  Label: C Atomic number:           6
Ground state valence configuration:   2s02  2p03
Reading pseudopotential information in formatted form from N.psf

Valence configuration for pseudopotential generation:
2s( 2.00) rc: 1.48
2p( 3.00) rc: 1.48
3d( 0.00) rc: 1.48
4f( 0.00) rc: 1.48
Ground state valence configuration:   2s02  2p02
Reading pseudopotential information in formatted form from C.psf

Valence configuration for pseudopotential generation:
2s( 2.00) rc: 1.54
2p( 2.00) rc: 1.54
3d( 0.00) rc: 1.54
4f( 0.00) rc: 1.54
For N, standard SIESTA heuristics set lmxkb to 3
 (one more than the basis l, including polarization orbitals).
Use PS.lmax or PS.KBprojectors blocks to override.
For C, standard SIESTA heuristics set lmxkb to 3
 (one more than the basis l, including polarization orbitals).
Use PS.lmax or PS.KBprojectors blocks to override.

<basis_specs>
===============================================================================
N                    Z=   7    Mass=  14.010        Charge= 0.17977+309
Lmxo=1 Lmxkb= 3    BasisType=split      Semic=F
L=0  Nsemic=0  Cnfigmx=2
          n=1  nzeta=2  polorb=0
            splnorm:   0.15000    
               vcte:    0.0000    
               rinn:    0.0000    
                rcs:    0.0000      0.0000    
            lambdas:    1.0000      1.0000    
L=1  Nsemic=0  Cnfigmx=2
          n=1  nzeta=2  polorb=1
            splnorm:   0.15000    
               vcte:    0.0000    
               rinn:    0.0000    
                rcs:    0.0000      0.0000    
            lambdas:    1.0000      1.0000    
-------------------------------------------------------------------------------
L=0  Nkbl=1  erefs: 0.17977+309
L=1  Nkbl=1  erefs: 0.17977+309
L=2  Nkbl=1  erefs: 0.17977+309
L=3  Nkbl=1  erefs: 0.17977+309
===============================================================================
</basis_specs>

atom: Called for N                     (Z =   7)

read_vps: Pseudopotential generation method:
read_vps: ATM3      Troullier-Martins                       
Total valence charge:    5.00000

read_vps: Pseudopotential includes a core correction:
read_vps: Pseudo-core for xc-correction

xc_check: Exchange-correlation functional:
xc_check: GGA Perdew, Burke & Ernzerhof 1996
V l=0 = -2*Zval/r beyond r=  1.4606
V l=1 = -2*Zval/r beyond r=  1.4606
V l=2 = -2*Zval/r beyond r=  1.4606
V l=3 = -2*Zval/r beyond r=  1.4606
All V_l potentials equal beyond r=  1.4606
This should be close to max(r_c) in ps generation
All pots = -2*Zval/r beyond r=  1.4606

VLOCAL1: 99.0% of the norm of Vloc inside     20.347 Ry
VLOCAL1: 99.9% of the norm of Vloc inside     46.372 Ry
atom: Maximum radius for 4*pi*r*r*local-pseudopot. charge    1.76189
atom: Maximum radius for r*vlocal+2*Zval:    1.53550
GHOST: No ghost state for L =  0
GHOST: No ghost state for L =  1
GHOST: No ghost state for L =  2
GHOST: No ghost state for L =  3

KBgen: Kleinman-Bylander projectors: 
   l= 0   rc=  1.634559   el= -1.363963   Ekb=  5.296955   kbcos=  0.335621
   l= 1   rc=  1.614250   el= -0.521451   Ekb= -5.259161   kbcos= -0.433408
   l= 2   rc=  1.718383   el=  0.001991   Ekb= -1.271464   kbcos= -0.007566
   l= 3   rc=  1.761893   el=  0.003093   Ekb= -0.494769   kbcos= -0.001015

KBgen: Total number of  Kleinman-Bylander projectors:   16
atom: -------------------------------------------------------------------------

atom: SANKEY-TYPE ORBITALS:
atom: Selected multiple-zeta basis: split     

SPLIT: Orbitals with angular momentum L= 0

SPLIT: Basis orbitals for state 2s

SPLIT: PAO cut-off radius determined from an
SPLIT: energy shift=  0.007350 Ry

   izeta = 1
                 lambda =    1.000000
                     rc =    4.071465
                 energy =   -1.356470
                kinetic =    1.176977
    potential(screened) =   -2.533447
       potential(ionic) =   -8.057990

   izeta = 2
                 rmatch =    2.905100
              splitnorm =    0.150000
                 energy =   -1.158343
                kinetic =    1.813009
    potential(screened) =   -2.971352
       potential(ionic) =   -8.901931

SPLIT: Orbitals with angular momentum L= 1

SPLIT: Basis orbitals for state 2p

SPLIT: PAO cut-off radius determined from an
SPLIT: energy shift=  0.007350 Ry

   izeta = 1
                 lambda =    1.000000
                     rc =    4.972977
                 energy =   -0.513884
                kinetic =    3.441732
    potential(screened) =   -3.955616
       potential(ionic) =   -9.287901

   izeta = 2
                 rmatch =    3.054066
              splitnorm =    0.150000
                 energy =   -0.318226
                kinetic =    5.125348
    potential(screened) =   -5.443573
       potential(ionic) =  -11.380999

POLgen: Perturbative polarization orbital with L=  2

POLgen: Polarization orbital for state 2p

   izeta = 1
                     rc =    4.972977
                 energy =    1.607437
                kinetic =    3.268125
    potential(screened) =   -1.660688
       potential(ionic) =   -5.973652
atom: Total number of Sankey-type orbitals: 13

atm_pop: Valence configuration (for local Pseudopot. screening):
 2s( 2.00)                                                            
 2p( 3.00)                                                            
Vna: chval, zval:    5.00000   5.00000

Vna:  Cut-off radius for the neutral-atom potential:   4.972977
comcore: Pseudo-core radius Rcore=  1.554824

atom: _________________________________________________________________________

<basis_specs>
===============================================================================
C                    Z=   6    Mass=  12.010        Charge= 0.17977+309
Lmxo=1 Lmxkb= 3    BasisType=split      Semic=F
L=0  Nsemic=0  Cnfigmx=2
          n=1  nzeta=2  polorb=0
            splnorm:   0.15000    
               vcte:    0.0000    
               rinn:    0.0000    
                rcs:    0.0000      0.0000    
            lambdas:    1.0000      1.0000    
L=1  Nsemic=0  Cnfigmx=2
          n=1  nzeta=2  polorb=1
            splnorm:   0.15000    
               vcte:    0.0000    
               rinn:    0.0000    
                rcs:    0.0000      0.0000    
            lambdas:    1.0000      1.0000    
-------------------------------------------------------------------------------
L=0  Nkbl=1  erefs: 0.17977+309
L=1  Nkbl=1  erefs: 0.17977+309
L=2  Nkbl=1  erefs: 0.17977+309
L=3  Nkbl=1  erefs: 0.17977+309
===============================================================================
</basis_specs>

atom: Called for C                     (Z =   6)

read_vps: Pseudopotential generation method:
read_vps: ATM3      Troullier-Martins                       
Total valence charge:    4.00000

read_vps: Pseudopotential includes a core correction:
read_vps: Pseudo-core for xc-correction

xc_check: Exchange-correlation functional:
xc_check: GGA Perdew, Burke & Ernzerhof 1996
V l=0 = -2*Zval/r beyond r=  1.5227
V l=1 = -2*Zval/r beyond r=  1.5227
V l=2 = -2*Zval/r beyond r=  1.5227
V l=3 = -2*Zval/r beyond r=  1.5038
All V_l potentials equal beyond r=  1.5227
This should be close to max(r_c) in ps generation
All pots = -2*Zval/r beyond r=  1.5227

VLOCAL1: 99.0% of the norm of Vloc inside     18.722 Ry
VLOCAL1: 99.9% of the norm of Vloc inside     42.668 Ry
atom: Maximum radius for 4*pi*r*r*local-pseudopot. charge    1.83678
atom: Maximum radius for r*vlocal+2*Zval:    1.58088
GHOST: No ghost state for L =  0
GHOST: No ghost state for L =  1
GHOST: No ghost state for L =  2
GHOST: No ghost state for L =  3

KBgen: Kleinman-Bylander projectors: 
   l= 0   rc=  1.704034   el= -1.009801   Ekb=  5.335044   kbcos=  0.316824
   l= 1   rc=  1.704034   el= -0.388707   Ekb= -3.785862   kbcos= -0.366464
   l= 2   rc=  1.791422   el=  0.001971   Ekb= -0.970471   kbcos= -0.009212
   l= 3   rc=  1.859892   el=  0.003065   Ekb= -0.399525   kbcos= -0.001223

KBgen: Total number of  Kleinman-Bylander projectors:   16
atom: -------------------------------------------------------------------------

atom: SANKEY-TYPE ORBITALS:
atom: Selected multiple-zeta basis: split     

SPLIT: Orbitals with angular momentum L= 0

SPLIT: Basis orbitals for state 2s

SPLIT: PAO cut-off radius determined from an
SPLIT: energy shift=  0.007350 Ry

   izeta = 1
                 lambda =    1.000000
                     rc =    4.632753
                 energy =   -1.002270
                kinetic =    0.855760
    potential(screened) =   -1.858031
       potential(ionic) =   -5.417575

   izeta = 2
                 rmatch =    3.431921
              splitnorm =    0.150000
                 energy =   -0.867111
                kinetic =    1.300804
    potential(screened) =   -2.167915
       potential(ionic) =   -5.962684

SPLIT: Orbitals with angular momentum L= 1

SPLIT: Basis orbitals for state 2p

SPLIT: PAO cut-off radius determined from an
SPLIT: energy shift=  0.007350 Ry

   izeta = 1
                 lambda =    1.000000
                     rc =    5.658549
                 energy =   -0.381140
                kinetic =    2.399701
    potential(screened) =   -2.780841
       potential(ionic) =   -6.206085

   izeta = 2
                 rmatch =    3.653288
              splitnorm =    0.150000
                 energy =   -0.249149
                kinetic =    3.542762
    potential(screened) =   -3.791911
       potential(ionic) =   -7.581078

POLgen: Perturbative polarization orbital with L=  2

POLgen: Polarization orbital for state 2p

   izeta = 1
                     rc =    5.658549
                 energy =    1.109913
                kinetic =    2.304789
    potential(screened) =   -1.194876
       potential(ionic) =   -4.013592
atom: Total number of Sankey-type orbitals: 13

atm_pop: Valence configuration (for local Pseudopot. screening):
 2s( 2.00)                                                            
 2p( 2.00)                                                            
Vna: chval, zval:    4.00000   4.00000

Vna:  Cut-off radius for the neutral-atom potential:   5.658549
comcore: Pseudo-core radius Rcore=  1.791422

atom: _________________________________________________________________________

prinput: Basis input ----------------------------------------------------------

PAO.BasisType split     

%block ChemicalSpeciesLabel
    1    7 N                       # Species index, atomic number, species label
    2    6 C                       # Species index, atomic number, species label
%endblock ChemicalSpeciesLabel

%block PAO.Basis                 # Define Basis set
N                     2                    # Species label, number of l-shells
 n=2   0   2                         # n, l, Nzeta 
   4.071      2.905   
   1.000      1.000   
 n=2   1   2 P   1                   # n, l, Nzeta, Polarization, NzetaPol
   4.973      3.054   
   1.000      1.000   
C                     2                    # Species label, number of l-shells
 n=2   0   2                         # n, l, Nzeta 
   4.633      3.432   
   1.000      1.000   
 n=2   1   2 P   1                   # n, l, Nzeta, Polarization, NzetaPol
   5.659      3.653   
   1.000      1.000   
%endblock PAO.Basis

prinput: ----------------------------------------------------------------------

coor:   Atomic-coordinates input format  =     Fractional

siesta: Atomic coordinates (Bohr) and species
siesta:      9.28770  29.48119   0.00000  1        1
siesta:      9.28770  18.72698   0.00000  1        2
siesta:      4.63094  21.41544   0.00000  1        3
siesta:      6.95932  22.75985   0.00000  1        4
siesta:      6.95932  25.44831   0.00000  1        5
siesta:     -0.02582  21.41544   0.00000  1        6
siesta:      2.30256  22.75985   0.00000  1        7
siesta:      2.30256  25.44831   0.00000  1        8
siesta:     -4.68258  21.41544   0.00000  1        9
siesta:     -2.35420  22.75985   0.00000  1       10
siesta:     -2.35420  25.44831   0.00000  1       11
siesta:     -9.33934  21.41544   0.00000  1       12
siesta:     -7.01096  22.75985   0.00000  1       13
siesta:     -7.01096  25.44831   0.00000  1       14
siesta:    -11.66772  22.75985   0.00000  1       15
siesta:    -11.66772  25.44831   0.00000  1       16
siesta:     -9.33934  26.79272   0.00000  1       17
siesta:      4.63094  26.79272   0.00000  1       18
siesta:     -0.02582  26.79272   0.00000  1       19
siesta:     -4.68258  26.79272   0.00000  1       20
siesta:     -0.02582   2.59549   0.00000  2       21
siesta:     -0.02582   5.28395   0.00000  2       22
siesta:     -2.35420  38.89134   0.00000  2       23
siesta:     -2.35420  41.57980   0.00000  2       24
siesta:      2.30256  38.89134   0.00000  2       25
siesta:      2.30256  41.57980   0.00000  2       26
siesta:      4.63094  34.85847   0.00000  2       27
siesta:      4.63094  37.54693   0.00000  2       28
siesta:      6.95932  30.82560   0.00000  2       29
siesta:      6.95932  33.51406   0.00000  2       30
siesta:      9.28770  26.79272   0.00000  2       31
siesta:     -4.68258  34.85847   0.00000  2       32
siesta:     -4.68258  37.54693   0.00000  2       33
siesta:      2.30256   6.62836   0.00000  2       34
siesta:      2.30256   9.31683   0.00000  2       35
siesta:      4.63094  10.66124   0.00000  2       36
siesta:      4.63094  13.34970   0.00000  2       37
siesta:      6.95932  14.69411   0.00000  2       38
siesta:      6.95932  17.38257   0.00000  2       39
siesta:      9.28770  21.41544   0.00000  2       40
siesta:     11.61608  22.75985   0.00000  2       41
siesta:     11.61608  25.44831   0.00000  2       42
siesta:     -2.35420   6.62836   0.00000  2       43
siesta:     -2.35420   9.31683   0.00000  2       44
siesta:     -0.02582  10.66124   0.00000  2       45
siesta:     -0.02582  13.34970   0.00000  2       46
siesta:      2.30256  14.69411   0.00000  2       47
siesta:      2.30256  17.38257   0.00000  2       48
siesta:      4.63094  18.72698   0.00000  2       49
siesta:     -4.68258  10.66124   0.00000  2       50
siesta:     -4.68258  13.34970   0.00000  2       51
siesta:     -2.35420  14.69411   0.00000  2       52
siesta:     -2.35420  17.38257   0.00000  2       53
siesta:     -0.02582  18.72698   0.00000  2       54
siesta:     -7.01096  14.69411   0.00000  2       55
siesta:     -7.01096  17.38257   0.00000  2       56
siesta:     -4.68258  18.72698   0.00000  2       57
siesta:     -9.33934  18.72698   0.00000  2       58
siesta:     -9.33934  29.48119   0.00000  2       59
siesta:      4.63094  29.48119   0.00000  2       60
siesta:     -0.02582  29.48119   0.00000  2       61
siesta:     -4.68258  29.48119   0.00000  2       62
siesta:      2.30256  30.82560   0.00000  2       63
siesta:      2.30256  33.51406   0.00000  2       64
siesta:     -2.35420  30.82560   0.00000  2       65
siesta:     -2.35420  33.51406   0.00000  2       66
siesta:     -7.01096  30.82560   0.00000  2       67
siesta:     -7.01096  33.51406   0.00000  2       68
siesta:     -0.02582  34.85847   0.00000  2       69
siesta:     -0.02582  37.54693   0.00000  2       70
siesta:     -0.02582  42.92421   0.00000  2       71
siesta:     -0.02582  45.61267   0.00000  2       72

siesta: System type = slab      

initatomlists: Number of atoms, orbitals, and projectors:     72   936  1152

siesta: ******************** Simulation parameters ****************************
siesta:
siesta: The following are some of the parameters of the simulation.
siesta: A complete list of the parameters used, including default values,
siesta: can be found in file out.fdf
siesta:
redata: Non-Collinear-spin run           =     F
redata: SpinPolarized (Up/Down) run      =     F
redata: Number of spin components        =     1
redata: Long output                      =     F
redata: Number of Atomic Species         =        2
redata: Charge density info will appear in .RHO file
redata: Write Mulliken Pop.              =     NO
redata: Mesh Cutoff                      =   200.0000  Ry
redata: Net charge of the system         =     0.0000 |e|
redata: Max. number of SCF Iter          =      500
redata: SCF convergence failure will abort job
redata: Performing Pulay mixing using    =    10 iterations
redata: Mix DM in first SCF step ?       =     F
redata: Write Pulay info on disk?        =     F
redata: Discard 1st Pulay DM after  kick =     F
redata: New DM Mixing Weight             =     0.0500
redata: New DM Occupancy tolerance       = 0.000000000001
redata: No kicks to SCF
redata: DM Mixing Weight for Kicks       =     0.5000
redata: DM Tolerance for SCF             =     0.000100
redata: Require Energy convergence for SCF =     F
redata: DM Energy tolerance for SCF      =     0.000100 eV
redata: Require Harris convergence for SCF =     F
redata: DM Harris energy tolerance for SCF =     0.000100 eV
redata: Using Saved Data (generic)   =     F
redata: Use continuation files for DM    =     T
redata: Neglect nonoverlap interactions  =     F
redata: Method of Calculation            =     Diagonalization
redata: Divide and Conquer               =     T
redata: Electronic Temperature           =     0.0019  Ry
redata: Fix the spin of the system       =     F
redata: Dynamics option                  =     Verlet MD run
redata: Initial MD time step             =        1
redata:   Final MD time step             =        1
redata: Length of MD time step           =     1.0000  fs
redata: Initial Temperature of MD run    =     0.0000  K
redata: Perform a MD quench              =     F
redata: ***********************************************************************
Total number of electrons:   308.000000
Total ionic charge:   308.000000

* ProcessorY, Blocksize:    2  24

k-point displ. along   1 input, could be:     0.50    0.00
k-point displ. along   2 input, could be:     0.50    0.00
 Kpoints in:          231 . Kpoints trimmed:          231

siesta: k-grid: Number of k-points =   231
siesta: k-grid: Cutoff (effective) =     5.000 Ang
siesta: k-grid: Supercell and displacements
siesta: k-grid:   21   0   0      0.500
siesta: k-grid:    0  21   0      0.500
siesta: k-grid:    0   0   1      0.000
Naive supercell factors:     2    2    2

superc: Internal auxiliary supercell:     2 x     2 x     2  =       8
superc: Number of atoms, orbitals, and projectors:    576   7488   9216

* Maximum dynamic memory allocated =     4 MB

siesta:                 ==============================
                            Begin MD step =      1
                        ==============================

superc: Internal auxiliary supercell:     2 x     2 x     2  =       8
superc: Number of atoms, orbitals, and projectors:    576   7488   9216

outcell: Unit cell vectors (Ang):
       12.804619    7.392750    0.000000
        0.000000   14.785500    0.000000
        0.000000    0.000000   10.000000

outcell: Cell vector modules (Ang)   :   14.785500   14.785500   10.000000
outcell: Cell angles (23,13,12) (deg):     90.0000     90.0000     60.0000
outcell: Cell volume (Ang**3)        :   1893.2269
New_DM. Step:     1
Initializing Density Matrix...

InitMesh: MESH =   120 x   120 x    90 =     1296000
InitMesh: Mesh cutoff (required, used) =   200.000   223.865 Ry

* Maximum dynamic memory allocated =   185 MB

stepf: Fermi-Dirac step function

siesta: Program's energy decomposition (eV):
siesta: Ebs     =     -6168.735267
siesta: Eions   =     21617.947954
siesta: Ena     =      4909.522640
siesta: Ekin    =      8056.630787
siesta: Enl     =        76.826073
siesta: DEna    =        -0.000015
siesta: DUscf   =         0.000000
siesta: DUext   =         0.000000
siesta: Exc     =     -4658.664203
siesta: eta*DQ  =         0.000000
siesta: Emadel  =         0.000000
siesta: Emeta   =         0.000000
siesta: Emolmec =         0.000000
siesta: Ekinion =         0.000000
siesta: Eharris =    -12903.725485
siesta: Etot    =    -13233.632672
siesta: FreeEng =    -13233.632672

siesta: iscf   Eharris(eV)      E_KS(eV)   FreeEng(eV)   dDmax  Ef(eV)
siesta:    1   -12903.7255   -13233.6327   -13233.6327  6.3528 -6.6734
timer: Routine,Calls,Time,% = IterSCF        1    4090.718  99.72
elaps: Routine,Calls,Wall,% = IterSCF        1     511.915  99.72
siesta:    2   -21278.6255   -11847.2948   -11847.3174 15.1379-10.7276
siesta:    3   -12871.7715   -13056.0412   -13056.0850  2.9914 -5.1265
siesta:    4   -12799.3661   -12925.5720   -12925.6293  1.3811 -4.6245
siesta:    5   -12742.7278   -12802.3945   -12802.4682  0.7861 -3.7107
siesta:    6   -12735.1347   -12768.9321   -12768.9666  0.7237 -3.6416
siesta:    7   -12726.3032   -12751.7258   -12751.7625  0.6282 -3.6930
siesta:    8   -12723.3615   -12726.9303   -12727.0060  0.6370 -3.8916
siesta:    9   -12721.6125   -12722.1610   -12722.1784  0.4909 -3.8308
siesta:   10   -12721.6945   -12716.6769   -12716.7378  0.3520 -3.8797
siesta:   11   -12722.6084   -12704.3177   -12704.3983  0.4031 -3.9581
siesta:   12   -12721.5805   -12703.7860   -12703.8242  0.2606 -3.7827
siesta:   13   -12721.1092   -12700.2088   -12700.2467  0.2032 -3.6717
siesta:   14   -12720.7156   -12703.5676   -12703.6259  0.2171 -3.6113
siesta:   15   -12720.4475   -12706.4674   -12706.5268  0.1898 -3.6544
siesta:   16   -12720.1790   -12713.5576   -12713.6263  0.1479 -3.7836
siesta:   17   -12719.9107   -12716.5930   -12716.6478  0.0778 -3.7780
siesta:   18   -12719.8127   -12716.1619   -12716.2245  0.0486 -3.7982
siesta:   19   -12719.7896   -12715.4768   -12715.5415  0.0396 -3.7681
siesta:   20   -12719.7920   -12717.2511   -12717.3213  0.0279 -3.7524
siesta:   21   -12719.7684   -12718.0983   -12718.1738  0.0298 -3.7461
siesta:   22   -12719.7665   -12721.0800   -12721.1547  0.0258 -3.7522
siesta:   23   -12719.7628   -12720.3302   -12720.4038  0.0208 -3.7424
siesta:   24   -12719.7590   -12719.9636   -12720.0360  0.0128 -3.7360
siesta:   25   -12719.7579   -12719.9813   -12720.0545  0.0052 -3.7351
siesta:   26   -12719.7575   -12720.0718   -12720.1447  0.0046 -3.7344
siesta:   27   -12719.7574   -12720.1111   -12720.1840  0.0041 -3.7389
siesta:   28   -12719.7574   -12719.8698   -12719.9423  0.0026 -3.7392
siesta:   29   -12719.7572   -12719.8192   -12719.8916  0.0022 -3.7401
siesta:   30   -12719.7569   -12719.7664   -12719.8389  0.0020 -3.7404
siesta:   31   -12719.7569   -12719.7484   -12719.8211  0.0015 -3.7412
siesta:   32   -12719.7569   -12719.7289   -12719.8017  0.0012 -3.7413
siesta:   33   -12719.7569   -12719.7278   -12719.8004  0.0010 -3.7411
siesta:   34   -12719.7568   -12719.7590   -12719.8317  0.0004 -3.7407
siesta:   35   -12719.7568   -12719.7763   -12719.8490  0.0003 -3.7408
siesta:   36   -12719.7569   -12719.7687   -12719.8414  0.0003 -3.7408
siesta:   37   -12719.7569   -12719.7621   -12719.8348  0.0002 -3.7407
siesta:   38   -12719.7569   -12719.7565   -12719.8291  0.0001 -3.7406

siesta: E_KS(eV) =           -12719.7566

siesta: E_KS - E_eggbox =    -12719.7566

siesta: Atomic forces (eV/Ang):
----------------------------------------
   Tot   -0.235444   -0.098387    0.000000
----------------------------------------
   Max  566.163778
   Res  161.478144    sqrt( Sum f_i^2 / 3N )
----------------------------------------
   Max  566.163778    constrained

Stress-tensor-Voigt (kbar):     -712.78    -2798.72       -0.01       -0.01        0.00        0.00
(Free)E + p*V (eV/cell)   -11336.7051
Target enthalpy (eV/cell)   -12719.8292

siesta: Stress tensor (static) (eV/Ang**3):
        -0.444879   -0.000003    0.000000
        -0.000003   -1.746806    0.000000
         0.000000    0.000000   -0.000009

siesta: Pressure (static):       1170.50582523  kBar

siesta: Stress tensor (total) (eV/Ang**3):
        -0.444879   -0.000003    0.000000
        -0.000003   -1.746806    0.000000
         0.000000    0.000000   -0.000009

siesta: Pressure (total):       1170.50582523  kBar

siesta: Temp_ion =       0.000 K

* Maximum dynamic memory allocated =   202 MB
Computing bands...

siesta: Program's energy decomposition (eV):
siesta: Ebs     =     -5041.343396
siesta: Eions   =     21617.947954
siesta: Ena     =      4909.522640
siesta: Ekin    =     10944.363722
siesta: Enl     =     -1530.997949
siesta: DEna    =      -712.016421
siesta: DUscf   =       101.294910
siesta: DUext   =         0.000000
siesta: Exc     =     -4813.975515
siesta: eta*DQ  =         0.000000
siesta: Emadel  =         0.000000
siesta: Emeta   =         0.000000
siesta: Emolmec =         0.000000
siesta: Ekinion =         0.000000
siesta: Eharris =    -12719.756873
siesta: Etot    =    -12719.756567
siesta: FreeEng =    -12719.829232

siesta: Final energy (eV):
siesta:  Band Struct. =   -5041.343396
siesta:       Kinetic =   10944.363722
siesta:       Hartree =   34465.333175
siesta:    Ext. field =       0.000000
siesta:   Exch.-corr. =   -4813.975515
siesta:  Ion-electron =  -79446.119341
siesta:       Ion-ion =   26130.641391
siesta:       Ekinion =       0.000000
siesta:         Total =  -12719.756567

siesta: Atomic forces (eV/Ang):
siesta:      1   -1.309612   -2.734040    0.000000
siesta:      2   -1.303013    2.724270    0.000000
siesta:      3    0.071239   -0.361328    0.000000
siesta:      4    0.324504    1.086904    0.000000
siesta:      5    0.318808   -1.079821    0.000000
siesta:      6   -0.346499   -4.405929    0.000000
siesta:      7    1.730518   -0.817932    0.000000
siesta:      8    1.735200    0.821640    0.000000
siesta:      9   -0.161024   -1.540213    0.000000
siesta:     10   -1.870310   -1.440954    0.000000
siesta:     11   -1.870435    1.456942    0.000000
siesta:     12   -1.331024   -3.584201    0.000000
siesta:     13    1.169807    1.736067    0.000000
siesta:     14    1.171263   -1.734169    0.000000
siesta:     15    1.414386    3.271410    0.000000
siesta:     16    1.414921   -3.275885    0.000000
siesta:     17   -1.330037    3.586636    0.000000
siesta:     18    0.084851    0.347859    0.000000
siesta:     19   -0.357834    4.398143    0.000000
siesta:     20   -0.159211    1.529964    0.000000
siesta:     21    0.138033  544.682010    0.000000
siesta:     22   -0.014722 -128.410755    0.000000
siesta:     23    0.606802  126.804662    0.000000
siesta:     24  -16.658073 -549.152866    0.000000
siesta:     25   -0.231042  127.751348    0.000000
siesta:     26   16.651329 -549.732321    0.000000
siesta:     27   26.166228    7.108777    0.000000
siesta:     28   33.946827 -550.289053    0.000000
siesta:     29    1.432230   -1.170911    0.000000
siesta:     30   -2.633817    0.660577    0.000000
siesta:     31    0.690810    4.799590    0.000000
siesta:     32  -26.162716    7.390668    0.000000
siesta:     33  -34.107942 -550.499460    0.000000
siesta:     34   16.660820  549.718795    0.000000
siesta:     35   -0.221732 -127.746352    0.000000
siesta:     36   33.955222  550.282572    0.000000
siesta:     37   26.166433   -7.127770    0.000000
siesta:     38   -2.630192   -0.658164    0.000000
siesta:     39    1.419427    1.167170    0.000000
siesta:     40    0.692459   -4.804471    0.000000
siesta:     41   -0.531715    4.860698    0.000000
siesta:     42   -0.535136   -4.858576    0.000000
siesta:     43  -16.667346  549.153959    0.000000
siesta:     44    0.611418 -126.807643    0.000000
siesta:     45    0.088310  542.323575    0.000000
siesta:     46    0.211429 -127.305167    0.000000
siesta:     47   18.707810  558.355203    0.000000
siesta:     48   23.205379   -5.799721    0.000000
siesta:     49   -0.796393    2.183001    0.000000
siesta:     50  -34.101050  550.515569    0.000000
siesta:     51  -26.184319   -7.376174    0.000000
siesta:     52  -18.961633  558.486468    0.000000
siesta:     53  -23.384085   -5.518896    0.000000
siesta:     54   -0.332586  566.161000    0.000000
siesta:     55    2.453094   -0.700136    0.000000
siesta:     56   -1.092238    0.388183    0.000000
siesta:     57    1.876257    3.137594    0.000000
siesta:     58   -1.072967    2.727186    0.000000
siesta:     59   -1.073226   -2.722406    0.000000
siesta:     60   -0.807238   -2.175249    0.000000
siesta:     61   -0.328857 -566.163778    0.000000
siesta:     62    1.875095   -3.136510    0.000000
siesta:     63   23.220481    5.799867    0.000000
siesta:     64   18.693148 -558.366025    0.000000
siesta:     65  -23.374710    5.517228    0.000000
siesta:     66  -18.953739 -558.487290    0.000000
siesta:     67   -1.080936   -0.387639    0.000000
siesta:     68    2.457293    0.707600    0.000000
siesta:     69    0.185054  127.273130    0.000000
siesta:     70    0.072028 -542.349848    0.000000
siesta:     71   -0.025822  128.385885    0.000000
siesta:     72    0.148874 -544.678886    0.000000
siesta: ----------------------------------------
siesta:    Tot   -0.235444   -0.098387    0.000000

siesta: Stress tensor (static) (eV/Ang**3):
siesta:    -0.444879   -0.000003    0.000000
siesta:    -0.000003   -1.746806    0.000000
siesta:     0.000000    0.000000   -0.000009

siesta: Cell volume =       1893.226884 Ang**3

siesta: Pressure (static):
siesta:                Solid            Molecule  Units
siesta:           0.00795678          0.12568272  Ry/Bohr**3
siesta:           0.73056438         11.53976009  eV/Ang**3
siesta:        1170.50582523      18488.93382566  kBar
(Free)E+ p_basis*V_orbitals  =      -12691.950886
(Free)Eharris+ p_basis*V_orbitals  =      -12691.951284

siesta: Electric dipole (a.u.)  =    0.000000    0.000000    0.000000
siesta: Electric dipole (Debye) =    0.000000    0.000000    0.000000

* Maximum dynamic memory allocated : Node    0 =   202 MB
* Maximum dynamic memory allocated : Node    1 =    72 MB
* Maximum dynamic memory allocated : Node    2 =    74 MB
* Maximum dynamic memory allocated : Node    3 =   194 MB
* Maximum dynamic memory allocated : Node    4 =   183 MB
* Maximum dynamic memory allocated : Node    5 =    70 MB
* Maximum dynamic memory allocated : Node    6 =    71 MB
* Maximum dynamic memory allocated : Node    7 =   167 MB

* Maximum memory occured during matrixMtoO                    

timer: CPU execution times:
timer:  Routine       Calls   Time/call    Tot.time        %
timer:  siesta            1  153102.508  153102.508   100.00
timer:  Setup             1       3.032       3.032     0.00
timer:  bands             3     268.650     805.950     0.53
timer:  writewave         1       0.018       0.018     0.00
timer:  KSV_init          1       0.002       0.002     0.00
timer:  IterMD            1  152287.570  152287.570    99.47
timer:  hsparse           1       0.234       0.234     0.00
timer:  overlap           1       7.702       7.702     0.01
timer:  IterSCF          38    4003.062  152116.373    99.36
timer:  kinefsm           2       3.961       7.922     0.01
timer:  nlefsm            2      18.510      37.019     0.02
timer:  DHSCF            39      90.406    3525.851     2.30
timer:  DHSCF1            1       0.760       0.760     0.00
timer:  DHSCF2            1      33.639      33.639     0.02
timer:  REORD           314       0.010       3.196     0.00
timer:  POISON           40       2.241      89.639     0.06
timer:  DHSCF3           39      88.703    3459.399     2.26
timer:  rhoofd           39      17.054     665.101     0.43
timer:  cellXC           39       3.456     134.799     0.09
timer:  vmat             39      41.924    1635.031     1.07
timer:  MolMec            2       0.000       0.000     0.00
timer:  diagon           38    3911.375  148632.267    97.08
timer:  c-eigval       8899       6.668   59339.917    38.76
timer:  c-buildHS      8899       0.110     982.411     0.64
timer:  cdiag         17677       6.875  121533.722    79.38
timer:  cdiag1        17677       0.427    7553.888     4.93
timer:  cdiag2        17677       1.904   33661.990    21.99
timer:  cdiag3        17677       3.952   69867.446    45.63
timer:  cdiag4        17677       0.205    3623.140     2.37
timer:  c-eigvec       8778       7.245   63598.196    41.54
timer:  c-buildD       8778       3.013   26450.948    17.28
timer:  DHSCF4            1      29.969      29.969     0.02
timer:  dfscf             1      28.188      28.188     0.02
timer:  overfsm           1       0.400       0.400     0.00
timer:  optical           1       5.201       5.201     0.00
  

elaps: ELAPSED times:
elaps:  Routine       Calls   Time/call    Tot.time        %
elaps:  siesta            1   19157.891   19157.891   100.00
elaps:  Setup             1       0.379       0.379     0.00
elaps:  bands             3      33.633     100.898     0.53
elaps:  writewave         1       0.002       0.002     0.00
elaps:  KSV_init          1       0.000       0.000     0.00
elaps:  IterMD            1   19055.926   19055.926    99.47
elaps:  hsparse           1       0.028       0.028     0.00
elaps:  overlap           1       0.965       0.965     0.01
elaps:  IterSCF          38     500.908   19034.512    99.36
elaps:  kinefsm           2       0.495       0.990     0.01
elaps:  nlefsm            2       2.356       4.711     0.02
elaps:  DHSCF            39      11.419     445.332     2.32
elaps:  DHSCF1            1       0.098       0.098     0.00
elaps:  DHSCF2            1       4.202       4.202     0.02
elaps:  REORD           314       0.001       0.401     0.00
elaps:  POISON           40       0.280      11.205     0.06
elaps:  DHSCF3           39      11.096     432.737     2.26
elaps:  rhoofd           39       5.087     198.382     1.04
elaps:  cellXC           39       0.432      16.837     0.09
elaps:  vmat             39       5.243     204.480     1.07
elaps:  MolMec            2       0.000       0.000     0.00
elaps:  diagon           38     489.427   18598.207    97.08
elaps:  c-eigval       8899       0.834    7424.575    38.75
elaps:  c-buildHS      8899       0.015     132.765     0.69
elaps:  cdiag         17677       0.866   15315.787    79.95
elaps:  cdiag1        17677       0.053     934.790     4.88
elaps:  cdiag2        17677       0.238    4211.925    21.99
elaps:  cdiag3        17677       0.495    8753.617    45.69
elaps:  cdiag4        17677       0.026     460.253     2.40
elaps:  c-eigvec       8778       0.921    8086.888    42.21
elaps:  c-buildD       8778       0.362    3181.134    16.60
elaps:  DHSCF4            1       8.014       8.014     0.04
elaps:  dfscf             1       7.622       7.622     0.04
elaps:  overfsm           1       0.047       0.047     0.00
elaps:  optical           1       0.000       0.000     0.00
  
>> End of run:  29-APR-2016   2:08:12
