Siesta Version:                                        siesta-3.2-pl-3
Architecture  : x86_64-unknown-linux-gnu--unknown
Compiler flags: mpiifort -g -O2 -fPIC -xSSE4.1 -fp-model source -shared-intel 
PARALLEL version

* Running on    8 nodes in parallel
>> Start of run:   2-MAY-2016   8:28:59

                           ***********************       
                           *  WELCOME TO SIESTA  *       
                           ***********************       

reinit: Reading from standard input
************************** Dump of input data file ****************************
#(1) General system descriptors
SystemName            GRP_doping    # Descriptive name of the system
SystemLabel           GRP_doping    # Short name for naming files
%include STRUCT.fdf
%include KPT.fdf
%include BASIS.fdf
#%include TS.fdf # for transiesta calculation
#(4) DFT, Grid, SCF
XC.functional         GGA           # LDA or GGA (default = LDA)
XC.authors            PBE           # CA (Ceperley-Aldr) = PZ
                                    #    (Perdew-Zunger) - LDA - Default
                                    # PW92 (Perdew-Wang-92) - LDA
                                    # PBE (Perdew-Burke-Ernzerhof) - GGA
MeshCutoff            200.000000    Ry      # Default: 50.0 Ry ~ 0.444 Bohr
                                    #         100.0 Ry ~ 0.314 Bohr
MaxSCFIterations      500           # Default: 50
DM.MixingWeight       0.05          # Default: 0.25
DM.NumberPulay        10            # Default: 0
DM.PulayOnFile        F             # SystemLabel.P1, SystemLabel.P2
DM.Tolerance          1.d-4         # Default: 1.d-4
DM.UseSaveDM          .true.        # because of the bug
SCFMustConverge       .true.
NeglNonOverlapInt     F             # Default: F
#(5) Eigenvalue problem: order-N or diagonalization
SolutionMethod        Diagon        # or Transiesta
ElectronicTemperature 300.0 K       # Default: 300.0 K
#(6) Molecular dynamics and relaxations
#MD.TypeOfRun          CG            # Type of dynamics:
#MD.VariableCell       F
#MD.NumCGsteps         0           # 0 for single-point / 100 for gopt
#MD.MaxCGDispl         0.2 Bohr      # Default: 0.2 Bohr
#MD.MaxForceTol        0.02 eV/Ang   # Default: 0.04 eV/Ang
#MD.MaxStressTol       1.0 GPa       # Default: 1.0 GPa
# Geometry Constraints
#%block GeometryConstraints
#	position from 1 to 44
#%endblock GeometryConstraints
BandLinesScale   pi/a
%block BandLines
 1   0.00000000  0.00000000  0.00000000
50   0.00000000  0.07809418  0.00000000
50   0.04509075  0.07809242  0.00000000
20   0.00000000  0.00000000  0.00000000
%endblock BandLines
************************** End of input data file *****************************

reinit: -----------------------------------------------------------------------
reinit: System Name: GRP_doping
reinit: -----------------------------------------------------------------------
reinit: System Label: GRP_doping                                                  
reinit: -----------------------------------------------------------------------

initatom: Reading input for the pseudopotentials and atomic orbitals ----------
 Species number:            1  Label: N Atomic number:           7
 Species number:            2  Label: C Atomic number:           6
Ground state valence configuration:   2s02  2p03
Reading pseudopotential information in formatted form from N.psf

Valence configuration for pseudopotential generation:
2s( 2.00) rc: 1.48
2p( 3.00) rc: 1.48
3d( 0.00) rc: 1.48
4f( 0.00) rc: 1.48
Ground state valence configuration:   2s02  2p02
Reading pseudopotential information in formatted form from C.psf

Valence configuration for pseudopotential generation:
2s( 2.00) rc: 1.54
2p( 2.00) rc: 1.54
3d( 0.00) rc: 1.54
4f( 0.00) rc: 1.54
For N, standard SIESTA heuristics set lmxkb to 3
 (one more than the basis l, including polarization orbitals).
Use PS.lmax or PS.KBprojectors blocks to override.
For C, standard SIESTA heuristics set lmxkb to 3
 (one more than the basis l, including polarization orbitals).
Use PS.lmax or PS.KBprojectors blocks to override.

<basis_specs>
===============================================================================
N                    Z=   7    Mass=  14.010        Charge= 0.17977+309
Lmxo=1 Lmxkb= 3    BasisType=split      Semic=F
L=0  Nsemic=0  Cnfigmx=2
          n=1  nzeta=2  polorb=0
            splnorm:   0.15000    
               vcte:    0.0000    
               rinn:    0.0000    
                rcs:    0.0000      0.0000    
            lambdas:    1.0000      1.0000    
L=1  Nsemic=0  Cnfigmx=2
          n=1  nzeta=2  polorb=1
            splnorm:   0.15000    
               vcte:    0.0000    
               rinn:    0.0000    
                rcs:    0.0000      0.0000    
            lambdas:    1.0000      1.0000    
-------------------------------------------------------------------------------
L=0  Nkbl=1  erefs: 0.17977+309
L=1  Nkbl=1  erefs: 0.17977+309
L=2  Nkbl=1  erefs: 0.17977+309
L=3  Nkbl=1  erefs: 0.17977+309
===============================================================================
</basis_specs>

atom: Called for N                     (Z =   7)

read_vps: Pseudopotential generation method:
read_vps: ATM3      Troullier-Martins                       
Total valence charge:    5.00000

read_vps: Pseudopotential includes a core correction:
read_vps: Pseudo-core for xc-correction

xc_check: Exchange-correlation functional:
xc_check: GGA Perdew, Burke & Ernzerhof 1996
V l=0 = -2*Zval/r beyond r=  1.4606
V l=1 = -2*Zval/r beyond r=  1.4606
V l=2 = -2*Zval/r beyond r=  1.4606
V l=3 = -2*Zval/r beyond r=  1.4606
All V_l potentials equal beyond r=  1.4606
This should be close to max(r_c) in ps generation
All pots = -2*Zval/r beyond r=  1.4606

VLOCAL1: 99.0% of the norm of Vloc inside     20.347 Ry
VLOCAL1: 99.9% of the norm of Vloc inside     46.372 Ry
atom: Maximum radius for 4*pi*r*r*local-pseudopot. charge    1.76189
atom: Maximum radius for r*vlocal+2*Zval:    1.53550
GHOST: No ghost state for L =  0
GHOST: No ghost state for L =  1
GHOST: No ghost state for L =  2
GHOST: No ghost state for L =  3

KBgen: Kleinman-Bylander projectors: 
   l= 0   rc=  1.634559   el= -1.363963   Ekb=  5.296955   kbcos=  0.335621
   l= 1   rc=  1.614250   el= -0.521451   Ekb= -5.259161   kbcos= -0.433408
   l= 2   rc=  1.718383   el=  0.001991   Ekb= -1.271464   kbcos= -0.007566
   l= 3   rc=  1.761893   el=  0.003093   Ekb= -0.494769   kbcos= -0.001015

KBgen: Total number of  Kleinman-Bylander projectors:   16
atom: -------------------------------------------------------------------------

atom: SANKEY-TYPE ORBITALS:
atom: Selected multiple-zeta basis: split     

SPLIT: Orbitals with angular momentum L= 0

SPLIT: Basis orbitals for state 2s

SPLIT: PAO cut-off radius determined from an
SPLIT: energy shift=  0.007350 Ry

   izeta = 1
                 lambda =    1.000000
                     rc =    4.071465
                 energy =   -1.356470
                kinetic =    1.176977
    potential(screened) =   -2.533447
       potential(ionic) =   -8.057990

   izeta = 2
                 rmatch =    2.905100
              splitnorm =    0.150000
                 energy =   -1.158343
                kinetic =    1.813009
    potential(screened) =   -2.971352
       potential(ionic) =   -8.901931

SPLIT: Orbitals with angular momentum L= 1

SPLIT: Basis orbitals for state 2p

SPLIT: PAO cut-off radius determined from an
SPLIT: energy shift=  0.007350 Ry

   izeta = 1
                 lambda =    1.000000
                     rc =    4.972977
                 energy =   -0.513884
                kinetic =    3.441732
    potential(screened) =   -3.955616
       potential(ionic) =   -9.287901

   izeta = 2
                 rmatch =    3.054066
              splitnorm =    0.150000
                 energy =   -0.318226
                kinetic =    5.125348
    potential(screened) =   -5.443573
       potential(ionic) =  -11.380999

POLgen: Perturbative polarization orbital with L=  2

POLgen: Polarization orbital for state 2p

   izeta = 1
                     rc =    4.972977
                 energy =    1.607437
                kinetic =    3.268125
    potential(screened) =   -1.660688
       potential(ionic) =   -5.973652
atom: Total number of Sankey-type orbitals: 13

atm_pop: Valence configuration (for local Pseudopot. screening):
 2s( 2.00)                                                            
 2p( 3.00)                                                            
Vna: chval, zval:    5.00000   5.00000

Vna:  Cut-off radius for the neutral-atom potential:   4.972977
comcore: Pseudo-core radius Rcore=  1.554824

atom: _________________________________________________________________________

<basis_specs>
===============================================================================
C                    Z=   6    Mass=  12.010        Charge= 0.17977+309
Lmxo=1 Lmxkb= 3    BasisType=split      Semic=F
L=0  Nsemic=0  Cnfigmx=2
          n=1  nzeta=2  polorb=0
            splnorm:   0.15000    
               vcte:    0.0000    
               rinn:    0.0000    
                rcs:    0.0000      0.0000    
            lambdas:    1.0000      1.0000    
L=1  Nsemic=0  Cnfigmx=2
          n=1  nzeta=2  polorb=1
            splnorm:   0.15000    
               vcte:    0.0000    
               rinn:    0.0000    
                rcs:    0.0000      0.0000    
            lambdas:    1.0000      1.0000    
-------------------------------------------------------------------------------
L=0  Nkbl=1  erefs: 0.17977+309
L=1  Nkbl=1  erefs: 0.17977+309
L=2  Nkbl=1  erefs: 0.17977+309
L=3  Nkbl=1  erefs: 0.17977+309
===============================================================================
</basis_specs>

atom: Called for C                     (Z =   6)

read_vps: Pseudopotential generation method:
read_vps: ATM3      Troullier-Martins                       
Total valence charge:    4.00000

read_vps: Pseudopotential includes a core correction:
read_vps: Pseudo-core for xc-correction

xc_check: Exchange-correlation functional:
xc_check: GGA Perdew, Burke & Ernzerhof 1996
V l=0 = -2*Zval/r beyond r=  1.5227
V l=1 = -2*Zval/r beyond r=  1.5227
V l=2 = -2*Zval/r beyond r=  1.5227
V l=3 = -2*Zval/r beyond r=  1.5038
All V_l potentials equal beyond r=  1.5227
This should be close to max(r_c) in ps generation
All pots = -2*Zval/r beyond r=  1.5227

VLOCAL1: 99.0% of the norm of Vloc inside     18.722 Ry
VLOCAL1: 99.9% of the norm of Vloc inside     42.668 Ry
atom: Maximum radius for 4*pi*r*r*local-pseudopot. charge    1.83678
atom: Maximum radius for r*vlocal+2*Zval:    1.58088
GHOST: No ghost state for L =  0
GHOST: No ghost state for L =  1
GHOST: No ghost state for L =  2
GHOST: No ghost state for L =  3

KBgen: Kleinman-Bylander projectors: 
   l= 0   rc=  1.704034   el= -1.009801   Ekb=  5.335044   kbcos=  0.316824
   l= 1   rc=  1.704034   el= -0.388707   Ekb= -3.785862   kbcos= -0.366464
   l= 2   rc=  1.791422   el=  0.001971   Ekb= -0.970471   kbcos= -0.009212
   l= 3   rc=  1.859892   el=  0.003065   Ekb= -0.399525   kbcos= -0.001223

KBgen: Total number of  Kleinman-Bylander projectors:   16
atom: -------------------------------------------------------------------------

atom: SANKEY-TYPE ORBITALS:
atom: Selected multiple-zeta basis: split     

SPLIT: Orbitals with angular momentum L= 0

SPLIT: Basis orbitals for state 2s

SPLIT: PAO cut-off radius determined from an
SPLIT: energy shift=  0.007350 Ry

   izeta = 1
                 lambda =    1.000000
                     rc =    4.632753
                 energy =   -1.002270
                kinetic =    0.855760
    potential(screened) =   -1.858031
       potential(ionic) =   -5.417575

   izeta = 2
                 rmatch =    3.431921
              splitnorm =    0.150000
                 energy =   -0.867111
                kinetic =    1.300804
    potential(screened) =   -2.167915
       potential(ionic) =   -5.962684

SPLIT: Orbitals with angular momentum L= 1

SPLIT: Basis orbitals for state 2p

SPLIT: PAO cut-off radius determined from an
SPLIT: energy shift=  0.007350 Ry

   izeta = 1
                 lambda =    1.000000
                     rc =    5.658549
                 energy =   -0.381140
                kinetic =    2.399701
    potential(screened) =   -2.780841
       potential(ionic) =   -6.206085

   izeta = 2
                 rmatch =    3.653288
              splitnorm =    0.150000
                 energy =   -0.249149
                kinetic =    3.542762
    potential(screened) =   -3.791911
       potential(ionic) =   -7.581078

POLgen: Perturbative polarization orbital with L=  2

POLgen: Polarization orbital for state 2p

   izeta = 1
                     rc =    5.658549
                 energy =    1.109913
                kinetic =    2.304789
    potential(screened) =   -1.194876
       potential(ionic) =   -4.013592
atom: Total number of Sankey-type orbitals: 13

atm_pop: Valence configuration (for local Pseudopot. screening):
 2s( 2.00)                                                            
 2p( 2.00)                                                            
Vna: chval, zval:    4.00000   4.00000

Vna:  Cut-off radius for the neutral-atom potential:   5.658549
comcore: Pseudo-core radius Rcore=  1.791422

atom: _________________________________________________________________________

prinput: Basis input ----------------------------------------------------------

PAO.BasisType split     

%block ChemicalSpeciesLabel
    1    7 N                       # Species index, atomic number, species label
    2    6 C                       # Species index, atomic number, species label
%endblock ChemicalSpeciesLabel

%block PAO.Basis                 # Define Basis set
N                     2                    # Species label, number of l-shells
 n=2   0   2                         # n, l, Nzeta 
   4.071      2.905   
   1.000      1.000   
 n=2   1   2 P   1                   # n, l, Nzeta, Polarization, NzetaPol
   4.973      3.054   
   1.000      1.000   
C                     2                    # Species label, number of l-shells
 n=2   0   2                         # n, l, Nzeta 
   4.633      3.432   
   1.000      1.000   
 n=2   1   2 P   1                   # n, l, Nzeta, Polarization, NzetaPol
   5.659      3.653   
   1.000      1.000   
%endblock PAO.Basis

prinput: ----------------------------------------------------------------------

coor:   Atomic-coordinates input format  =     Fractional

siesta: Atomic coordinates (Bohr) and species
siesta:      9.28770  26.79272   0.00000  1        1
siesta:      9.28770  21.41544   0.00000  1        2
siesta:     11.61608  22.75985   0.00000  1        3
siesta:     11.61608  25.44831   0.00000  1        4
siesta:     -0.02582  13.34970   0.00000  1        5
siesta:      6.95932  22.75985   0.00000  1        6
siesta:      6.95932  25.44831   0.00000  1        7
siesta:     -2.35420  14.69411   0.00000  1        8
siesta:     -2.35420  17.38257   0.00000  1        9
siesta:     -9.33934  21.41544   0.00000  1       10
siesta:     -7.01096  22.75985   0.00000  1       11
siesta:     -7.01096  25.44831   0.00000  1       12
siesta:    -11.66772  22.75985   0.00000  1       13
siesta:    -11.66772  25.44831   0.00000  1       14
siesta:     -9.33934  26.79272   0.00000  1       15
siesta:      4.63094  29.48119   0.00000  1       16
siesta:      2.30256  30.82560   0.00000  1       17
siesta:      2.30256  33.51406   0.00000  1       18
siesta:     -0.02582  34.85847   0.00000  1       19
siesta:     -0.02582   2.59549   0.00000  2       20
siesta:     -0.02582   5.28395   0.00000  2       21
siesta:     -2.35420  38.89134   0.00000  2       22
siesta:     -2.35420  41.57980   0.00000  2       23
siesta:      2.30256  38.89134   0.00000  2       24
siesta:      2.30256  41.57980   0.00000  2       25
siesta:      4.63094  34.85847   0.00000  2       26
siesta:      4.63094  37.54693   0.00000  2       27
siesta:      6.95932  30.82560   0.00000  2       28
siesta:      6.95932  33.51406   0.00000  2       29
siesta:      9.28770  29.48119   0.00000  2       30
siesta:     -4.68258  34.85847   0.00000  2       31
siesta:     -4.68258  37.54693   0.00000  2       32
siesta:      2.30256   6.62836   0.00000  2       33
siesta:      2.30256   9.31683   0.00000  2       34
siesta:      4.63094  10.66124   0.00000  2       35
siesta:      4.63094  13.34970   0.00000  2       36
siesta:      6.95932  14.69411   0.00000  2       37
siesta:      6.95932  17.38257   0.00000  2       38
siesta:      9.28770  18.72698   0.00000  2       39
siesta:     -2.35420   6.62836   0.00000  2       40
siesta:     -2.35420   9.31683   0.00000  2       41
siesta:     -0.02582  10.66124   0.00000  2       42
siesta:      2.30256  14.69411   0.00000  2       43
siesta:      2.30256  17.38257   0.00000  2       44
siesta:      4.63094  18.72698   0.00000  2       45
siesta:      4.63094  21.41544   0.00000  2       46
siesta:     -4.68258  10.66124   0.00000  2       47
siesta:     -4.68258  13.34970   0.00000  2       48
siesta:     -0.02582  18.72698   0.00000  2       49
siesta:     -0.02582  21.41544   0.00000  2       50
siesta:      2.30256  22.75985   0.00000  2       51
siesta:      2.30256  25.44831   0.00000  2       52
siesta:     -7.01096  14.69411   0.00000  2       53
siesta:     -7.01096  17.38257   0.00000  2       54
siesta:     -4.68258  18.72698   0.00000  2       55
siesta:     -4.68258  21.41544   0.00000  2       56
siesta:     -2.35420  22.75985   0.00000  2       57
siesta:     -2.35420  25.44831   0.00000  2       58
siesta:     -9.33934  18.72698   0.00000  2       59
siesta:     -9.33934  29.48119   0.00000  2       60
siesta:      4.63094  26.79272   0.00000  2       61
siesta:     -0.02582  26.79272   0.00000  2       62
siesta:     -0.02582  29.48119   0.00000  2       63
siesta:     -4.68258  26.79272   0.00000  2       64
siesta:     -4.68258  29.48119   0.00000  2       65
siesta:     -2.35420  30.82560   0.00000  2       66
siesta:     -2.35420  33.51406   0.00000  2       67
siesta:     -7.01096  30.82560   0.00000  2       68
siesta:     -7.01096  33.51406   0.00000  2       69
siesta:     -0.02582  37.54693   0.00000  2       70
siesta:     -0.02582  42.92421   0.00000  2       71
siesta:     -0.02582  45.61267   0.00000  2       72

siesta: System type = slab      

initatomlists: Number of atoms, orbitals, and projectors:     72   936  1152

siesta: ******************** Simulation parameters ****************************
siesta:
siesta: The following are some of the parameters of the simulation.
siesta: A complete list of the parameters used, including default values,
siesta: can be found in file out.fdf
siesta:
redata: Non-Collinear-spin run           =     F
redata: SpinPolarized (Up/Down) run      =     F
redata: Number of spin components        =     1
redata: Long output                      =     F
redata: Number of Atomic Species         =        2
redata: Charge density info will appear in .RHO file
redata: Write Mulliken Pop.              =     NO
redata: Mesh Cutoff                      =   200.0000  Ry
redata: Net charge of the system         =     0.0000 |e|
redata: Max. number of SCF Iter          =      500
redata: SCF convergence failure will abort job
redata: Performing Pulay mixing using    =    10 iterations
redata: Mix DM in first SCF step ?       =     F
redata: Write Pulay info on disk?        =     F
redata: Discard 1st Pulay DM after  kick =     F
redata: New DM Mixing Weight             =     0.0500
redata: New DM Occupancy tolerance       = 0.000000000001
redata: No kicks to SCF
redata: DM Mixing Weight for Kicks       =     0.5000
redata: DM Tolerance for SCF             =     0.000100
redata: Require Energy convergence for SCF =     F
redata: DM Energy tolerance for SCF      =     0.000100 eV
redata: Require Harris convergence for SCF =     F
redata: DM Harris energy tolerance for SCF =     0.000100 eV
redata: Using Saved Data (generic)   =     F
redata: Use continuation files for DM    =     T
redata: Neglect nonoverlap interactions  =     F
redata: Method of Calculation            =     Diagonalization
redata: Divide and Conquer               =     T
redata: Electronic Temperature           =     0.0019  Ry
redata: Fix the spin of the system       =     F
redata: Dynamics option                  =     Verlet MD run
redata: Initial MD time step             =        1
redata:   Final MD time step             =        1
redata: Length of MD time step           =     1.0000  fs
redata: Initial Temperature of MD run    =     0.0000  K
redata: Perform a MD quench              =     F
redata: ***********************************************************************
Total number of electrons:   307.000000
Total ionic charge:   307.000000

* ProcessorY, Blocksize:    2  24

k-point displ. along   1 input, could be:     0.50    0.00
k-point displ. along   2 input, could be:     0.50    0.00
 Kpoints in:          231 . Kpoints trimmed:          231

siesta: k-grid: Number of k-points =   231
siesta: k-grid: Cutoff (effective) =     5.000 Ang
siesta: k-grid: Supercell and displacements
siesta: k-grid:   21   0   0      0.500
siesta: k-grid:    0  21   0      0.500
siesta: k-grid:    0   0   1      0.000
Naive supercell factors:     2    2    2

superc: Internal auxiliary supercell:     2 x     2 x     2  =       8
superc: Number of atoms, orbitals, and projectors:    576   7488   9216

* Maximum dynamic memory allocated =     4 MB

siesta:                 ==============================
                            Begin MD step =      1
                        ==============================

superc: Internal auxiliary supercell:     2 x     2 x     2  =       8
superc: Number of atoms, orbitals, and projectors:    576   7488   9216

outcell: Unit cell vectors (Ang):
       12.804619    7.392750    0.000000
        0.000000   14.785500    0.000000
        0.000000    0.000000   10.000000

outcell: Cell vector modules (Ang)   :   14.785500   14.785500   10.000000
outcell: Cell angles (23,13,12) (deg):     90.0000     90.0000     60.0000
outcell: Cell volume (Ang**3)        :   1893.2269
New_DM. Step:     1
Initializing Density Matrix...

InitMesh: MESH =   120 x   120 x    90 =     1296000
InitMesh: Mesh cutoff (required, used) =   200.000   223.865 Ry

* Maximum dynamic memory allocated =   185 MB

stepf: Fermi-Dirac step function

siesta: Program's energy decomposition (eV):
siesta: Ebs     =     -6213.541841
siesta: Eions   =     21457.201110
siesta: Ena     =      4907.589529
siesta: Ekin    =      7972.707975
siesta: Enl     =        84.362536
siesta: DEna    =        -0.000015
siesta: DUscf   =         0.000000
siesta: DUext   =         0.000000
siesta: Exc     =     -4643.141216
siesta: eta*DQ  =         0.000000
siesta: Emadel  =         0.000000
siesta: Emeta   =         0.000000
siesta: Emolmec =         0.000000
siesta: Ekinion =         0.000000
siesta: Eharris =    -12776.698164
siesta: Etot    =    -13135.682301
siesta: FreeEng =    -13135.682301

siesta: iscf   Eharris(eV)      E_KS(eV)   FreeEng(eV)   dDmax  Ef(eV)
siesta:    1   -12776.6982   -13135.6823   -13135.6823  6.0172 -6.9636
timer: Routine,Calls,Time,% = IterSCF        1    4145.927  99.73
elaps: Routine,Calls,Wall,% = IterSCF        1     518.857  99.73
siesta:    2   -17439.6612   -12118.4474   -12118.5079 10.1817 -3.6017
siesta:    3   -12759.7565   -12863.8237   -12863.8651  1.5085 -4.1310
siesta:    4   -12669.8279   -12786.1458   -12786.1818  0.9557 -3.7873
siesta:    5   -12645.6376   -12728.2285   -12728.2857  0.8753 -3.6682
siesta:    6   -12624.7269   -12706.1125   -12706.1400  0.7397 -4.0562
siesta:    7   -12620.1052   -12691.1705   -12691.2104  0.6690 -3.9973
siesta:    8   -12615.8236   -12674.4076   -12674.4448  0.5395 -4.2836
siesta:    9   -12615.3353   -12663.5747   -12663.6129  0.4767 -4.1633
siesta:   10   -12614.8876   -12633.7799   -12633.8180  0.3217 -3.9786
siesta:   11   -12614.7315   -12619.5197   -12619.5790  0.2780 -4.0452
siesta:   12   -12613.9012   -12614.5524   -12614.5841  0.2604 -4.1998
siesta:   13   -12613.7267   -12612.3682   -12612.4134  0.2289 -4.2610
siesta:   14   -12613.6490   -12612.6584   -12612.7130  0.1769 -4.2659
siesta:   15   -12613.4707   -12612.3983   -12612.4568  0.1060 -4.2793
siesta:   16   -12613.3807   -12612.6953   -12612.7543  0.0709 -4.2339
siesta:   17   -12613.3421   -12613.0829   -12613.1379  0.0773 -4.2351
siesta:   18   -12613.3189   -12612.6790   -12612.7195  0.0506 -4.2471
siesta:   19   -12613.3097   -12612.5854   -12612.6338  0.0397 -4.2493
siesta:   20   -12613.3024   -12612.3085   -12612.3576  0.0328 -4.2502
siesta:   21   -12613.2978   -12611.7399   -12611.7877  0.0259 -4.2521
siesta:   22   -12613.2941   -12611.1211   -12611.1697  0.0175 -4.2540
siesta:   23   -12613.2926   -12610.9233   -12610.9734  0.0133 -4.2557
siesta:   24   -12613.2939   -12611.6964   -12611.7469  0.0105 -4.2579
siesta:   25   -12613.2925   -12612.2339   -12612.2838  0.0078 -4.2637
siesta:   26   -12613.2917   -12612.5947   -12612.6456  0.0043 -4.2663
siesta:   27   -12613.2910   -12612.7934   -12612.8443  0.0023 -4.2675
siesta:   28   -12613.2910   -12612.9978   -12613.0488  0.0013 -4.2675
siesta:   29   -12613.2911   -12613.0391   -12613.0900  0.0014 -4.2676
siesta:   30   -12613.2911   -12613.0965   -12613.1475  0.0010 -4.2676
siesta:   31   -12613.2910   -12613.1971   -12613.2479  0.0004 -4.2670
siesta:   32   -12613.2911   -12613.2308   -12613.2817  0.0003 -4.2670
siesta:   33   -12613.2910   -12613.2445   -12613.2954  0.0002 -4.2670
siesta:   34   -12613.2910   -12613.2437   -12613.2946  0.0002 -4.2669
siesta:   35   -12613.2910   -12613.2591   -12613.3100  0.0002 -4.2668
siesta:   36   -12613.2910   -12613.2700   -12613.3209  0.0002 -4.2668
siesta:   37   -12613.2910   -12613.2779   -12613.3288  0.0002 -4.2668
siesta:   38   -12613.2910   -12613.2838   -12613.3348  0.0001 -4.2667
siesta:   39   -12613.2910   -12613.2878   -12613.3388  0.0001 -4.2667

siesta: E_KS(eV) =           -12613.2887

siesta: E_KS - E_eggbox =    -12613.2887

siesta: Atomic forces (eV/Ang):
----------------------------------------
   Tot   -0.009858    0.018301    0.000000
----------------------------------------
   Max  671.422193
   Res  169.068172    sqrt( Sum f_i^2 / 3N )
----------------------------------------
   Max  671.422193    constrained

Stress-tensor-Voigt (kbar):     -661.81    -3016.48        0.01      -22.14        0.00        0.00
(Free)E + p*V (eV/cell)   -11164.5297
Target enthalpy (eV/cell)   -12613.3397

siesta: Stress tensor (static) (eV/Ang**3):
        -0.413065   -0.013820    0.000000
        -0.013820   -1.882721    0.000000
         0.000000    0.000000    0.000007

siesta: Pressure (static):       1226.09426721  kBar

siesta: Stress tensor (total) (eV/Ang**3):
        -0.413065   -0.013820    0.000000
        -0.013820   -1.882721    0.000000
         0.000000    0.000000    0.000007

siesta: Pressure (total):       1226.09426721  kBar

siesta: Temp_ion =       0.000 K

* Maximum dynamic memory allocated =   201 MB
Computing bands...

siesta: Program's energy decomposition (eV):
siesta: Ebs     =     -5000.327360
siesta: Eions   =     21457.201110
siesta: Ena     =      4907.589529
siesta: Ekin    =     10968.028407
siesta: Enl     =     -1557.555463
siesta: DEna    =      -769.120470
siesta: DUscf   =       105.846053
siesta: DUext   =         0.000000
siesta: Exc     =     -4810.875679
siesta: eta*DQ  =         0.000000
siesta: Emadel  =         0.000000
siesta: Emeta   =         0.000000
siesta: Emolmec =         0.000000
siesta: Ekinion =         0.000000
siesta: Eharris =    -12613.291029
siesta: Etot    =    -12613.288733
siesta: FreeEng =    -12613.339660

siesta: Final energy (eV):
siesta:  Band Struct. =   -5000.327360
siesta:       Kinetic =   10968.028407
siesta:       Hartree =   34895.646949
siesta:    Ext. field =       0.000000
siesta:   Exch.-corr. =   -4810.875679
siesta:  Ion-electron =  -80289.992707
siesta:       Ion-ion =   26623.904296
siesta:       Ekinion =       0.000000
siesta:         Total =  -12613.288733

siesta: Atomic forces (eV/Ang):
siesta:      1    1.006599    2.002755    0.000000
siesta:      2    0.606178   -1.829187    0.000000
siesta:      3   -1.225807    3.327553    0.000000
siesta:      4   -1.375178   -3.326921    0.000000
siesta:      5   -0.329745 -125.451772    0.000000
siesta:      6   -1.356229    0.588024    0.000000
siesta:      7   -1.714869   -0.182883    0.000000
siesta:      8   -3.513340  671.422193    0.000000
siesta:      9  -25.803158    0.819891    0.000000
siesta:     10   -0.451185   -2.334162    0.000000
siesta:     11    1.258817    0.596550    0.000000
siesta:     12    1.432829   -0.373881    0.000000
siesta:     13    1.170785    3.222388    0.000000
siesta:     14    1.307639   -3.227154    0.000000
siesta:     15   -0.535793    1.782768    0.000000
siesta:     16    0.582371   -6.055092    0.000000
siesta:     17   26.368428    2.230998    0.000000
siesta:     18    4.236852 -670.972655    0.000000
siesta:     19   -0.794370  124.267496    0.000000
siesta:     20   15.661104  551.741332    0.000000
siesta:     21   -1.005908 -120.862695    0.000000
siesta:     22   -0.200853  118.013843    0.000000
siesta:     23  -17.414967 -654.576681    0.000000
siesta:     24   -1.141819  122.729020    0.000000
siesta:     25   -0.329461 -546.726160    0.000000
siesta:     26   25.522961    9.489598    0.000000
siesta:     27   32.517317 -547.890147    0.000000
siesta:     28    1.004261    1.342437    0.000000
siesta:     29   -1.845043   -0.174759    0.000000
siesta:     30   -0.012016   -2.325613    0.000000
siesta:     31  -26.100353    5.393207    0.000000
siesta:     32  -34.576703 -548.684128    0.000000
siesta:     33   18.357887  654.216648    0.000000
siesta:     34    0.325745 -117.429283    0.000000
siesta:     35   34.790658  548.724636    0.000000
siesta:     36   26.118456   -5.418056    0.000000
siesta:     37   -2.794155   -1.143078    0.000000
siesta:     38    1.244627   -0.327420    0.000000
siesta:     39    0.687103    2.390134    0.000000
siesta:     40    0.492742  546.959732    0.000000
siesta:     41    1.069717 -122.800298    0.000000
siesta:     42   -9.797251  537.981343    0.000000
siesta:     43   26.089966  564.482359    0.000000
siesta:     44   24.689178   -4.032823    0.000000
siesta:     45   -1.564212    2.662520    0.000000
siesta:     46    1.286055    0.563798    0.000000
siesta:     47  -33.015369  547.982252    0.000000
siesta:     48  -25.915868   -9.655478    0.000000
siesta:     49   13.626486  573.095450    0.000000
siesta:     50    0.628103    0.771822    0.000000
siesta:     51    0.125695   -0.112526    0.000000
siesta:     52    0.197950    0.563202    0.000000
siesta:     53    1.824485   -0.895506    0.000000
siesta:     54    0.092024   -0.473553    0.000000
siesta:     55    0.756465    3.457206    0.000000
siesta:     56   -0.906134    0.164130    0.000000
siesta:     57   -0.237835    0.449931    0.000000
siesta:     58   -0.060426   -0.427634    0.000000
siesta:     59   -1.018430    2.792287    0.000000
siesta:     60   -0.679549   -2.345195    0.000000
siesta:     61    1.145997    0.227891    0.000000
siesta:     62   -0.245528   -0.489674    0.000000
siesta:     63  -15.463195 -575.351187    0.000000
siesta:     64   -1.569405   -0.531787    0.000000
siesta:     65    1.525240   -2.842717    0.000000
siesta:     66  -24.542859    3.991713    0.000000
siesta:     67  -25.691052 -564.791097    0.000000
siesta:     68   -1.359602    0.369514    0.000000
siesta:     69    2.814881    1.175844    0.000000
siesta:     70    9.867561 -537.883648    0.000000
siesta:     71    1.000146  121.242136    0.000000
siesta:     72  -16.855495 -551.271452    0.000000
siesta: ----------------------------------------
siesta:    Tot   -0.009858    0.018301    0.000000

siesta: Stress tensor (static) (eV/Ang**3):
siesta:    -0.413065   -0.013820    0.000000
siesta:    -0.013820   -1.882721    0.000000
siesta:     0.000000    0.000000    0.000007

siesta: Cell volume =       1893.226884 Ang**3

siesta: Pressure (static):
siesta:                Solid            Molecule  Units
siesta:           0.00833465          0.13311158  Ry/Bohr**3
siesta:           0.76525958         12.22185220  eV/Ang**3
siesta:        1226.09426721      19581.77767534  kBar
(Free)E+ p_basis*V_orbitals  =      -12585.318350
(Free)Eharris+ p_basis*V_orbitals  =      -12585.321532

siesta: Electric dipole (a.u.)  =    0.000000    0.000000    0.000000
siesta: Electric dipole (Debye) =    0.000000    0.000000    0.000000

* Maximum dynamic memory allocated : Node    0 =   201 MB
* Maximum dynamic memory allocated : Node    1 =    72 MB
* Maximum dynamic memory allocated : Node    2 =    74 MB
* Maximum dynamic memory allocated : Node    3 =   193 MB
* Maximum dynamic memory allocated : Node    4 =   186 MB
* Maximum dynamic memory allocated : Node    5 =    70 MB
* Maximum dynamic memory allocated : Node    6 =    72 MB
* Maximum dynamic memory allocated : Node    7 =   170 MB

* Maximum memory occured during matrixMtoO                    

timer: CPU execution times:
timer:  Routine       Calls   Time/call    Tot.time        %
timer:  siesta            1  159282.447  159282.447   100.00
timer:  Setup             1       3.001       3.001     0.00
timer:  bands             3     268.983     806.950     0.51
timer:  writewave         1       0.019       0.019     0.00
timer:  KSV_init          1       0.000       0.000     0.00
timer:  IterMD            1  158466.626  158466.626    99.49
timer:  hsparse           1       0.231       0.231     0.00
timer:  overlap           1       7.702       7.702     0.00
timer:  IterSCF          39    4058.909  158297.467    99.38
timer:  kinefsm           2       3.958       7.915     0.00
timer:  nlefsm            2      18.581      37.161     0.02
timer:  DHSCF            40      88.591    3543.620     2.22
timer:  DHSCF1            1       0.765       0.765     0.00
timer:  DHSCF2            1      33.323      33.323     0.02
timer:  REORD           322       0.010       3.215     0.00
timer:  POISON           41       2.253      92.355     0.06
timer:  DHSCF3           40      86.928    3477.135     2.18
timer:  rhoofd           40      17.139     685.564     0.43
timer:  cellXC           40       3.480     139.181     0.09
timer:  vmat             40      41.363    1654.522     1.04
timer:  MolMec            2       0.000       0.000     0.00
timer:  diagon           39    3969.038  154792.483    97.18
timer:  c-eigval       9130       6.670   60895.738    38.23
timer:  c-buildHS      9130       0.113    1029.016     0.65
timer:  cdiag         18139       6.874  124679.887    78.28
timer:  cdiag1        18139       0.426    7728.459     4.85
timer:  cdiag2        18139       1.906   34570.669    21.70
timer:  cdiag3        18139       3.949   71625.473    44.97
timer:  cdiag4        18139       0.204    3695.952     2.32
timer:  c-eigvec       9009       7.248   65296.651    40.99
timer:  c-buildD       9009       3.259   29356.618    18.43
timer:  DHSCF4            1      30.264      30.264     0.02
timer:  dfscf             1      28.479      28.479     0.02
timer:  overfsm           1       0.402       0.402     0.00
timer:  optical           1       5.115       5.115     0.00
  

elaps: ELAPSED times:
elaps:  Routine       Calls   Time/call    Tot.time        %
elaps:  siesta            1   19931.454   19931.454   100.00
elaps:  Setup             1       0.376       0.376     0.00
elaps:  bands             3      33.674     101.022     0.51
elaps:  writewave         1       0.002       0.002     0.00
elaps:  KSV_init          1       0.000       0.000     0.00
elaps:  IterMD            1   19829.380   19829.380    99.49
elaps:  hsparse           1       0.028       0.028     0.00
elaps:  overlap           1       0.956       0.956     0.00
elaps:  IterSCF          39     507.904   19808.239    99.38
elaps:  kinefsm           2       0.492       0.983     0.00
elaps:  nlefsm            2       2.187       4.373     0.02
elaps:  DHSCF            40      11.187     447.474     2.25
elaps:  DHSCF1            1       0.100       0.100     0.00
elaps:  DHSCF2            1       4.167       4.167     0.02
elaps:  REORD           322       0.001       0.434     0.00
elaps:  POISON           41       0.282      11.555     0.06
elaps:  DHSCF3           40      10.875     435.003     2.18
elaps:  rhoofd           40       4.810     192.386     0.97
elaps:  cellXC           40       0.434      17.369     0.09
elaps:  vmat             40       5.174     206.967     1.04
elaps:  MolMec            2       0.000       0.000     0.00
elaps:  diagon           39     496.652   19369.430    97.18
elaps:  c-eigval       9130       0.835    7619.156    38.23
elaps:  c-buildHS      9130       0.015     138.972     0.70
elaps:  cdiag         18139       0.864   15665.340    78.60
elaps:  cdiag1        18139       0.053     961.363     4.82
elaps:  cdiag2        18139       0.238    4325.773    21.70
elaps:  cdiag3        18139       0.495    8973.798    45.02
elaps:  cdiag4        18139       0.026     468.094     2.35
elaps:  c-eigvec       9009       0.917    8259.722    41.44
elaps:  c-buildD       9009       0.398    3581.988    17.97
elaps:  DHSCF4            1       7.911       7.911     0.04
elaps:  dfscf             1       7.526       7.526     0.04
elaps:  overfsm           1       0.046       0.046     0.00
elaps:  optical           1       0.000       0.000     0.00
  
>> End of run:   2-MAY-2016  14:01:11
