Siesta Version:                                        siesta-3.2-pl-3
Architecture  : x86_64-unknown-linux-gnu--unknown
Compiler flags: mpiifort -g -O2 -fPIC -xSSE4.1 -fp-model source -shared-intel 
PARALLEL version

* Running on    8 nodes in parallel
>> Start of run:  24-APR-2016  20:48:23

                           ***********************       
                           *  WELCOME TO SIESTA  *       
                           ***********************       

reinit: Reading from standard input
************************** Dump of input data file ****************************
#(1) General system descriptors
SystemName            GRP_doping    # Descriptive name of the system
SystemLabel           GRP_doping    # Short name for naming files
%include STRUCT.fdf
%include KPT.fdf
%include BASIS.fdf
#%include TS.fdf # for transiesta calculation
#(4) DFT, Grid, SCF
XC.functional         GGA           # LDA or GGA (default = LDA)
XC.authors            PBE           # CA (Ceperley-Aldr) = PZ
                                    #    (Perdew-Zunger) - LDA - Default
                                    # PW92 (Perdew-Wang-92) - LDA
                                    # PBE (Perdew-Burke-Ernzerhof) - GGA
MeshCutoff            200.000000    Ry      # Default: 50.0 Ry ~ 0.444 Bohr
                                    #         100.0 Ry ~ 0.314 Bohr
MaxSCFIterations      500           # Default: 50
DM.MixingWeight       0.05          # Default: 0.25
DM.NumberPulay        10            # Default: 0
DM.PulayOnFile        F             # SystemLabel.P1, SystemLabel.P2
DM.Tolerance          1.d-4         # Default: 1.d-4
DM.UseSaveDM          .true.        # because of the bug
SCFMustConverge       .true.
NeglNonOverlapInt     F             # Default: F
#(5) Eigenvalue problem: order-N or diagonalization
SolutionMethod        Diagon        # or Transiesta
ElectronicTemperature 300.0 K       # Default: 300.0 K
#(6) Molecular dynamics and relaxations
#MD.TypeOfRun          CG            # Type of dynamics:
#MD.VariableCell       F
#MD.NumCGsteps         0           # 0 for single-point / 100 for gopt
#MD.MaxCGDispl         0.2 Bohr      # Default: 0.2 Bohr
#MD.MaxForceTol        0.02 eV/Ang   # Default: 0.04 eV/Ang
#MD.MaxStressTol       1.0 GPa       # Default: 1.0 GPa
# Geometry Constraints
#%block GeometryConstraints
#	position from 1 to 44
#%endblock GeometryConstraints
BandLinesScale   pi/a
%block BandLines
 1   0.00000000  0.00000000  0.00000000
50   0.00000000  0.07809418  0.00000000
50   0.04509075  0.07809242  0.00000000
20   0.00000000  0.00000000  0.00000000
%endblock BandLines
************************** End of input data file *****************************

reinit: -----------------------------------------------------------------------
reinit: System Name: GRP_doping
reinit: -----------------------------------------------------------------------
reinit: System Label: GRP_doping                                                  
reinit: -----------------------------------------------------------------------

initatom: Reading input for the pseudopotentials and atomic orbitals ----------
 Species number:            1  Label: B Atomic number:           5
 Species number:            2  Label: C Atomic number:           6
Ground state valence configuration:   2s02  2p01
Reading pseudopotential information in formatted form from B.psf

Valence configuration for pseudopotential generation:
2s( 2.00) rc: 1.74
2p( 1.00) rc: 1.74
3d( 0.00) rc: 1.74
4f( 0.00) rc: 1.74
Ground state valence configuration:   2s02  2p02
Reading pseudopotential information in formatted form from C.psf

Valence configuration for pseudopotential generation:
2s( 2.00) rc: 1.54
2p( 2.00) rc: 1.54
3d( 0.00) rc: 1.54
4f( 0.00) rc: 1.54
For B, standard SIESTA heuristics set lmxkb to 3
 (one more than the basis l, including polarization orbitals).
Use PS.lmax or PS.KBprojectors blocks to override.
For C, standard SIESTA heuristics set lmxkb to 3
 (one more than the basis l, including polarization orbitals).
Use PS.lmax or PS.KBprojectors blocks to override.

<basis_specs>
===============================================================================
B                    Z=   5    Mass=  10.810        Charge= 0.17977+309
Lmxo=1 Lmxkb= 3    BasisType=split      Semic=F
L=0  Nsemic=0  Cnfigmx=2
          n=1  nzeta=2  polorb=0
            splnorm:   0.15000    
               vcte:    0.0000    
               rinn:    0.0000    
                rcs:    0.0000      0.0000    
            lambdas:    1.0000      1.0000    
L=1  Nsemic=0  Cnfigmx=2
          n=1  nzeta=2  polorb=1
            splnorm:   0.15000    
               vcte:    0.0000    
               rinn:    0.0000    
                rcs:    0.0000      0.0000    
            lambdas:    1.0000      1.0000    
-------------------------------------------------------------------------------
L=0  Nkbl=1  erefs: 0.17977+309
L=1  Nkbl=1  erefs: 0.17977+309
L=2  Nkbl=1  erefs: 0.17977+309
L=3  Nkbl=1  erefs: 0.17977+309
===============================================================================
</basis_specs>

atom: Called for B                     (Z =   5)

read_vps: Pseudopotential generation method:
read_vps: ATM3      Troullier-Martins                       
Total valence charge:    3.00000

read_vps: Pseudopotential includes a core correction:
read_vps: Pseudo-core for xc-correction

xc_check: Exchange-correlation functional:
xc_check: GGA Perdew, Burke & Ernzerhof 1996
V l=0 = -2*Zval/r beyond r=  1.7165
V l=1 = -2*Zval/r beyond r=  1.7165
V l=2 = -2*Zval/r beyond r=  1.7165
V l=3 = -2*Zval/r beyond r=  1.6951
All V_l potentials equal beyond r=  1.7165
This should be close to max(r_c) in ps generation
All pots = -2*Zval/r beyond r=  1.7165

VLOCAL1: 99.0% of the norm of Vloc inside     14.733 Ry
VLOCAL1: 99.9% of the norm of Vloc inside     33.577 Ry
atom: Maximum radius for 4*pi*r*r*local-pseudopot. charge    2.04484
atom: Maximum radius for r*vlocal+2*Zval:    1.75994
GHOST: No ghost state for L =  0
GHOST: No ghost state for L =  1
GHOST: No ghost state for L =  2
GHOST: No ghost state for L =  3

KBgen: Kleinman-Bylander projectors: 
   l= 0   rc=  1.897051   el= -0.693730   Ekb=  4.595746   kbcos=  0.286105
   l= 1   rc=  1.920920   el= -0.265236   Ekb= -2.350715   kbcos= -0.315747
   l= 2   rc=  2.044840   el=  0.002055   Ekb= -0.690767   kbcos= -0.013822
   l= 3   rc=  2.149707   el=  0.003188   Ekb= -0.315358   kbcos= -0.002055

KBgen: Total number of  Kleinman-Bylander projectors:   16
atom: -------------------------------------------------------------------------

atom: SANKEY-TYPE ORBITALS:
atom: Selected multiple-zeta basis: split     

SPLIT: Orbitals with angular momentum L= 0

SPLIT: Basis orbitals for state 2s

SPLIT: PAO cut-off radius determined from an
SPLIT: energy shift=  0.007350 Ry

   izeta = 1
                 lambda =    1.000000
                     rc =    5.422032
                 energy =   -0.686029
                kinetic =    0.576707
    potential(screened) =   -1.262736
       potential(ionic) =   -3.271094

   izeta = 2
                 rmatch =    4.222573
              splitnorm =    0.150000
                 energy =   -0.602132
                kinetic =    0.858975
    potential(screened) =   -1.461107
       potential(ionic) =   -3.582536

SPLIT: Orbitals with angular momentum L= 1

SPLIT: Basis orbitals for state 2p

SPLIT: PAO cut-off radius determined from an
SPLIT: energy shift=  0.007350 Ry

   izeta = 1
                 lambda =    1.000000
                     rc =    6.790259
                 energy =   -0.258578
                kinetic =    1.481412
    potential(screened) =   -1.739989
       potential(ionic) =   -3.657461

   izeta = 2
                 rmatch =    4.608740
              splitnorm =    0.150000
                 energy =   -0.173757
                kinetic =    2.186690
    potential(screened) =   -2.360447
       potential(ionic) =   -4.464260

POLgen: Perturbative polarization orbital with L=  2

POLgen: Polarization orbital for state 2p

   izeta = 1
                     rc =    6.790259
                 energy =    0.684082
                kinetic =    1.471481
    potential(screened) =   -0.787399
       potential(ionic) =   -2.406985
atom: Total number of Sankey-type orbitals: 13

atm_pop: Valence configuration (for local Pseudopot. screening):
 2s( 2.00)                                                            
 2p( 1.00)                                                            
Vna: chval, zval:    3.00000   3.00000

Vna:  Cut-off radius for the neutral-atom potential:   6.790259
comcore: Pseudo-core radius Rcore=  2.122997

atom: _________________________________________________________________________

<basis_specs>
===============================================================================
C                    Z=   6    Mass=  12.010        Charge= 0.17977+309
Lmxo=1 Lmxkb= 3    BasisType=split      Semic=F
L=0  Nsemic=0  Cnfigmx=2
          n=1  nzeta=2  polorb=0
            splnorm:   0.15000    
               vcte:    0.0000    
               rinn:    0.0000    
                rcs:    0.0000      0.0000    
            lambdas:    1.0000      1.0000    
L=1  Nsemic=0  Cnfigmx=2
          n=1  nzeta=2  polorb=1
            splnorm:   0.15000    
               vcte:    0.0000    
               rinn:    0.0000    
                rcs:    0.0000      0.0000    
            lambdas:    1.0000      1.0000    
-------------------------------------------------------------------------------
L=0  Nkbl=1  erefs: 0.17977+309
L=1  Nkbl=1  erefs: 0.17977+309
L=2  Nkbl=1  erefs: 0.17977+309
L=3  Nkbl=1  erefs: 0.17977+309
===============================================================================
</basis_specs>

atom: Called for C                     (Z =   6)

read_vps: Pseudopotential generation method:
read_vps: ATM3      Troullier-Martins                       
Total valence charge:    4.00000

read_vps: Pseudopotential includes a core correction:
read_vps: Pseudo-core for xc-correction

xc_check: Exchange-correlation functional:
xc_check: GGA Perdew, Burke & Ernzerhof 1996
V l=0 = -2*Zval/r beyond r=  1.5227
V l=1 = -2*Zval/r beyond r=  1.5227
V l=2 = -2*Zval/r beyond r=  1.5227
V l=3 = -2*Zval/r beyond r=  1.5038
All V_l potentials equal beyond r=  1.5227
This should be close to max(r_c) in ps generation
All pots = -2*Zval/r beyond r=  1.5227

VLOCAL1: 99.0% of the norm of Vloc inside     18.722 Ry
VLOCAL1: 99.9% of the norm of Vloc inside     42.668 Ry
atom: Maximum radius for 4*pi*r*r*local-pseudopot. charge    1.83678
atom: Maximum radius for r*vlocal+2*Zval:    1.58088
GHOST: No ghost state for L =  0
GHOST: No ghost state for L =  1
GHOST: No ghost state for L =  2
GHOST: No ghost state for L =  3

KBgen: Kleinman-Bylander projectors: 
   l= 0   rc=  1.704034   el= -1.009801   Ekb=  5.335044   kbcos=  0.316824
   l= 1   rc=  1.704034   el= -0.388707   Ekb= -3.785862   kbcos= -0.366464
   l= 2   rc=  1.791422   el=  0.001971   Ekb= -0.970471   kbcos= -0.009212
   l= 3   rc=  1.859892   el=  0.003065   Ekb= -0.399525   kbcos= -0.001223

KBgen: Total number of  Kleinman-Bylander projectors:   16
atom: -------------------------------------------------------------------------

atom: SANKEY-TYPE ORBITALS:
atom: Selected multiple-zeta basis: split     

SPLIT: Orbitals with angular momentum L= 0

SPLIT: Basis orbitals for state 2s

SPLIT: PAO cut-off radius determined from an
SPLIT: energy shift=  0.007350 Ry

   izeta = 1
                 lambda =    1.000000
                     rc =    4.632753
                 energy =   -1.002270
                kinetic =    0.855760
    potential(screened) =   -1.858031
       potential(ionic) =   -5.417575

   izeta = 2
                 rmatch =    3.431921
              splitnorm =    0.150000
                 energy =   -0.867111
                kinetic =    1.300804
    potential(screened) =   -2.167915
       potential(ionic) =   -5.962684

SPLIT: Orbitals with angular momentum L= 1

SPLIT: Basis orbitals for state 2p

SPLIT: PAO cut-off radius determined from an
SPLIT: energy shift=  0.007350 Ry

   izeta = 1
                 lambda =    1.000000
                     rc =    5.658549
                 energy =   -0.381140
                kinetic =    2.399701
    potential(screened) =   -2.780841
       potential(ionic) =   -6.206085

   izeta = 2
                 rmatch =    3.653288
              splitnorm =    0.150000
                 energy =   -0.249149
                kinetic =    3.542762
    potential(screened) =   -3.791911
       potential(ionic) =   -7.581078

POLgen: Perturbative polarization orbital with L=  2

POLgen: Polarization orbital for state 2p

   izeta = 1
                     rc =    5.658549
                 energy =    1.109913
                kinetic =    2.304789
    potential(screened) =   -1.194876
       potential(ionic) =   -4.013592
atom: Total number of Sankey-type orbitals: 13

atm_pop: Valence configuration (for local Pseudopot. screening):
 2s( 2.00)                                                            
 2p( 2.00)                                                            
Vna: chval, zval:    4.00000   4.00000

Vna:  Cut-off radius for the neutral-atom potential:   5.658549
comcore: Pseudo-core radius Rcore=  1.791422

atom: _________________________________________________________________________

prinput: Basis input ----------------------------------------------------------

PAO.BasisType split     

%block ChemicalSpeciesLabel
    1    5 B                       # Species index, atomic number, species label
    2    6 C                       # Species index, atomic number, species label
%endblock ChemicalSpeciesLabel

%block PAO.Basis                 # Define Basis set
B                     2                    # Species label, number of l-shells
 n=2   0   2                         # n, l, Nzeta 
   5.422      4.223   
   1.000      1.000   
 n=2   1   2 P   1                   # n, l, Nzeta, Polarization, NzetaPol
   6.790      4.609   
   1.000      1.000   
C                     2                    # Species label, number of l-shells
 n=2   0   2                         # n, l, Nzeta 
   4.633      3.432   
   1.000      1.000   
 n=2   1   2 P   1                   # n, l, Nzeta, Polarization, NzetaPol
   5.659      3.653   
   1.000      1.000   
%endblock PAO.Basis

prinput: ----------------------------------------------------------------------

coor:   Atomic-coordinates input format  =     Fractional

siesta: Atomic coordinates (Bohr) and species
siesta:     -2.35420  41.57980   0.00000  1        1
siesta:      2.30256  38.89134   0.00000  1        2
siesta:      2.30256  41.57980   0.00000  1        3
siesta:      4.63094  34.85847   0.00000  1        4
siesta:      4.63094  37.54693   0.00000  1        5
siesta:     -0.02582  13.34970   0.00000  1        6
siesta:      2.30256  14.69411   0.00000  1        7
siesta:      2.30256  17.38257   0.00000  1        8
siesta:      4.63094  18.72698   0.00000  1        9
siesta:      4.63094  21.41544   0.00000  1       10
siesta:      6.95932  22.75985   0.00000  1       11
siesta:      6.95932  25.44831   0.00000  1       12
siesta:      2.30256  22.75985   0.00000  1       13
siesta:     -4.68258  21.41544   0.00000  1       14
siesta:     -2.35420  22.75985   0.00000  1       15
siesta:     -2.35420  25.44831   0.00000  1       16
siesta:      4.63094  26.79272   0.00000  1       17
siesta:     -0.02582  26.79272   0.00000  1       18
siesta:     -0.02582  29.48119   0.00000  1       19
siesta:      2.30256  30.82560   0.00000  1       20
siesta:      2.30256  33.51406   0.00000  1       21
siesta:     -0.02582  42.92421   0.00000  1       22
siesta:     -0.02582  45.61267   0.00000  1       23
siesta:     -0.02582   2.59549   0.00000  2       24
siesta:     -0.02582   5.28395   0.00000  2       25
siesta:     -2.35420  38.89134   0.00000  2       26
siesta:      6.95932  30.82560   0.00000  2       27
siesta:      6.95932  33.51406   0.00000  2       28
siesta:      9.28770  26.79272   0.00000  2       29
siesta:      9.28770  29.48119   0.00000  2       30
siesta:     -4.68258  34.85847   0.00000  2       31
siesta:     -4.68258  37.54693   0.00000  2       32
siesta:      2.30256   6.62836   0.00000  2       33
siesta:      2.30256   9.31683   0.00000  2       34
siesta:      4.63094  10.66124   0.00000  2       35
siesta:      4.63094  13.34970   0.00000  2       36
siesta:      6.95932  14.69411   0.00000  2       37
siesta:      6.95932  17.38257   0.00000  2       38
siesta:      9.28770  18.72698   0.00000  2       39
siesta:      9.28770  21.41544   0.00000  2       40
siesta:     11.61608  22.75985   0.00000  2       41
siesta:     11.61608  25.44831   0.00000  2       42
siesta:     -2.35420   6.62836   0.00000  2       43
siesta:     -2.35420   9.31683   0.00000  2       44
siesta:     -0.02582  10.66124   0.00000  2       45
siesta:     -4.68258  10.66124   0.00000  2       46
siesta:     -4.68258  13.34970   0.00000  2       47
siesta:     -2.35420  14.69411   0.00000  2       48
siesta:     -2.35420  17.38257   0.00000  2       49
siesta:     -0.02582  18.72698   0.00000  2       50
siesta:     -0.02582  21.41544   0.00000  2       51
siesta:      2.30256  25.44831   0.00000  2       52
siesta:     -7.01096  14.69411   0.00000  2       53
siesta:     -7.01096  17.38257   0.00000  2       54
siesta:     -4.68258  18.72698   0.00000  2       55
siesta:     -9.33934  18.72698   0.00000  2       56
siesta:     -9.33934  21.41544   0.00000  2       57
siesta:     -7.01096  22.75985   0.00000  2       58
siesta:     -7.01096  25.44831   0.00000  2       59
siesta:    -11.66772  22.75985   0.00000  2       60
siesta:    -11.66772  25.44831   0.00000  2       61
siesta:     -9.33934  26.79272   0.00000  2       62
siesta:     -9.33934  29.48119   0.00000  2       63
siesta:      4.63094  29.48119   0.00000  2       64
siesta:     -4.68258  26.79272   0.00000  2       65
siesta:     -4.68258  29.48119   0.00000  2       66
siesta:     -2.35420  30.82560   0.00000  2       67
siesta:     -2.35420  33.51406   0.00000  2       68
siesta:     -7.01096  30.82560   0.00000  2       69
siesta:     -7.01096  33.51406   0.00000  2       70
siesta:     -0.02582  34.85847   0.00000  2       71
siesta:     -0.02582  37.54693   0.00000  2       72

siesta: System type = slab      

initatomlists: Number of atoms, orbitals, and projectors:     72   936  1152

siesta: ******************** Simulation parameters ****************************
siesta:
siesta: The following are some of the parameters of the simulation.
siesta: A complete list of the parameters used, including default values,
siesta: can be found in file out.fdf
siesta:
redata: Non-Collinear-spin run           =     F
redata: SpinPolarized (Up/Down) run      =     F
redata: Number of spin components        =     1
redata: Long output                      =     F
redata: Number of Atomic Species         =        2
redata: Charge density info will appear in .RHO file
redata: Write Mulliken Pop.              =     NO
redata: Mesh Cutoff                      =   200.0000  Ry
redata: Net charge of the system         =     0.0000 |e|
redata: Max. number of SCF Iter          =      500
redata: SCF convergence failure will abort job
redata: Performing Pulay mixing using    =    10 iterations
redata: Mix DM in first SCF step ?       =     F
redata: Write Pulay info on disk?        =     F
redata: Discard 1st Pulay DM after  kick =     F
redata: New DM Mixing Weight             =     0.0500
redata: New DM Occupancy tolerance       = 0.000000000001
redata: No kicks to SCF
redata: DM Mixing Weight for Kicks       =     0.5000
redata: DM Tolerance for SCF             =     0.000100
redata: Require Energy convergence for SCF =     F
redata: DM Energy tolerance for SCF      =     0.000100 eV
redata: Require Harris convergence for SCF =     F
redata: DM Harris energy tolerance for SCF =     0.000100 eV
redata: Using Saved Data (generic)   =     F
redata: Use continuation files for DM    =     T
redata: Neglect nonoverlap interactions  =     F
redata: Method of Calculation            =     Diagonalization
redata: Divide and Conquer               =     T
redata: Electronic Temperature           =     0.0019  Ry
redata: Fix the spin of the system       =     F
redata: Dynamics option                  =     Verlet MD run
redata: Initial MD time step             =        1
redata:   Final MD time step             =        1
redata: Length of MD time step           =     1.0000  fs
redata: Initial Temperature of MD run    =     0.0000  K
redata: Perform a MD quench              =     F
redata: ***********************************************************************
Total number of electrons:   265.000000
Total ionic charge:   265.000000

* ProcessorY, Blocksize:    2  24

k-point displ. along   1 input, could be:     0.50    0.00
k-point displ. along   2 input, could be:     0.50    0.00
 Kpoints in:          231 . Kpoints trimmed:          231

siesta: k-grid: Number of k-points =   231
siesta: k-grid: Cutoff (effective) =     5.000 Ang
siesta: k-grid: Supercell and displacements
siesta: k-grid:   21   0   0      0.500
siesta: k-grid:    0  21   0      0.500
siesta: k-grid:    0   0   1      0.000
Naive supercell factors:     2    2    2

superc: Internal auxiliary supercell:     2 x     2 x     2  =       8
superc: Number of atoms, orbitals, and projectors:    576   7488   9216

* Maximum dynamic memory allocated =     4 MB

siesta:                 ==============================
                            Begin MD step =      1
                        ==============================

superc: Internal auxiliary supercell:     2 x     2 x     2  =       8
superc: Number of atoms, orbitals, and projectors:    576   7488   9216

outcell: Unit cell vectors (Ang):
       12.804619    7.392750    0.000000
        0.000000   14.785500    0.000000
        0.000000    0.000000   10.000000

outcell: Cell vector modules (Ang)   :   14.785500   14.785500   10.000000
outcell: Cell angles (23,13,12) (deg):     90.0000     90.0000     60.0000
outcell: Cell volume (Ang**3)        :   1893.2269
New_DM. Step:     1
Initializing Density Matrix...

InitMesh: MESH =   120 x   120 x    90 =     1296000
InitMesh: Mesh cutoff (required, used) =   200.000   223.865 Ry

* Maximum dynamic memory allocated =   225 MB

stepf: Fermi-Dirac step function

siesta: Program's energy decomposition (eV):
siesta: Ebs     =     -5430.588680
siesta: Eions   =     15457.706713
siesta: Ena     =      4155.544483
siesta: Ekin    =      5165.204314
siesta: Enl     =       836.251130
siesta: DEna    =        -0.000007
siesta: DUscf   =         0.000000
siesta: DUext   =         0.000000
siesta: Exc     =     -4194.972678
siesta: eta*DQ  =         0.000000
siesta: Emadel  =         0.000000
siesta: Emeta   =         0.000000
siesta: Emolmec =         0.000000
siesta: Ekinion =         0.000000
siesta: Eharris =     -9308.584285
siesta: Etot    =     -9495.679471
siesta: FreeEng =     -9495.679471

siesta: iscf   Eharris(eV)      E_KS(eV)   FreeEng(eV)   dDmax  Ef(eV)
siesta:    1    -9308.5843    -9495.6795    -9495.6795  7.9137 -8.5318
timer: Routine,Calls,Time,% = IterSCF        1    3470.754  99.69
elaps: Routine,Calls,Wall,% = IterSCF        1     434.709  99.69
siesta:    2   -16025.5355    -8309.1477    -8309.1758 18.6781 -6.4170
siesta:    3    -9312.2418    -9351.5231    -9351.5643  3.0341 -6.7038
siesta:    4    -9287.1714    -9253.6271    -9253.6738  1.5759 -5.8291
siesta:    5    -9220.9733    -9184.1866    -9184.2389  1.1362 -5.7824
siesta:    6    -9174.4843    -9145.4211    -9145.4494  1.0034 -5.8289
siesta:    7    -9161.7879    -9126.2129    -9126.2559  0.7690 -5.6296
siesta:    8    -9158.2540    -9118.9074    -9118.9610  0.7730 -5.6333
siesta:    9    -9153.8931    -9117.3978    -9117.4444  0.6686 -5.5476
siesta:   10    -9153.2566    -9114.2623    -9114.3173  0.5419 -5.3851
siesta:   11    -9152.4738    -9114.0366    -9114.0959  0.4166 -5.2422
siesta:   12    -9152.1503    -9116.4084    -9116.4804  0.3180 -5.1561
siesta:   13    -9151.6679    -9119.0496    -9119.1053  0.1868 -5.2080
siesta:   14    -9151.3923    -9124.3021    -9124.3567  0.1834 -5.2268
siesta:   15    -9151.1094    -9129.6236    -9129.6767  0.1430 -5.2644
siesta:   16    -9150.9636    -9135.4707    -9135.5129  0.1101 -5.3016
siesta:   17    -9150.7781    -9141.7513    -9141.8029  0.0646 -5.3188
siesta:   18    -9150.7644    -9144.2804    -9144.3393  0.0517 -5.3350
siesta:   19    -9150.7110    -9145.3979    -9145.4551  0.0433 -5.3335
siesta:   20    -9150.6763    -9147.5189    -9147.5760  0.0251 -5.3294
siesta:   21    -9150.6700    -9149.4828    -9149.5378  0.0201 -5.3316
siesta:   22    -9150.6641    -9150.2190    -9150.2741  0.0185 -5.3352
siesta:   23    -9150.6603    -9150.5679    -9150.6234  0.0141 -5.3318
siesta:   24    -9150.6590    -9150.8067    -9150.8628  0.0105 -5.3277
siesta:   25    -9150.6588    -9151.0171    -9151.0734  0.0084 -5.3264
siesta:   26    -9150.6585    -9150.9299    -9150.9862  0.0063 -5.3262
siesta:   27    -9150.6585    -9151.0400    -9151.0964  0.0048 -5.3256
siesta:   28    -9150.6580    -9151.0021    -9151.0583  0.0037 -5.3238
siesta:   29    -9150.6578    -9150.8678    -9150.9245  0.0026 -5.3225
siesta:   30    -9150.6577    -9150.8104    -9150.8672  0.0024 -5.3222
siesta:   31    -9150.6577    -9150.8185    -9150.8753  0.0016 -5.3221
siesta:   32    -9150.6577    -9150.8103    -9150.8671  0.0008 -5.3224
siesta:   33    -9150.6578    -9150.7485    -9150.8052  0.0005 -5.3226
siesta:   34    -9150.6578    -9150.7104    -9150.7671  0.0004 -5.3225
siesta:   35    -9150.6577    -9150.6888    -9150.7455  0.0004 -5.3224
siesta:   36    -9150.6577    -9150.6775    -9150.7342  0.0003 -5.3224
siesta:   37    -9150.6577    -9150.6629    -9150.7196  0.0001 -5.3225
siesta:   38    -9150.6577    -9150.6620    -9150.7187  0.0001 -5.3225
siesta:   39    -9150.6577    -9150.6611    -9150.7178  0.0001 -5.3225

siesta: E_KS(eV) =            -9150.6600

siesta: E_KS - E_eggbox =     -9150.6600

siesta: Atomic forces (eV/Ang):
----------------------------------------
   Tot   -0.181589    0.087262    0.000000
----------------------------------------
   Max  556.747477
   Res  132.149161    sqrt( Sum f_i^2 / 3N )
----------------------------------------
   Max  556.747477    constrained

Stress-tensor-Voigt (kbar):     -735.70    -2422.32       -0.72       -0.93        0.00        0.00
(Free)E + p*V (eV/cell)    -7906.5467
Target enthalpy (eV/cell)    -9150.7168

siesta: Stress tensor (static) (eV/Ang**3):
        -0.459185   -0.000579    0.000000
        -0.000579   -1.511876    0.000000
         0.000000    0.000000   -0.000447

siesta: Pressure (static):       1052.91226825  kBar

siesta: Stress tensor (total) (eV/Ang**3):
        -0.459185   -0.000579    0.000000
        -0.000579   -1.511876    0.000000
         0.000000    0.000000   -0.000447

siesta: Pressure (total):       1052.91226825  kBar

siesta: Temp_ion =       0.000 K

* Maximum dynamic memory allocated =   242 MB
Computing bands...

siesta: Program's energy decomposition (eV):
siesta: Ebs     =     -4063.382159
siesta: Eions   =     15457.706713
siesta: Ena     =      4155.544483
siesta: Ekin    =      7905.734389
siesta: Enl     =      -760.286749
siesta: DEna    =      -736.679997
siesta: DUscf   =        98.204161
siesta: DUext   =         0.000000
siesta: Exc     =     -4355.469611
siesta: eta*DQ  =         0.000000
siesta: Emadel  =         0.000000
siesta: Emeta   =         0.000000
siesta: Emolmec =         0.000000
siesta: Ekinion =         0.000000
siesta: Eharris =     -9150.657739
siesta: Etot    =     -9150.660038
siesta: FreeEng =     -9150.716756

siesta: Final energy (eV):
siesta:  Band Struct. =   -4063.382159
siesta:       Kinetic =    7905.734389
siesta:       Hartree =   25219.578608
siesta:    Ext. field =       0.000000
siesta:   Exch.-corr. =   -4355.469611
siesta:  Ion-electron =  -58053.827383
siesta:       Ion-ion =   20133.323960
siesta:       Ekinion =       0.000000
siesta:         Total =   -9150.660038

siesta: Atomic forces (eV/Ang):
siesta:      1   -1.956880 -399.386011    0.000000
siesta:      2    4.363349  105.776326    0.000000
siesta:      3    6.148652 -293.657223    0.000000
siesta:      4   19.371642   -3.810865    0.000000
siesta:      5   17.951718 -397.160938    0.000000
siesta:      6    2.578968 -104.523978    0.000000
siesta:      7   19.451468  297.595603    0.000000
siesta:      8   15.564671    0.712025    0.000000
siesta:      9    2.725354   -3.261206    0.000000
siesta:     10   -0.330276    0.565756    0.000000
siesta:     11    2.480216   -2.921733    0.000000
siesta:     12    2.909698    2.023949    0.000000
siesta:     13   -3.195959    1.064584    0.000000
siesta:     14   -4.809297   -1.240099    0.000000
siesta:     15    7.195468   -3.421511    0.000000
siesta:     16   -6.248054    3.185896    0.000000
siesta:     17   -4.649507    1.640845    0.000000
siesta:     18    4.997324   -2.601354    0.000000
siesta:     19    0.687582 -408.096613    0.000000
siesta:     20   18.921905   -0.966053    0.000000
siesta:     21   22.747358 -403.969429    0.000000
siesta:     22   -1.655756   99.079736    0.000000
siesta:     23   -4.599711 -408.244670    0.000000
siesta:     24   -2.841430  404.626362    0.000000
siesta:     25    6.346348 -126.194008    0.000000
siesta:     26    2.451471  130.201513    0.000000
siesta:     27    1.910052    1.687110    0.000000
siesta:     28    0.738069    0.151254    0.000000
siesta:     29    6.620236    4.229889    0.000000
siesta:     30   -0.732065   -1.105782    0.000000
siesta:     31  -26.235772    3.583453    0.000000
siesta:     32  -32.899686 -550.167734    0.000000
siesta:     33   15.415443  409.254939    0.000000
siesta:     34    3.568867 -119.084695    0.000000
siesta:     35   31.774810  407.582327    0.000000
siesta:     36   21.704402    3.386063    0.000000
siesta:     37   -2.187599   -1.645095    0.000000
siesta:     38    6.099449   -2.982781    0.000000
siesta:     39   -1.144082    0.647417    0.000000
siesta:     40    6.398677   -4.597641    0.000000
siesta:     41    0.054832    6.607275    0.000000
siesta:     42    0.298327   -6.715999    0.000000
siesta:     43  -20.299544  551.600823    0.000000
siesta:     44   -1.029945 -125.714930    0.000000
siesta:     45   -2.248009  551.553641    0.000000
siesta:     46  -32.795691  549.969450    0.000000
siesta:     47  -27.166256   -1.812925    0.000000
siesta:     48  -18.493144  405.599232    0.000000
siesta:     49  -22.470015   -3.022084    0.000000
siesta:     50    3.219919  417.986210    0.000000
siesta:     51   -2.595501   -1.938463    0.000000
siesta:     52   -0.549508    2.638400    0.000000
siesta:     53    2.396647   -1.949570    0.000000
siesta:     54   -3.119643   -0.741501    0.000000
siesta:     55    2.303648   -2.820097    0.000000
siesta:     56    1.122011   -0.913978    0.000000
siesta:     57   -2.449064   -1.066304    0.000000
siesta:     58   -2.438604    2.090409    0.000000
siesta:     59   -0.301714   -0.603792    0.000000
siesta:     60    0.240815    5.905691    0.000000
siesta:     61    0.048010   -5.968878    0.000000
siesta:     62   -2.443356    1.698999    0.000000
siesta:     63    1.061699    0.533282    0.000000
siesta:     64    0.412824    2.470397    0.000000
siesta:     65   -2.214348    1.944187    0.000000
siesta:     66    0.905473   -1.928925    0.000000
siesta:     67  -22.732670    3.111631    0.000000
siesta:     68  -24.656390 -556.747477    0.000000
siesta:     69   -2.381566    0.396463    0.000000
siesta:     70    2.694804    2.210041    0.000000
siesta:     71    6.178754  118.756587    0.000000
siesta:     72   11.628496 -550.996161    0.000000
siesta: ----------------------------------------
siesta:    Tot   -0.181589    0.087262    0.000000

siesta: Stress tensor (static) (eV/Ang**3):
siesta:    -0.459185   -0.000579    0.000000
siesta:    -0.000579   -1.511876    0.000000
siesta:     0.000000    0.000000   -0.000447

siesta: Cell volume =       1893.226884 Ang**3

siesta: Pressure (static):
siesta:                Solid            Molecule  Units
siesta:           0.00715741          0.09979445  Ry/Bohr**3
siesta:           0.65716904          9.16278681  eV/Ang**3
siesta:        1052.91226825      14680.56161237  kBar
(Free)E+ p_basis*V_orbitals  =       -9112.712211
(Free)Eharris+ p_basis*V_orbitals  =       -9112.708880

siesta: Electric dipole (a.u.)  =    0.000000    0.000000    0.000000
siesta: Electric dipole (Debye) =    0.000000    0.000000    0.000000

* Maximum dynamic memory allocated : Node    0 =   242 MB
* Maximum dynamic memory allocated : Node    1 =    85 MB
* Maximum dynamic memory allocated : Node    2 =    88 MB
* Maximum dynamic memory allocated : Node    3 =   231 MB
* Maximum dynamic memory allocated : Node    4 =   233 MB
* Maximum dynamic memory allocated : Node    5 =    83 MB
* Maximum dynamic memory allocated : Node    6 =    86 MB
* Maximum dynamic memory allocated : Node    7 =   214 MB

* Maximum memory occured during matrixMtoO                    

timer: CPU execution times:
timer:  Routine       Calls   Time/call    Tot.time        %
timer:  siesta            1  133802.923  133802.923   100.00
timer:  Setup             1       2.678       2.678     0.00
timer:  bands             3     243.981     731.944     0.55
timer:  writewave         1       0.021       0.021     0.00
timer:  KSV_init          1       0.000       0.000     0.00
timer:  IterMD            1  133063.099  133063.099    99.45
timer:  hsparse           1       0.517       0.517     0.00
timer:  overlap           1       7.202       7.202     0.01
timer:  IterSCF          39    3406.496  132853.351    99.29
timer:  kinefsm           2       3.752       7.505     0.01
timer:  nlefsm            2      20.237      40.474     0.03
timer:  DHSCF            40     112.828    4513.122     3.37
timer:  DHSCF1            1       0.991       0.991     0.00
timer:  DHSCF2            1      42.650      42.650     0.03
timer:  REORD           322       0.005       1.601     0.00
timer:  POISON           41       0.881      36.139     0.03
timer:  DHSCF3           40     110.665    4426.580     3.31
timer:  rhoofd           40      25.343    1013.735     0.76
timer:  cellXC           40       3.324     132.969     0.10
timer:  vmat             40      50.395    2015.800     1.51
timer:  MolMec            2       0.000       0.001     0.00
timer:  diagon           39    3292.963  128425.538    95.98
timer:  c-eigval       9130       6.035   55097.370    41.18
timer:  c-buildHS      9130       0.052     475.156     0.36
timer:  cdiag         18139       6.179  112074.322    83.76
timer:  cdiag1        18139       0.385    6992.441     5.23
timer:  cdiag2        18139       1.769   32085.568    23.98
timer:  cdiag3        18139       3.733   67720.400    50.61
timer:  cdiag4        18139       0.157    2842.810     2.12
timer:  c-eigvec       9009       6.421   57850.764    43.24
timer:  c-buildD       9009       1.794   16163.006    12.08
timer:  DHSCF4            1      42.166      42.166     0.03
timer:  dfscf             1      39.359      39.359     0.03
timer:  overfsm           1       0.463       0.463     0.00
timer:  optical           1       4.543       4.543     0.00
  

elaps: ELAPSED times:
elaps:  Routine       Calls   Time/call    Tot.time        %
elaps:  siesta            1   16757.570   16757.570   100.00
elaps:  Setup             1       0.336       0.336     0.00
elaps:  bands             3      30.573      91.719     0.55
elaps:  writewave         1       0.002       0.002     0.00
elaps:  KSV_init          1       0.000       0.000     0.00
elaps:  IterMD            1   16664.914   16664.914    99.45
elaps:  hsparse           1       0.065       0.065     0.00
elaps:  overlap           1       0.903       0.903     0.01
elaps:  IterSCF          39     426.632   16638.648    99.29
elaps:  kinefsm           2       0.471       0.943     0.01
elaps:  nlefsm            2       2.650       5.299     0.03
elaps:  DHSCF            40      14.254     570.171     3.40
elaps:  DHSCF1            1       0.126       0.126     0.00
elaps:  DHSCF2            1       5.344       5.344     0.03
elaps:  REORD           322       0.001       0.218     0.00
elaps:  POISON           41       0.110       4.530     0.03
elaps:  DHSCF3           40      13.860     554.416     3.31
elaps:  rhoofd           40       6.512     260.487     1.55
elaps:  cellXC           40       0.416      16.639     0.10
elaps:  vmat             40       6.312     252.472     1.51
elaps:  MolMec            2       0.000       0.000     0.00
elaps:  diagon           39     412.416   16084.225    95.98
elaps:  c-eigval       9130       0.756    6900.291    41.18
elaps:  c-buildHS      9130       0.007      63.613     0.38
elaps:  cdiag         18139       0.772   13994.778    83.51
elaps:  cdiag1        18139       0.048     878.359     5.24
elaps:  cdiag2        18139       0.222    4019.088    23.98
elaps:  cdiag3        18139       0.468    8492.380    50.68
elaps:  cdiag4        18139       0.019     349.380     2.08
elaps:  c-eigvec       9009       0.800    7210.482    43.03
elaps:  c-buildD       9009       0.228    2057.032    12.28
elaps:  DHSCF4            1      10.196      10.196     0.06
elaps:  dfscf             1       9.642       9.642     0.06
elaps:  overfsm           1       0.059       0.059     0.00
elaps:  optical           1       0.000       0.000     0.00
  
>> End of run:  25-APR-2016   1:27:41
