Siesta Version:                                        siesta-3.2-pl-3
Architecture  : x86_64-unknown-linux-gnu--unknown
Compiler flags: mpiifort -g -O2 -fPIC -xSSE4.1 -fp-model source -shared-intel 
PARALLEL version

* Running on    8 nodes in parallel
>> Start of run:  20-APR-2016  21:04:32

                           ***********************       
                           *  WELCOME TO SIESTA  *       
                           ***********************       

reinit: Reading from standard input
************************** Dump of input data file ****************************
#(1) General system descriptors
SystemName            GRP_doping    # Descriptive name of the system
SystemLabel           GRP_doping    # Short name for naming files
%include STRUCT.fdf
%include KPT.fdf
%include BASIS.fdf
#%include TS.fdf # for transiesta calculation
#(4) DFT, Grid, SCF
XC.functional         GGA           # LDA or GGA (default = LDA)
XC.authors            PBE           # CA (Ceperley-Aldr) = PZ
                                    #    (Perdew-Zunger) - LDA - Default
                                    # PW92 (Perdew-Wang-92) - LDA
                                    # PBE (Perdew-Burke-Ernzerhof) - GGA
MeshCutoff            200.000000    Ry      # Default: 50.0 Ry ~ 0.444 Bohr
                                    #         100.0 Ry ~ 0.314 Bohr
MaxSCFIterations      500           # Default: 50
DM.MixingWeight       0.05          # Default: 0.25
DM.NumberPulay        10            # Default: 0
DM.PulayOnFile        F             # SystemLabel.P1, SystemLabel.P2
DM.Tolerance          1.d-4         # Default: 1.d-4
DM.UseSaveDM          .true.        # because of the bug
SCFMustConverge       .true.
NeglNonOverlapInt     F             # Default: F
#(5) Eigenvalue problem: order-N or diagonalization
SolutionMethod        Diagon        # or Transiesta
ElectronicTemperature 300.0 K       # Default: 300.0 K
#(6) Molecular dynamics and relaxations
#MD.TypeOfRun          CG            # Type of dynamics:
#MD.VariableCell       F
#MD.NumCGsteps         0           # 0 for single-point / 100 for gopt
#MD.MaxCGDispl         0.2 Bohr      # Default: 0.2 Bohr
#MD.MaxForceTol        0.02 eV/Ang   # Default: 0.04 eV/Ang
#MD.MaxStressTol       1.0 GPa       # Default: 1.0 GPa
# Geometry Constraints
#%block GeometryConstraints
#	position from 1 to 44
#%endblock GeometryConstraints
BandLinesScale   pi/a
%block BandLines
 1   0.00000000  0.00000000  0.00000000
50   0.00000000  0.07809418  0.00000000
50   0.04509075  0.07809242  0.00000000
20   0.00000000  0.00000000  0.00000000
%endblock BandLines
************************** End of input data file *****************************

reinit: -----------------------------------------------------------------------
reinit: System Name: GRP_doping
reinit: -----------------------------------------------------------------------
reinit: System Label: GRP_doping                                                  
reinit: -----------------------------------------------------------------------

initatom: Reading input for the pseudopotentials and atomic orbitals ----------
 Species number:            1  Label: N Atomic number:           7
 Species number:            2  Label: C Atomic number:           6
Ground state valence configuration:   2s02  2p03
Reading pseudopotential information in formatted form from N.psf

Valence configuration for pseudopotential generation:
2s( 2.00) rc: 1.48
2p( 3.00) rc: 1.48
3d( 0.00) rc: 1.48
4f( 0.00) rc: 1.48
Ground state valence configuration:   2s02  2p02
Reading pseudopotential information in formatted form from C.psf

Valence configuration for pseudopotential generation:
2s( 2.00) rc: 1.54
2p( 2.00) rc: 1.54
3d( 0.00) rc: 1.54
4f( 0.00) rc: 1.54
For N, standard SIESTA heuristics set lmxkb to 3
 (one more than the basis l, including polarization orbitals).
Use PS.lmax or PS.KBprojectors blocks to override.
For C, standard SIESTA heuristics set lmxkb to 3
 (one more than the basis l, including polarization orbitals).
Use PS.lmax or PS.KBprojectors blocks to override.

<basis_specs>
===============================================================================
N                    Z=   7    Mass=  14.010        Charge= 0.17977+309
Lmxo=1 Lmxkb= 3    BasisType=split      Semic=F
L=0  Nsemic=0  Cnfigmx=2
          n=1  nzeta=2  polorb=0
            splnorm:   0.15000    
               vcte:    0.0000    
               rinn:    0.0000    
                rcs:    0.0000      0.0000    
            lambdas:    1.0000      1.0000    
L=1  Nsemic=0  Cnfigmx=2
          n=1  nzeta=2  polorb=1
            splnorm:   0.15000    
               vcte:    0.0000    
               rinn:    0.0000    
                rcs:    0.0000      0.0000    
            lambdas:    1.0000      1.0000    
-------------------------------------------------------------------------------
L=0  Nkbl=1  erefs: 0.17977+309
L=1  Nkbl=1  erefs: 0.17977+309
L=2  Nkbl=1  erefs: 0.17977+309
L=3  Nkbl=1  erefs: 0.17977+309
===============================================================================
</basis_specs>

atom: Called for N                     (Z =   7)

read_vps: Pseudopotential generation method:
read_vps: ATM3      Troullier-Martins                       
Total valence charge:    5.00000

read_vps: Pseudopotential includes a core correction:
read_vps: Pseudo-core for xc-correction

xc_check: Exchange-correlation functional:
xc_check: GGA Perdew, Burke & Ernzerhof 1996
V l=0 = -2*Zval/r beyond r=  1.4606
V l=1 = -2*Zval/r beyond r=  1.4606
V l=2 = -2*Zval/r beyond r=  1.4606
V l=3 = -2*Zval/r beyond r=  1.4606
All V_l potentials equal beyond r=  1.4606
This should be close to max(r_c) in ps generation
All pots = -2*Zval/r beyond r=  1.4606

VLOCAL1: 99.0% of the norm of Vloc inside     20.347 Ry
VLOCAL1: 99.9% of the norm of Vloc inside     46.372 Ry
atom: Maximum radius for 4*pi*r*r*local-pseudopot. charge    1.76189
atom: Maximum radius for r*vlocal+2*Zval:    1.53550
GHOST: No ghost state for L =  0
GHOST: No ghost state for L =  1
GHOST: No ghost state for L =  2
GHOST: No ghost state for L =  3

KBgen: Kleinman-Bylander projectors: 
   l= 0   rc=  1.634559   el= -1.363963   Ekb=  5.296955   kbcos=  0.335621
   l= 1   rc=  1.614250   el= -0.521451   Ekb= -5.259161   kbcos= -0.433408
   l= 2   rc=  1.718383   el=  0.001991   Ekb= -1.271464   kbcos= -0.007566
   l= 3   rc=  1.761893   el=  0.003093   Ekb= -0.494769   kbcos= -0.001015

KBgen: Total number of  Kleinman-Bylander projectors:   16
atom: -------------------------------------------------------------------------

atom: SANKEY-TYPE ORBITALS:
atom: Selected multiple-zeta basis: split     

SPLIT: Orbitals with angular momentum L= 0

SPLIT: Basis orbitals for state 2s

SPLIT: PAO cut-off radius determined from an
SPLIT: energy shift=  0.007350 Ry

   izeta = 1
                 lambda =    1.000000
                     rc =    4.071465
                 energy =   -1.356470
                kinetic =    1.176977
    potential(screened) =   -2.533447
       potential(ionic) =   -8.057990

   izeta = 2
                 rmatch =    2.905100
              splitnorm =    0.150000
                 energy =   -1.158343
                kinetic =    1.813009
    potential(screened) =   -2.971352
       potential(ionic) =   -8.901931

SPLIT: Orbitals with angular momentum L= 1

SPLIT: Basis orbitals for state 2p

SPLIT: PAO cut-off radius determined from an
SPLIT: energy shift=  0.007350 Ry

   izeta = 1
                 lambda =    1.000000
                     rc =    4.972977
                 energy =   -0.513884
                kinetic =    3.441732
    potential(screened) =   -3.955616
       potential(ionic) =   -9.287901

   izeta = 2
                 rmatch =    3.054066
              splitnorm =    0.150000
                 energy =   -0.318226
                kinetic =    5.125348
    potential(screened) =   -5.443573
       potential(ionic) =  -11.380999

POLgen: Perturbative polarization orbital with L=  2

POLgen: Polarization orbital for state 2p

   izeta = 1
                     rc =    4.972977
                 energy =    1.607437
                kinetic =    3.268125
    potential(screened) =   -1.660688
       potential(ionic) =   -5.973652
atom: Total number of Sankey-type orbitals: 13

atm_pop: Valence configuration (for local Pseudopot. screening):
 2s( 2.00)                                                            
 2p( 3.00)                                                            
Vna: chval, zval:    5.00000   5.00000

Vna:  Cut-off radius for the neutral-atom potential:   4.972977
comcore: Pseudo-core radius Rcore=  1.554824

atom: _________________________________________________________________________

<basis_specs>
===============================================================================
C                    Z=   6    Mass=  12.010        Charge= 0.17977+309
Lmxo=1 Lmxkb= 3    BasisType=split      Semic=F
L=0  Nsemic=0  Cnfigmx=2
          n=1  nzeta=2  polorb=0
            splnorm:   0.15000    
               vcte:    0.0000    
               rinn:    0.0000    
                rcs:    0.0000      0.0000    
            lambdas:    1.0000      1.0000    
L=1  Nsemic=0  Cnfigmx=2
          n=1  nzeta=2  polorb=1
            splnorm:   0.15000    
               vcte:    0.0000    
               rinn:    0.0000    
                rcs:    0.0000      0.0000    
            lambdas:    1.0000      1.0000    
-------------------------------------------------------------------------------
L=0  Nkbl=1  erefs: 0.17977+309
L=1  Nkbl=1  erefs: 0.17977+309
L=2  Nkbl=1  erefs: 0.17977+309
L=3  Nkbl=1  erefs: 0.17977+309
===============================================================================
</basis_specs>

atom: Called for C                     (Z =   6)

read_vps: Pseudopotential generation method:
read_vps: ATM3      Troullier-Martins                       
Total valence charge:    4.00000

read_vps: Pseudopotential includes a core correction:
read_vps: Pseudo-core for xc-correction

xc_check: Exchange-correlation functional:
xc_check: GGA Perdew, Burke & Ernzerhof 1996
V l=0 = -2*Zval/r beyond r=  1.5227
V l=1 = -2*Zval/r beyond r=  1.5227
V l=2 = -2*Zval/r beyond r=  1.5227
V l=3 = -2*Zval/r beyond r=  1.5038
All V_l potentials equal beyond r=  1.5227
This should be close to max(r_c) in ps generation
All pots = -2*Zval/r beyond r=  1.5227

VLOCAL1: 99.0% of the norm of Vloc inside     18.722 Ry
VLOCAL1: 99.9% of the norm of Vloc inside     42.668 Ry
atom: Maximum radius for 4*pi*r*r*local-pseudopot. charge    1.83678
atom: Maximum radius for r*vlocal+2*Zval:    1.58088
GHOST: No ghost state for L =  0
GHOST: No ghost state for L =  1
GHOST: No ghost state for L =  2
GHOST: No ghost state for L =  3

KBgen: Kleinman-Bylander projectors: 
   l= 0   rc=  1.704034   el= -1.009801   Ekb=  5.335044   kbcos=  0.316824
   l= 1   rc=  1.704034   el= -0.388707   Ekb= -3.785862   kbcos= -0.366464
   l= 2   rc=  1.791422   el=  0.001971   Ekb= -0.970471   kbcos= -0.009212
   l= 3   rc=  1.859892   el=  0.003065   Ekb= -0.399525   kbcos= -0.001223

KBgen: Total number of  Kleinman-Bylander projectors:   16
atom: -------------------------------------------------------------------------

atom: SANKEY-TYPE ORBITALS:
atom: Selected multiple-zeta basis: split     

SPLIT: Orbitals with angular momentum L= 0

SPLIT: Basis orbitals for state 2s

SPLIT: PAO cut-off radius determined from an
SPLIT: energy shift=  0.007350 Ry

   izeta = 1
                 lambda =    1.000000
                     rc =    4.632753
                 energy =   -1.002270
                kinetic =    0.855760
    potential(screened) =   -1.858031
       potential(ionic) =   -5.417575

   izeta = 2
                 rmatch =    3.431921
              splitnorm =    0.150000
                 energy =   -0.867111
                kinetic =    1.300804
    potential(screened) =   -2.167915
       potential(ionic) =   -5.962684

SPLIT: Orbitals with angular momentum L= 1

SPLIT: Basis orbitals for state 2p

SPLIT: PAO cut-off radius determined from an
SPLIT: energy shift=  0.007350 Ry

   izeta = 1
                 lambda =    1.000000
                     rc =    5.658549
                 energy =   -0.381140
                kinetic =    2.399701
    potential(screened) =   -2.780841
       potential(ionic) =   -6.206085

   izeta = 2
                 rmatch =    3.653288
              splitnorm =    0.150000
                 energy =   -0.249149
                kinetic =    3.542762
    potential(screened) =   -3.791911
       potential(ionic) =   -7.581078

POLgen: Perturbative polarization orbital with L=  2

POLgen: Polarization orbital for state 2p

   izeta = 1
                     rc =    5.658549
                 energy =    1.109913
                kinetic =    2.304789
    potential(screened) =   -1.194876
       potential(ionic) =   -4.013592
atom: Total number of Sankey-type orbitals: 13

atm_pop: Valence configuration (for local Pseudopot. screening):
 2s( 2.00)                                                            
 2p( 2.00)                                                            
Vna: chval, zval:    4.00000   4.00000

Vna:  Cut-off radius for the neutral-atom potential:   5.658549
comcore: Pseudo-core radius Rcore=  1.791422

atom: _________________________________________________________________________

prinput: Basis input ----------------------------------------------------------

PAO.BasisType split     

%block ChemicalSpeciesLabel
    1    7 N                       # Species index, atomic number, species label
    2    6 C                       # Species index, atomic number, species label
%endblock ChemicalSpeciesLabel

%block PAO.Basis                 # Define Basis set
N                     2                    # Species label, number of l-shells
 n=2   0   2                         # n, l, Nzeta 
   4.071      2.905   
   1.000      1.000   
 n=2   1   2 P   1                   # n, l, Nzeta, Polarization, NzetaPol
   4.973      3.054   
   1.000      1.000   
C                     2                    # Species label, number of l-shells
 n=2   0   2                         # n, l, Nzeta 
   4.633      3.432   
   1.000      1.000   
 n=2   1   2 P   1                   # n, l, Nzeta, Polarization, NzetaPol
   5.659      3.653   
   1.000      1.000   
%endblock PAO.Basis

prinput: ----------------------------------------------------------------------

coor:   Atomic-coordinates input format  =     Fractional

siesta: Atomic coordinates (Bohr) and species
siesta:     -2.35420  38.89134   0.00000  1        1
siesta:     -2.35420  41.57980   0.00000  1        2
siesta:      6.95932  30.82560   0.00000  1        3
siesta:      6.95932  33.51406   0.00000  1        4
siesta:     -4.68258  34.85847   0.00000  1        5
siesta:     -4.68258  37.54693   0.00000  1        6
siesta:     -4.68258  10.66124   0.00000  1        7
siesta:     -4.68258  13.34970   0.00000  1        8
siesta:     -2.35420  14.69411   0.00000  1        9
siesta:     -2.35420  17.38257   0.00000  1       10
siesta:     -0.02582  18.72698   0.00000  1       11
siesta:     -0.02582  21.41544   0.00000  1       12
siesta:      2.30256  22.75985   0.00000  1       13
siesta:      2.30256  25.44831   0.00000  1       14
siesta:     -2.35420  25.44831   0.00000  1       15
siesta:    -11.66772  22.75985   0.00000  1       16
siesta:    -11.66772  25.44831   0.00000  1       17
siesta:     -9.33934  26.79272   0.00000  1       18
siesta:     -9.33934  29.48119   0.00000  1       19
siesta:      4.63094  26.79272   0.00000  1       20
siesta:      4.63094  29.48119   0.00000  1       21
siesta:     -4.68258  26.79272   0.00000  1       22
siesta:     -7.01096  30.82560   0.00000  1       23
siesta:     -7.01096  33.51406   0.00000  1       24
siesta:     -0.02582  42.92421   0.00000  1       25
siesta:     -0.02582  45.61267   0.00000  1       26
siesta:     -0.02582   2.59549   0.00000  2       27
siesta:     -0.02582   5.28395   0.00000  2       28
siesta:      2.30256  38.89134   0.00000  2       29
siesta:      2.30256  41.57980   0.00000  2       30
siesta:      4.63094  34.85847   0.00000  2       31
siesta:      4.63094  37.54693   0.00000  2       32
siesta:      9.28770  26.79272   0.00000  2       33
siesta:      9.28770  29.48119   0.00000  2       34
siesta:      2.30256   6.62836   0.00000  2       35
siesta:      2.30256   9.31683   0.00000  2       36
siesta:      4.63094  10.66124   0.00000  2       37
siesta:      4.63094  13.34970   0.00000  2       38
siesta:      6.95932  14.69411   0.00000  2       39
siesta:      6.95932  17.38257   0.00000  2       40
siesta:      9.28770  18.72698   0.00000  2       41
siesta:      9.28770  21.41544   0.00000  2       42
siesta:     11.61608  22.75985   0.00000  2       43
siesta:     11.61608  25.44831   0.00000  2       44
siesta:     -2.35420   6.62836   0.00000  2       45
siesta:     -2.35420   9.31683   0.00000  2       46
siesta:     -0.02582  10.66124   0.00000  2       47
siesta:     -0.02582  13.34970   0.00000  2       48
siesta:      2.30256  14.69411   0.00000  2       49
siesta:      2.30256  17.38257   0.00000  2       50
siesta:      4.63094  18.72698   0.00000  2       51
siesta:      4.63094  21.41544   0.00000  2       52
siesta:      6.95932  22.75985   0.00000  2       53
siesta:      6.95932  25.44831   0.00000  2       54
siesta:     -7.01096  14.69411   0.00000  2       55
siesta:     -7.01096  17.38257   0.00000  2       56
siesta:     -4.68258  18.72698   0.00000  2       57
siesta:     -4.68258  21.41544   0.00000  2       58
siesta:     -2.35420  22.75985   0.00000  2       59
siesta:     -9.33934  18.72698   0.00000  2       60
siesta:     -9.33934  21.41544   0.00000  2       61
siesta:     -7.01096  22.75985   0.00000  2       62
siesta:     -7.01096  25.44831   0.00000  2       63
siesta:     -0.02582  26.79272   0.00000  2       64
siesta:     -0.02582  29.48119   0.00000  2       65
siesta:     -4.68258  29.48119   0.00000  2       66
siesta:      2.30256  30.82560   0.00000  2       67
siesta:      2.30256  33.51406   0.00000  2       68
siesta:     -2.35420  30.82560   0.00000  2       69
siesta:     -2.35420  33.51406   0.00000  2       70
siesta:     -0.02582  34.85847   0.00000  2       71
siesta:     -0.02582  37.54693   0.00000  2       72

siesta: System type = slab      

initatomlists: Number of atoms, orbitals, and projectors:     72   936  1152

siesta: ******************** Simulation parameters ****************************
siesta:
siesta: The following are some of the parameters of the simulation.
siesta: A complete list of the parameters used, including default values,
siesta: can be found in file out.fdf
siesta:
redata: Non-Collinear-spin run           =     F
redata: SpinPolarized (Up/Down) run      =     F
redata: Number of spin components        =     1
redata: Long output                      =     F
redata: Number of Atomic Species         =        2
redata: Charge density info will appear in .RHO file
redata: Write Mulliken Pop.              =     NO
redata: Mesh Cutoff                      =   200.0000  Ry
redata: Net charge of the system         =     0.0000 |e|
redata: Max. number of SCF Iter          =      500
redata: SCF convergence failure will abort job
redata: Performing Pulay mixing using    =    10 iterations
redata: Mix DM in first SCF step ?       =     F
redata: Write Pulay info on disk?        =     F
redata: Discard 1st Pulay DM after  kick =     F
redata: New DM Mixing Weight             =     0.0500
redata: New DM Occupancy tolerance       = 0.000000000001
redata: No kicks to SCF
redata: DM Mixing Weight for Kicks       =     0.5000
redata: DM Tolerance for SCF             =     0.000100
redata: Require Energy convergence for SCF =     F
redata: DM Energy tolerance for SCF      =     0.000100 eV
redata: Require Harris convergence for SCF =     F
redata: DM Harris energy tolerance for SCF =     0.000100 eV
redata: Using Saved Data (generic)   =     F
redata: Use continuation files for DM    =     T
redata: Neglect nonoverlap interactions  =     F
redata: Method of Calculation            =     Diagonalization
redata: Divide and Conquer               =     T
redata: Electronic Temperature           =     0.0019  Ry
redata: Fix the spin of the system       =     F
redata: Dynamics option                  =     Verlet MD run
redata: Initial MD time step             =        1
redata:   Final MD time step             =        1
redata: Length of MD time step           =     1.0000  fs
redata: Initial Temperature of MD run    =     0.0000  K
redata: Perform a MD quench              =     F
redata: ***********************************************************************
Total number of electrons:   314.000000
Total ionic charge:   314.000000

* ProcessorY, Blocksize:    2  24

k-point displ. along   1 input, could be:     0.50    0.00
k-point displ. along   2 input, could be:     0.50    0.00
 Kpoints in:          231 . Kpoints trimmed:          231

siesta: k-grid: Number of k-points =   231
siesta: k-grid: Cutoff (effective) =     5.000 Ang
siesta: k-grid: Supercell and displacements
siesta: k-grid:   21   0   0      0.500
siesta: k-grid:    0  21   0      0.500
siesta: k-grid:    0   0   1      0.000
Naive supercell factors:     2    2    2

superc: Internal auxiliary supercell:     2 x     2 x     2  =       8
superc: Number of atoms, orbitals, and projectors:    576   7488   9216

* Maximum dynamic memory allocated =     4 MB

siesta:                 ==============================
                            Begin MD step =      1
                        ==============================

superc: Internal auxiliary supercell:     2 x     2 x     2  =       8
superc: Number of atoms, orbitals, and projectors:    576   7488   9216

outcell: Unit cell vectors (Ang):
       12.804619    7.392750    0.000000
        0.000000   14.785500    0.000000
        0.000000    0.000000   10.000000

outcell: Cell vector modules (Ang)   :   14.785500   14.785500   10.000000
outcell: Cell angles (23,13,12) (deg):     90.0000     90.0000     60.0000
outcell: Cell volume (Ang**3)        :   1893.2269
New_DM. Step:     1
Initializing Density Matrix...

InitMesh: MESH =   120 x   120 x    90 =     1296000
InitMesh: Mesh cutoff (required, used) =   200.000   223.865 Ry

* Maximum dynamic memory allocated =   180 MB

stepf: Fermi-Dirac step function

siesta: Program's energy decomposition (eV):
siesta: Ebs     =     -6390.545525
siesta: Eions   =     22582.429020
siesta: Ena     =      5003.702407
siesta: Ekin    =      8560.167659
siesta: Enl     =      -132.427451
siesta: DEna    =        -0.000015
siesta: DUscf   =         0.000000
siesta: DUext   =         0.000000
siesta: Exc     =     -4829.679757
siesta: eta*DQ  =         0.000000
siesta: Emadel  =         0.000000
siesta: Emeta   =         0.000000
siesta: Emolmec =         0.000000
siesta: Ekinion =         0.000000
siesta: Eharris =    -13570.919274
siesta: Etot    =    -13980.666176
siesta: FreeEng =    -13980.666176

siesta: iscf   Eharris(eV)      E_KS(eV)   FreeEng(eV)   dDmax  Ef(eV)
siesta:    1   -13570.9193   -13980.6662   -13980.6662  6.2482 -6.5093
timer: Routine,Calls,Time,% = IterSCF        1    4069.283  99.70
elaps: Routine,Calls,Wall,% = IterSCF        1     509.289  99.69
siesta:    2   -18192.5937   -12863.2141   -12863.2142 16.6909 -5.4129
siesta:    3   -13526.9545   -13752.2625   -13752.2815  2.0599 -4.3964
siesta:    4   -13478.2512   -13634.7330   -13634.7920  1.3148 -3.7299
siesta:    5   -13435.0950   -13540.2355   -13540.2938  0.8293 -3.4841
siesta:    6   -13427.3650   -13507.8074   -13507.8240  0.7555 -3.4952
siesta:    7   -13415.9262   -13488.5011   -13488.5490  0.6619 -3.3962
siesta:    8   -13410.4030   -13465.1654   -13465.2155  0.5493 -3.4291
siesta:    9   -13409.4808   -13454.1484   -13454.2044  0.4788 -3.4542
siesta:   10   -13409.1311   -13440.4428   -13440.5174  0.3806 -3.4250
siesta:   11   -13409.5730   -13422.5303   -13422.6140  0.3398 -3.4886
siesta:   12   -13409.1004   -13411.8108   -13411.8562  0.2460 -3.3870
siesta:   13   -13408.9066   -13402.6445   -13402.6886  0.2004 -3.4362
siesta:   14   -13408.7416   -13400.6250   -13400.6744  0.2523 -3.4253
siesta:   15   -13408.4185   -13402.5028   -13402.5412  0.1829 -3.4660
siesta:   16   -13408.2300   -13404.2320   -13404.2822  0.2113 -3.4981
siesta:   17   -13408.1833   -13403.8999   -13403.9640  0.1592 -3.5018
siesta:   18   -13408.1166   -13403.7328   -13403.7963  0.1016 -3.4839
siesta:   19   -13408.0895   -13404.3099   -13404.3728  0.0792 -3.4893
siesta:   20   -13408.0464   -13407.5368   -13407.6018  0.0436 -3.4937
siesta:   21   -13408.0409   -13408.5797   -13408.6470  0.0303 -3.4924
siesta:   22   -13408.0416   -13408.9952   -13409.0613  0.0353 -3.4878
siesta:   23   -13408.0369   -13409.3190   -13409.3831  0.0208 -3.4840
siesta:   24   -13408.0358   -13408.7114   -13408.7769  0.0156 -3.4817
siesta:   25   -13408.0341   -13408.3787   -13408.4449  0.0100 -3.4784
siesta:   26   -13408.0332   -13408.0919   -13408.1578  0.0088 -3.4782
siesta:   27   -13408.0330   -13407.9674   -13408.0335  0.0046 -3.4780
siesta:   28   -13408.0330   -13407.9389   -13408.0048  0.0036 -3.4786
siesta:   29   -13408.0332   -13407.9898   -13408.0556  0.0022 -3.4786
siesta:   30   -13408.0331   -13408.0197   -13408.0854  0.0019 -3.4788
siesta:   31   -13408.0331   -13408.0299   -13408.0956  0.0016 -3.4788
siesta:   32   -13408.0331   -13408.0287   -13408.0943  0.0011 -3.4790
siesta:   33   -13408.0331   -13408.0127   -13408.0784  0.0006 -3.4793
siesta:   34   -13408.0331   -13408.0183   -13408.0840  0.0003 -3.4795
siesta:   35   -13408.0331   -13408.0248   -13408.0905  0.0002 -3.4794
siesta:   36   -13408.0331   -13408.0246   -13408.0903  0.0002 -3.4794
siesta:   37   -13408.0331   -13408.0218   -13408.0875  0.0001 -3.4793
siesta:   38   -13408.0331   -13408.0200   -13408.0856  0.0001 -3.4793
siesta:   39   -13408.0331   -13408.0258   -13408.0914  0.0001 -3.4792

siesta: E_KS(eV) =           -13408.0293

siesta: E_KS - E_eggbox =    -13408.0293

siesta: Atomic forces (eV/Ang):
----------------------------------------
   Tot    0.074189   -0.087638    0.000000
----------------------------------------
   Max  784.297315
   Res  183.821602    sqrt( Sum f_i^2 / 3N )
----------------------------------------
   Max  784.297315    constrained

Stress-tensor-Voigt (kbar):     -663.34    -3254.12        0.00       -6.84        0.00        0.00
(Free)E + p*V (eV/cell)   -11865.0791
Target enthalpy (eV/cell)   -13408.0950

siesta: Stress tensor (static) (eV/Ang**3):
        -0.414017   -0.004270    0.000000
        -0.004270   -2.031040    0.000000
         0.000000    0.000000    0.000000

siesta: Pressure (static):       1305.81848477  kBar

siesta: Stress tensor (total) (eV/Ang**3):
        -0.414017   -0.004270    0.000000
        -0.004270   -2.031040    0.000000
         0.000000    0.000000    0.000000

siesta: Pressure (total):       1305.81848477  kBar

siesta: Temp_ion =       0.000 K

* Maximum dynamic memory allocated =   197 MB
Computing bands...

siesta: Program's energy decomposition (eV):
siesta: Ebs     =     -5214.880004
siesta: Eions   =     22582.429020
siesta: Ena     =      5003.702407
siesta: Ekin    =     11689.720592
siesta: Enl     =     -1849.899203
siesta: DEna    =      -776.851059
siesta: DUscf   =       107.348178
siesta: DUext   =         0.000000
siesta: Exc     =     -4999.621210
siesta: eta*DQ  =         0.000000
siesta: Emadel  =         0.000000
siesta: Emeta   =         0.000000
siesta: Emolmec =         0.000000
siesta: Ekinion =         0.000000
siesta: Eharris =    -13408.033101
siesta: Etot    =    -13408.029315
siesta: FreeEng =    -13408.094997

siesta: Final energy (eV):
siesta:  Band Struct. =   -5214.880004
siesta:       Kinetic =   11689.720592
siesta:       Hartree =   37395.360594
siesta:    Ext. field =       0.000000
siesta:   Exch.-corr. =   -4999.621210
siesta:  Ion-electron =  -86002.709807
siesta:       Ion-ion =   28509.220517
siesta:       Ekinion =       0.000000
siesta:         Total =  -13408.029315

siesta: Atomic forces (eV/Ang):
siesta:      1    8.625161  108.872100    0.000000
siesta:      2  -23.957985 -748.387270    0.000000
siesta:      3    3.450394    0.749263    0.000000
siesta:      4   -2.578159   -1.927572    0.000000
siesta:      5  -23.769436   -3.945396    0.000000
siesta:      6  -26.800225 -751.261935    0.000000
siesta:      7  -26.422857  757.154752    0.000000
siesta:      8  -36.793552   -0.593789    0.000000
siesta:      9    0.786061  772.695685    0.000000
siesta:     10  -34.798598   -2.062098    0.000000
siesta:     11   -2.302501  784.297315    0.000000
siesta:     12    2.453074    3.897879    0.000000
siesta:     13    1.166279    0.824341    0.000000
siesta:     14    0.001157    1.829311    0.000000
siesta:     15    1.262406   -0.721149    0.000000
siesta:     16    1.169714    3.677685    0.000000
siesta:     17    0.314582   -2.760025    0.000000
siesta:     18    3.025719    0.211959    0.000000
siesta:     19   -1.263138    0.735559    0.000000
siesta:     20    1.737369   -0.866981    0.000000
siesta:     21   -3.215747   -2.101486    0.000000
siesta:     22   -1.509694    0.326777    0.000000
siesta:     23    1.625207   -2.008492    0.000000
siesta:     24   -0.317343   -3.378676    0.000000
siesta:     25    1.400378  114.623624    0.000000
siesta:     26    7.182212 -743.038631    0.000000
siesta:     27    1.138158  548.737790    0.000000
siesta:     28   -1.039573 -128.243634    0.000000
siesta:     29    0.576402  126.472924    0.000000
siesta:     30   14.236630 -554.674691    0.000000
siesta:     31   24.073677    7.400203    0.000000
siesta:     32   36.128936 -552.252412    0.000000
siesta:     33    0.471990    2.504274    0.000000
siesta:     34   -1.635594    2.287990    0.000000
siesta:     35   16.559686  546.996839    0.000000
siesta:     36   -3.739019 -125.770462    0.000000
siesta:     37   31.631288  549.929668    0.000000
siesta:     38   25.862882   -5.271495    0.000000
siesta:     39   -2.810382   -2.002048    0.000000
siesta:     40    2.329383   -0.203387    0.000000
siesta:     41   -1.641104    0.014444    0.000000
siesta:     42    1.733301   -2.604368    0.000000
siesta:     43    0.020163    7.428924    0.000000
siesta:     44   -0.248674   -6.610693    0.000000
siesta:     45  -32.536138  550.822713    0.000000
siesta:     46    7.256203 -119.797997    0.000000
siesta:     47  -24.555285  548.815982    0.000000
siesta:     48    7.511340 -123.660796    0.000000
siesta:     49    6.115700  558.299795    0.000000
siesta:     50   27.079258   -6.968870    0.000000
siesta:     51   -2.329099    4.216967    0.000000
siesta:     52   -0.121194   -0.605988    0.000000
siesta:     53   -1.235898    1.038344    0.000000
siesta:     54   -1.159938   -0.403371    0.000000
siesta:     55    2.157882   -0.193649    0.000000
siesta:     56   -1.403554   -1.680854    0.000000
siesta:     57    0.775977    2.502107    0.000000
siesta:     58    1.413839   -0.856409    0.000000
siesta:     59   -0.860523    0.458650    0.000000
siesta:     60   -0.311805    0.971414    0.000000
siesta:     61   -1.736091   -0.884333    0.000000
siesta:     62    0.082401    2.235609    0.000000
siesta:     63    0.008582   -1.337608    0.000000
siesta:     64   -0.297422   -0.462883    0.000000
siesta:     65   -0.436787 -567.094304    0.000000
siesta:     66    0.459774   -1.460665    0.000000
siesta:     67   23.257728    7.629258    0.000000
siesta:     68   20.828279 -560.982337    0.000000
siesta:     69  -23.407591    7.483740    0.000000
siesta:     70   -7.582042 -571.728023    0.000000
siesta:     71    0.855460  127.983202    0.000000
siesta:     72    6.126506 -555.409948    0.000000
siesta: ----------------------------------------
siesta:    Tot    0.074189   -0.087638    0.000000

siesta: Stress tensor (static) (eV/Ang**3):
siesta:    -0.414017   -0.004270    0.000000
siesta:    -0.004270   -2.031040    0.000000
siesta:     0.000000    0.000000    0.000000

siesta: Cell volume =       1893.226884 Ang**3

siesta: Pressure (static):
siesta:                Solid            Molecule  Units
siesta:           0.00887660          0.14493803  Ry/Bohr**3
siesta:           0.81501898         13.30771657  eV/Ang**3
siesta:        1305.81848477      21321.54300045  kBar
(Free)E+ p_basis*V_orbitals  =      -13381.074433
(Free)Eharris+ p_basis*V_orbitals  =      -13381.081778

siesta: Electric dipole (a.u.)  =    0.000000    0.000000    0.000000
siesta: Electric dipole (Debye) =    0.000000    0.000000    0.000000

* Maximum dynamic memory allocated : Node    0 =   197 MB
* Maximum dynamic memory allocated : Node    1 =    69 MB
* Maximum dynamic memory allocated : Node    2 =    73 MB
* Maximum dynamic memory allocated : Node    3 =   188 MB
* Maximum dynamic memory allocated : Node    4 =   182 MB
* Maximum dynamic memory allocated : Node    5 =    70 MB
* Maximum dynamic memory allocated : Node    6 =    72 MB
* Maximum dynamic memory allocated : Node    7 =   168 MB

* Maximum memory occured during matrixMtoO                    

timer: CPU execution times:
timer:  Routine       Calls   Time/call    Tot.time        %
timer:  siesta            1  155699.952  155699.952   100.00
timer:  Setup             1       4.099       4.099     0.00
timer:  bands             3     269.149     807.446     0.52
timer:  writewave         1       0.044       0.044     0.00
timer:  KSV_init          1       0.007       0.007     0.00
timer:  IterMD            1  154882.662  154882.662    99.48
timer:  hsparse           1       0.231       0.231     0.00
timer:  overlap           1       7.702       7.702     0.00
timer:  IterSCF          39    3967.137  154718.346    99.37
timer:  kinefsm           2       3.955       7.909     0.01
timer:  nlefsm            2      18.237      36.474     0.02
timer:  DHSCF            40      83.817    3352.685     2.15
timer:  DHSCF1            1       0.763       0.763     0.00
timer:  DHSCF2            1      32.587      32.587     0.02
timer:  REORD           322       0.010       3.189     0.00
timer:  POISON           41       2.232      91.531     0.06
timer:  DHSCF3           40      82.211    3288.436     2.11
timer:  rhoofd           40      15.884     635.371     0.41
timer:  cellXC           40       3.435     137.396     0.09
timer:  vmat             40      39.517    1580.699     1.02
timer:  MolMec            2       0.000       0.000     0.00
timer:  diagon           39    3881.640  151383.959    97.23
timer:  c-eigval       9130       6.674   60934.920    39.14
timer:  c-buildHS      9130       0.111    1017.685     0.65
timer:  cdiag         18139       6.863  124495.654    79.96
timer:  cdiag1        18139       0.426    7735.209     4.97
timer:  cdiag2        18139       1.914   34726.329    22.30
timer:  cdiag3        18139       3.947   71599.274    45.99
timer:  cdiag4        18139       0.205    3712.654     2.38
timer:  c-eigvec       9009       7.228   65114.000    41.82
timer:  c-buildD       9009       2.896   26093.727    16.76
timer:  DHSCF4            1      28.771      28.771     0.02
timer:  dfscf             1      26.998      26.998     0.02
timer:  overfsm           1       0.396       0.396     0.00
timer:  optical           1       5.045       5.045     0.00
  

elaps: ELAPSED times:
elaps:  Routine       Calls   Time/call    Tot.time        %
elaps:  siesta            1   19483.169   19483.169   100.00
elaps:  Setup             1       0.534       0.534     0.00
elaps:  bands             3      33.696     101.087     0.52
elaps:  writewave         1       0.006       0.006     0.00
elaps:  KSV_init          1       0.001       0.001     0.00
elaps:  IterMD            1   19380.882   19380.882    99.47
elaps:  hsparse           1       0.028       0.028     0.00
elaps:  overlap           1       0.968       0.968     0.00
elaps:  IterSCF          39     496.421   19360.437    99.37
elaps:  kinefsm           2       0.497       0.994     0.01
elaps:  nlefsm            2       2.378       4.756     0.02
elaps:  DHSCF            40      10.585     423.416     2.17
elaps:  DHSCF1            1       0.096       0.096     0.00
elaps:  DHSCF2            1       4.079       4.079     0.02
elaps:  REORD           322       0.001       0.433     0.00
elaps:  POISON           41       0.279      11.422     0.06
elaps:  DHSCF3           40      10.285     411.389     2.11
elaps:  rhoofd           40       4.496     179.823     0.92
elaps:  cellXC           40       0.429      17.161     0.09
elaps:  vmat             40       4.944     197.741     1.01
elaps:  MolMec            2       0.000       0.000     0.00
elaps:  diagon           39     485.719   18943.023    97.23
elaps:  c-eigval       9130       0.835    7624.116    39.13
elaps:  c-buildHS      9130       0.015     137.504     0.71
elaps:  cdiag         18139       0.863   15654.750    80.35
elaps:  cdiag1        18139       0.053     958.755     4.92
elaps:  cdiag2        18139       0.240    4345.032    22.30
elaps:  cdiag3        18139       0.495    8970.750    46.04
elaps:  cdiag4        18139       0.026     466.775     2.40
elaps:  c-eigvec       9009       0.917    8262.196    42.41
elaps:  c-buildD       9009       0.349    3147.133    16.15
elaps:  DHSCF4            1       7.566       7.566     0.04
elaps:  dfscf             1       7.190       7.190     0.04
elaps:  overfsm           1       0.050       0.050     0.00
elaps:  optical           1       0.001       0.001     0.00
  
>> End of run:  21-APR-2016   2:29:15
