Siesta Version:                                        siesta-3.2-pl-3
Architecture  : x86_64-unknown-linux-gnu--unknown
Compiler flags: mpiifort -g -O2 -fPIC -xSSE4.1 -fp-model source -shared-intel 
PARALLEL version

* Running on   12 nodes in parallel
>> Start of run:   7-MAY-2016   3:50:42

                           ***********************       
                           *  WELCOME TO SIESTA  *       
                           ***********************       

reinit: Reading from standard input
************************** Dump of input data file ****************************
#(1) General system descriptors
SystemName            GRP_doping    # Descriptive name of the system
SystemLabel           GRP_doping    # Short name for naming files
%include STRUCT.fdf
%include KPT.fdf
%include BASIS.fdf
#%include TS.fdf # for transiesta calculation
#(4) DFT, Grid, SCF
XC.functional         GGA           # LDA or GGA (default = LDA)
XC.authors            PBE           # CA (Ceperley-Aldr) = PZ
                                    #    (Perdew-Zunger) - LDA - Default
                                    # PW92 (Perdew-Wang-92) - LDA
                                    # PBE (Perdew-Burke-Ernzerhof) - GGA
MeshCutoff            200.000000    Ry      # Default: 50.0 Ry ~ 0.444 Bohr
                                    #         100.0 Ry ~ 0.314 Bohr
MaxSCFIterations      500           # Default: 50
DM.MixingWeight       0.05          # Default: 0.25
DM.NumberPulay        10            # Default: 0
DM.PulayOnFile        F             # SystemLabel.P1, SystemLabel.P2
DM.Tolerance          1.d-4         # Default: 1.d-4
DM.UseSaveDM          .true.        # because of the bug
SCFMustConverge       .true.
NeglNonOverlapInt     F             # Default: F
#(5) Eigenvalue problem: order-N or diagonalization
SolutionMethod        Diagon        # or Transiesta
ElectronicTemperature 300.0 K       # Default: 300.0 K
#(6) Molecular dynamics and relaxations
#MD.TypeOfRun          CG            # Type of dynamics:
#MD.VariableCell       F
#MD.NumCGsteps         0           # 0 for single-point / 100 for gopt
#MD.MaxCGDispl         0.2 Bohr      # Default: 0.2 Bohr
#MD.MaxForceTol        0.02 eV/Ang   # Default: 0.04 eV/Ang
#MD.MaxStressTol       1.0 GPa       # Default: 1.0 GPa
# Geometry Constraints
#%block GeometryConstraints
#	position from 1 to 44
#%endblock GeometryConstraints
BandLinesScale   pi/a
%block BandLines
 1   0.00000000  0.00000000  0.00000000
50   0.00000000  0.07809418  0.00000000
50   0.04509075  0.07809242  0.00000000
20   0.00000000  0.00000000  0.00000000
%endblock BandLines
************************** End of input data file *****************************

reinit: -----------------------------------------------------------------------
reinit: System Name: GRP_doping
reinit: -----------------------------------------------------------------------
reinit: System Label: GRP_doping                                                  
reinit: -----------------------------------------------------------------------

initatom: Reading input for the pseudopotentials and atomic orbitals ----------
 Species number:            1  Label: N Atomic number:           7
 Species number:            2  Label: C Atomic number:           6
Ground state valence configuration:   2s02  2p03
Reading pseudopotential information in formatted form from N.psf

Valence configuration for pseudopotential generation:
2s( 2.00) rc: 1.48
2p( 3.00) rc: 1.48
3d( 0.00) rc: 1.48
4f( 0.00) rc: 1.48
Ground state valence configuration:   2s02  2p02
Reading pseudopotential information in formatted form from C.psf

Valence configuration for pseudopotential generation:
2s( 2.00) rc: 1.54
2p( 2.00) rc: 1.54
3d( 0.00) rc: 1.54
4f( 0.00) rc: 1.54
For N, standard SIESTA heuristics set lmxkb to 3
 (one more than the basis l, including polarization orbitals).
Use PS.lmax or PS.KBprojectors blocks to override.
For C, standard SIESTA heuristics set lmxkb to 3
 (one more than the basis l, including polarization orbitals).
Use PS.lmax or PS.KBprojectors blocks to override.

<basis_specs>
===============================================================================
N                    Z=   7    Mass=  14.010        Charge= 0.17977+309
Lmxo=1 Lmxkb= 3    BasisType=split      Semic=F
L=0  Nsemic=0  Cnfigmx=2
          n=1  nzeta=2  polorb=0
            splnorm:   0.15000    
               vcte:    0.0000    
               rinn:    0.0000    
                rcs:    0.0000      0.0000    
            lambdas:    1.0000      1.0000    
L=1  Nsemic=0  Cnfigmx=2
          n=1  nzeta=2  polorb=1
            splnorm:   0.15000    
               vcte:    0.0000    
               rinn:    0.0000    
                rcs:    0.0000      0.0000    
            lambdas:    1.0000      1.0000    
-------------------------------------------------------------------------------
L=0  Nkbl=1  erefs: 0.17977+309
L=1  Nkbl=1  erefs: 0.17977+309
L=2  Nkbl=1  erefs: 0.17977+309
L=3  Nkbl=1  erefs: 0.17977+309
===============================================================================
</basis_specs>

atom: Called for N                     (Z =   7)

read_vps: Pseudopotential generation method:
read_vps: ATM3      Troullier-Martins                       
Total valence charge:    5.00000

read_vps: Pseudopotential includes a core correction:
read_vps: Pseudo-core for xc-correction

xc_check: Exchange-correlation functional:
xc_check: GGA Perdew, Burke & Ernzerhof 1996
V l=0 = -2*Zval/r beyond r=  1.4606
V l=1 = -2*Zval/r beyond r=  1.4606
V l=2 = -2*Zval/r beyond r=  1.4606
V l=3 = -2*Zval/r beyond r=  1.4606
All V_l potentials equal beyond r=  1.4606
This should be close to max(r_c) in ps generation
All pots = -2*Zval/r beyond r=  1.4606

VLOCAL1: 99.0% of the norm of Vloc inside     20.347 Ry
VLOCAL1: 99.9% of the norm of Vloc inside     46.372 Ry
atom: Maximum radius for 4*pi*r*r*local-pseudopot. charge    1.76189
atom: Maximum radius for r*vlocal+2*Zval:    1.53550
GHOST: No ghost state for L =  0
GHOST: No ghost state for L =  1
GHOST: No ghost state for L =  2
GHOST: No ghost state for L =  3

KBgen: Kleinman-Bylander projectors: 
   l= 0   rc=  1.634559   el= -1.363963   Ekb=  5.296955   kbcos=  0.335621
   l= 1   rc=  1.614250   el= -0.521451   Ekb= -5.259161   kbcos= -0.433408
   l= 2   rc=  1.718383   el=  0.001991   Ekb= -1.271464   kbcos= -0.007566
   l= 3   rc=  1.761893   el=  0.003093   Ekb= -0.494769   kbcos= -0.001015

KBgen: Total number of  Kleinman-Bylander projectors:   16
atom: -------------------------------------------------------------------------

atom: SANKEY-TYPE ORBITALS:
atom: Selected multiple-zeta basis: split     

SPLIT: Orbitals with angular momentum L= 0

SPLIT: Basis orbitals for state 2s

SPLIT: PAO cut-off radius determined from an
SPLIT: energy shift=  0.007350 Ry

   izeta = 1
                 lambda =    1.000000
                     rc =    4.071465
                 energy =   -1.356470
                kinetic =    1.176977
    potential(screened) =   -2.533447
       potential(ionic) =   -8.057990

   izeta = 2
                 rmatch =    2.905100
              splitnorm =    0.150000
                 energy =   -1.158343
                kinetic =    1.813009
    potential(screened) =   -2.971352
       potential(ionic) =   -8.901931

SPLIT: Orbitals with angular momentum L= 1

SPLIT: Basis orbitals for state 2p

SPLIT: PAO cut-off radius determined from an
SPLIT: energy shift=  0.007350 Ry

   izeta = 1
                 lambda =    1.000000
                     rc =    4.972977
                 energy =   -0.513884
                kinetic =    3.441732
    potential(screened) =   -3.955616
       potential(ionic) =   -9.287901

   izeta = 2
                 rmatch =    3.054066
              splitnorm =    0.150000
                 energy =   -0.318226
                kinetic =    5.125348
    potential(screened) =   -5.443573
       potential(ionic) =  -11.380999

POLgen: Perturbative polarization orbital with L=  2

POLgen: Polarization orbital for state 2p

   izeta = 1
                     rc =    4.972977
                 energy =    1.607437
                kinetic =    3.268125
    potential(screened) =   -1.660688
       potential(ionic) =   -5.973652
atom: Total number of Sankey-type orbitals: 13

atm_pop: Valence configuration (for local Pseudopot. screening):
 2s( 2.00)                                                            
 2p( 3.00)                                                            
Vna: chval, zval:    5.00000   5.00000

Vna:  Cut-off radius for the neutral-atom potential:   4.972977
comcore: Pseudo-core radius Rcore=  1.554824

atom: _________________________________________________________________________

<basis_specs>
===============================================================================
C                    Z=   6    Mass=  12.010        Charge= 0.17977+309
Lmxo=1 Lmxkb= 3    BasisType=split      Semic=F
L=0  Nsemic=0  Cnfigmx=2
          n=1  nzeta=2  polorb=0
            splnorm:   0.15000    
               vcte:    0.0000    
               rinn:    0.0000    
                rcs:    0.0000      0.0000    
            lambdas:    1.0000      1.0000    
L=1  Nsemic=0  Cnfigmx=2
          n=1  nzeta=2  polorb=1
            splnorm:   0.15000    
               vcte:    0.0000    
               rinn:    0.0000    
                rcs:    0.0000      0.0000    
            lambdas:    1.0000      1.0000    
-------------------------------------------------------------------------------
L=0  Nkbl=1  erefs: 0.17977+309
L=1  Nkbl=1  erefs: 0.17977+309
L=2  Nkbl=1  erefs: 0.17977+309
L=3  Nkbl=1  erefs: 0.17977+309
===============================================================================
</basis_specs>

atom: Called for C                     (Z =   6)

read_vps: Pseudopotential generation method:
read_vps: ATM3      Troullier-Martins                       
Total valence charge:    4.00000

read_vps: Pseudopotential includes a core correction:
read_vps: Pseudo-core for xc-correction

xc_check: Exchange-correlation functional:
xc_check: GGA Perdew, Burke & Ernzerhof 1996
V l=0 = -2*Zval/r beyond r=  1.5227
V l=1 = -2*Zval/r beyond r=  1.5227
V l=2 = -2*Zval/r beyond r=  1.5227
V l=3 = -2*Zval/r beyond r=  1.5038
All V_l potentials equal beyond r=  1.5227
This should be close to max(r_c) in ps generation
All pots = -2*Zval/r beyond r=  1.5227

VLOCAL1: 99.0% of the norm of Vloc inside     18.722 Ry
VLOCAL1: 99.9% of the norm of Vloc inside     42.668 Ry
atom: Maximum radius for 4*pi*r*r*local-pseudopot. charge    1.83678
atom: Maximum radius for r*vlocal+2*Zval:    1.58088
GHOST: No ghost state for L =  0
GHOST: No ghost state for L =  1
GHOST: No ghost state for L =  2
GHOST: No ghost state for L =  3

KBgen: Kleinman-Bylander projectors: 
   l= 0   rc=  1.704034   el= -1.009801   Ekb=  5.335044   kbcos=  0.316824
   l= 1   rc=  1.704034   el= -0.388707   Ekb= -3.785862   kbcos= -0.366464
   l= 2   rc=  1.791422   el=  0.001971   Ekb= -0.970471   kbcos= -0.009212
   l= 3   rc=  1.859892   el=  0.003065   Ekb= -0.399525   kbcos= -0.001223

KBgen: Total number of  Kleinman-Bylander projectors:   16
atom: -------------------------------------------------------------------------

atom: SANKEY-TYPE ORBITALS:
atom: Selected multiple-zeta basis: split     

SPLIT: Orbitals with angular momentum L= 0

SPLIT: Basis orbitals for state 2s

SPLIT: PAO cut-off radius determined from an
SPLIT: energy shift=  0.007350 Ry

   izeta = 1
                 lambda =    1.000000
                     rc =    4.632753
                 energy =   -1.002270
                kinetic =    0.855760
    potential(screened) =   -1.858031
       potential(ionic) =   -5.417575

   izeta = 2
                 rmatch =    3.431921
              splitnorm =    0.150000
                 energy =   -0.867111
                kinetic =    1.300804
    potential(screened) =   -2.167915
       potential(ionic) =   -5.962684

SPLIT: Orbitals with angular momentum L= 1

SPLIT: Basis orbitals for state 2p

SPLIT: PAO cut-off radius determined from an
SPLIT: energy shift=  0.007350 Ry

   izeta = 1
                 lambda =    1.000000
                     rc =    5.658549
                 energy =   -0.381140
                kinetic =    2.399701
    potential(screened) =   -2.780841
       potential(ionic) =   -6.206085

   izeta = 2
                 rmatch =    3.653288
              splitnorm =    0.150000
                 energy =   -0.249149
                kinetic =    3.542762
    potential(screened) =   -3.791911
       potential(ionic) =   -7.581078

POLgen: Perturbative polarization orbital with L=  2

POLgen: Polarization orbital for state 2p

   izeta = 1
                     rc =    5.658549
                 energy =    1.109913
                kinetic =    2.304789
    potential(screened) =   -1.194876
       potential(ionic) =   -4.013592
atom: Total number of Sankey-type orbitals: 13

atm_pop: Valence configuration (for local Pseudopot. screening):
 2s( 2.00)                                                            
 2p( 2.00)                                                            
Vna: chval, zval:    4.00000   4.00000

Vna:  Cut-off radius for the neutral-atom potential:   5.658549
comcore: Pseudo-core radius Rcore=  1.791422

atom: _________________________________________________________________________

prinput: Basis input ----------------------------------------------------------

PAO.BasisType split     

%block ChemicalSpeciesLabel
    1    7 N                       # Species index, atomic number, species label
    2    6 C                       # Species index, atomic number, species label
%endblock ChemicalSpeciesLabel

%block PAO.Basis                 # Define Basis set
N                     2                    # Species label, number of l-shells
 n=2   0   2                         # n, l, Nzeta 
   4.071      2.905   
   1.000      1.000   
 n=2   1   2 P   1                   # n, l, Nzeta, Polarization, NzetaPol
   4.973      3.054   
   1.000      1.000   
C                     2                    # Species label, number of l-shells
 n=2   0   2                         # n, l, Nzeta 
   4.633      3.432   
   1.000      1.000   
 n=2   1   2 P   1                   # n, l, Nzeta, Polarization, NzetaPol
   5.659      3.653   
   1.000      1.000   
%endblock PAO.Basis

prinput: ----------------------------------------------------------------------

coor:   Atomic-coordinates input format  =     Fractional

siesta: Atomic coordinates (Bohr) and species
siesta:     -2.35420  17.38257   0.00000  1        1
siesta:     -0.02582  21.41544   0.00000  1        2
siesta:      2.30256  25.44831   0.00000  1        3
siesta:     -7.01096  22.75985   0.00000  1        4
siesta:      4.63094  29.48119   0.00000  1        5
siesta:     -4.68258  26.79272   0.00000  1        6
siesta:     -2.35420  30.82560   0.00000  1        7
siesta:     -0.02582  34.85847   0.00000  1        8
siesta:     -0.02582   2.59549   0.00000  2        9
siesta:     -0.02582   5.28395   0.00000  2       10
siesta:     -2.35420  38.89134   0.00000  2       11
siesta:     -2.35420  41.57980   0.00000  2       12
siesta:      2.30256  38.89134   0.00000  2       13
siesta:      2.30256  41.57980   0.00000  2       14
siesta:      4.63094  34.85847   0.00000  2       15
siesta:      4.63094  37.54693   0.00000  2       16
siesta:      6.95932  30.82560   0.00000  2       17
siesta:      6.95932  33.51406   0.00000  2       18
siesta:      9.28770  26.79272   0.00000  2       19
siesta:      9.28770  29.48119   0.00000  2       20
siesta:     -4.68258  34.85847   0.00000  2       21
siesta:     -4.68258  37.54693   0.00000  2       22
siesta:      2.30256   6.62836   0.00000  2       23
siesta:      2.30256   9.31683   0.00000  2       24
siesta:      4.63094  10.66124   0.00000  2       25
siesta:      4.63094  13.34970   0.00000  2       26
siesta:      6.95932  14.69411   0.00000  2       27
siesta:      6.95932  17.38257   0.00000  2       28
siesta:      9.28770  18.72698   0.00000  2       29
siesta:      9.28770  21.41544   0.00000  2       30
siesta:     11.61608  22.75985   0.00000  2       31
siesta:     11.61608  25.44831   0.00000  2       32
siesta:     -2.35420   6.62836   0.00000  2       33
siesta:     -2.35420   9.31683   0.00000  2       34
siesta:     -0.02582  10.66124   0.00000  2       35
siesta:     -0.02582  13.34970   0.00000  2       36
siesta:      2.30256  14.69411   0.00000  2       37
siesta:      2.30256  17.38257   0.00000  2       38
siesta:      4.63094  18.72698   0.00000  2       39
siesta:      4.63094  21.41544   0.00000  2       40
siesta:      6.95932  22.75985   0.00000  2       41
siesta:      6.95932  25.44831   0.00000  2       42
siesta:     -4.68258  10.66124   0.00000  2       43
siesta:     -4.68258  13.34970   0.00000  2       44
siesta:     -2.35420  14.69411   0.00000  2       45
siesta:     -0.02582  18.72698   0.00000  2       46
siesta:      2.30256  22.75985   0.00000  2       47
siesta:     -7.01096  14.69411   0.00000  2       48
siesta:     -7.01096  17.38257   0.00000  2       49
siesta:     -4.68258  18.72698   0.00000  2       50
siesta:     -4.68258  21.41544   0.00000  2       51
siesta:     -2.35420  22.75985   0.00000  2       52
siesta:     -2.35420  25.44831   0.00000  2       53
siesta:     -9.33934  18.72698   0.00000  2       54
siesta:     -9.33934  21.41544   0.00000  2       55
siesta:     -7.01096  25.44831   0.00000  2       56
siesta:    -11.66772  22.75985   0.00000  2       57
siesta:    -11.66772  25.44831   0.00000  2       58
siesta:     -9.33934  26.79272   0.00000  2       59
siesta:     -9.33934  29.48119   0.00000  2       60
siesta:      4.63094  26.79272   0.00000  2       61
siesta:     -0.02582  26.79272   0.00000  2       62
siesta:     -0.02582  29.48119   0.00000  2       63
siesta:     -4.68258  29.48119   0.00000  2       64
siesta:      2.30256  30.82560   0.00000  2       65
siesta:      2.30256  33.51406   0.00000  2       66
siesta:     -2.35420  33.51406   0.00000  2       67
siesta:     -7.01096  30.82560   0.00000  2       68
siesta:     -7.01096  33.51406   0.00000  2       69
siesta:     -0.02582  37.54693   0.00000  2       70
siesta:     -0.02582  42.92421   0.00000  2       71
siesta:     -0.02582  45.61267   0.00000  2       72

siesta: System type = slab      

initatomlists: Number of atoms, orbitals, and projectors:     72   936  1152

siesta: ******************** Simulation parameters ****************************
siesta:
siesta: The following are some of the parameters of the simulation.
siesta: A complete list of the parameters used, including default values,
siesta: can be found in file out.fdf
siesta:
redata: Non-Collinear-spin run           =     F
redata: SpinPolarized (Up/Down) run      =     F
redata: Number of spin components        =     1
redata: Long output                      =     F
redata: Number of Atomic Species         =        2
redata: Charge density info will appear in .RHO file
redata: Write Mulliken Pop.              =     NO
redata: Mesh Cutoff                      =   200.0000  Ry
redata: Net charge of the system         =     0.0000 |e|
redata: Max. number of SCF Iter          =      500
redata: SCF convergence failure will abort job
redata: Performing Pulay mixing using    =    10 iterations
redata: Mix DM in first SCF step ?       =     F
redata: Write Pulay info on disk?        =     F
redata: Discard 1st Pulay DM after  kick =     F
redata: New DM Mixing Weight             =     0.0500
redata: New DM Occupancy tolerance       = 0.000000000001
redata: No kicks to SCF
redata: DM Mixing Weight for Kicks       =     0.5000
redata: DM Tolerance for SCF             =     0.000100
redata: Require Energy convergence for SCF =     F
redata: DM Energy tolerance for SCF      =     0.000100 eV
redata: Require Harris convergence for SCF =     F
redata: DM Harris energy tolerance for SCF =     0.000100 eV
redata: Using Saved Data (generic)   =     F
redata: Use continuation files for DM    =     T
redata: Neglect nonoverlap interactions  =     F
redata: Method of Calculation            =     Diagonalization
redata: Divide and Conquer               =     T
redata: Electronic Temperature           =     0.0019  Ry
redata: Fix the spin of the system       =     F
redata: Dynamics option                  =     Verlet MD run
redata: Initial MD time step             =        1
redata:   Final MD time step             =        1
redata: Length of MD time step           =     1.0000  fs
redata: Initial Temperature of MD run    =     0.0000  K
redata: Perform a MD quench              =     F
redata: ***********************************************************************
Total number of electrons:   296.000000
Total ionic charge:   296.000000

* ProcessorY, Blocksize:    3  24

k-point displ. along   1 input, could be:     0.50    0.00
k-point displ. along   2 input, could be:     0.50    0.00
 Kpoints in:          231 . Kpoints trimmed:          231

siesta: k-grid: Number of k-points =   231
siesta: k-grid: Cutoff (effective) =     5.000 Ang
siesta: k-grid: Supercell and displacements
siesta: k-grid:   21   0   0      0.500
siesta: k-grid:    0  21   0      0.500
siesta: k-grid:    0   0   1      0.000
Naive supercell factors:     2    2    2

superc: Internal auxiliary supercell:     2 x     2 x     2  =       8
superc: Number of atoms, orbitals, and projectors:    576   7488   9216

* Maximum dynamic memory allocated =     4 MB

siesta:                 ==============================
                            Begin MD step =      1
                        ==============================

superc: Internal auxiliary supercell:     2 x     2 x     2  =       8
superc: Number of atoms, orbitals, and projectors:    576   7488   9216

outcell: Unit cell vectors (Ang):
       12.804619    7.392750    0.000000
        0.000000   14.785500    0.000000
        0.000000    0.000000   10.000000

outcell: Cell vector modules (Ang)   :   14.785500   14.785500   10.000000
outcell: Cell angles (23,13,12) (deg):     90.0000     90.0000     60.0000
outcell: Cell volume (Ang**3)        :   1893.2269
New_DM. Step:     1
Initializing Density Matrix...

InitMesh: MESH =   120 x   120 x    90 =     1296000
InitMesh: Mesh cutoff (required, used) =   200.000   223.865 Ry

* Maximum dynamic memory allocated =   137 MB

stepf: Fermi-Dirac step function

siesta: Program's energy decomposition (eV):
siesta: Ebs     =     -5998.190464
siesta: Eions   =     19688.985824
siesta: Ena     =      4790.397773
siesta: Ekin    =      7049.557044
siesta: Enl     =       392.779895
siesta: DEna    =        -0.000015
siesta: DUscf   =         0.000000
siesta: DUext   =         0.000000
siesta: Exc     =     -4364.405334
siesta: eta*DQ  =         0.000000
siesta: Emadel  =         0.000000
siesta: Emeta   =         0.000000
siesta: Emolmec =         0.000000
siesta: Ekinion =         0.000000
siesta: Eharris =    -11481.196438
siesta: Etot    =    -11820.656462
siesta: FreeEng =    -11820.656462

siesta: iscf   Eharris(eV)      E_KS(eV)   FreeEng(eV)   dDmax  Ef(eV)
siesta:    1   -11481.1964   -11820.6565   -11820.6565  8.1424 -7.4416
timer: Routine,Calls,Time,% = IterSCF        1    3004.188  99.59
elaps: Routine,Calls,Wall,% = IterSCF        1     250.945  99.59
siesta:    2   -15991.5887   -10822.2294   -10822.2835 11.8121 -4.9653
siesta:    3   -11490.0825   -11569.3842   -11569.4485  2.1176 -3.9999
siesta:    4   -11396.4028   -11500.8120   -11500.8156  1.3316 -4.1159
siesta:    5   -11359.5857   -11448.8019   -11448.8595  0.8717 -4.0857
siesta:    6   -11349.1630   -11415.7046   -11415.7499  0.9609 -3.9520
siesta:    7   -11339.2503   -11405.1195   -11405.1592  0.8646 -3.9506
siesta:    8   -11331.5110   -11390.2213   -11390.2823  0.6061 -4.1085
siesta:    9   -11330.5994   -11379.9413   -11379.9775  0.6163 -4.0919
siesta:   10   -11328.6409   -11365.1446   -11365.1720  0.4190 -4.0681
siesta:   11   -11329.7725   -11337.6070   -11337.6694  0.3090 -4.0324
siesta:   12   -11328.6813   -11329.8179   -11329.8928  0.3289 -3.9831
siesta:   13   -11328.3849   -11322.0987   -11322.1620  0.3349 -3.9664
siesta:   14   -11327.7485   -11324.1388   -11324.1995  0.2425 -4.0191
siesta:   15   -11327.6574   -11324.7454   -11324.7903  0.2049 -4.0437
siesta:   16   -11327.4959   -11325.7885   -11325.8269  0.2161 -4.0625
siesta:   17   -11327.2515   -11326.7142   -11326.7512  0.1911 -4.0865
siesta:   18   -11327.1950   -11324.9164   -11324.9715  0.1292 -4.0821
siesta:   19   -11327.1962   -11324.6550   -11324.7104  0.0733 -4.0738
siesta:   20   -11327.1428   -11325.5839   -11325.6369  0.0563 -4.0740
siesta:   21   -11327.1349   -11326.6538   -11326.7093  0.0327 -4.0682
siesta:   22   -11327.1142   -11326.2325   -11326.2887  0.0382 -4.0723
siesta:   23   -11327.1134   -11326.2803   -11326.3406  0.0241 -4.0700
siesta:   24   -11327.1070   -11326.4746   -11326.5345  0.0264 -4.0739
siesta:   25   -11327.1069   -11326.6679   -11326.7277  0.0237 -4.0737
siesta:   26   -11327.1042   -11326.5220   -11326.5816  0.0091 -4.0742
siesta:   27   -11327.1037   -11326.5232   -11326.5839  0.0068 -4.0735
siesta:   28   -11327.1032   -11326.5983   -11326.6591  0.0051 -4.0723
siesta:   29   -11327.1035   -11326.7813   -11326.8421  0.0052 -4.0718
siesta:   30   -11327.1030   -11326.9148   -11326.9751  0.0043 -4.0727
siesta:   31   -11327.1031   -11327.0291   -11327.0898  0.0028 -4.0737
siesta:   32   -11327.1025   -11327.0944   -11327.1550  0.0021 -4.0749
siesta:   33   -11327.1025   -11327.0616   -11327.1227  0.0013 -4.0748
siesta:   34   -11327.1027   -11327.0556   -11327.1166  0.0008 -4.0744
siesta:   35   -11327.1028   -11327.0756   -11327.1364  0.0005 -4.0743
siesta:   36   -11327.1028   -11327.0829   -11327.1437  0.0006 -4.0742
siesta:   37   -11327.1028   -11327.0805   -11327.1412  0.0005 -4.0742
siesta:   38   -11327.1028   -11327.0873   -11327.1480  0.0003 -4.0741
siesta:   39   -11327.1027   -11327.0928   -11327.1536  0.0003 -4.0740
siesta:   40   -11327.1027   -11327.0961   -11327.1569  0.0003 -4.0740
siesta:   41   -11327.1027   -11327.0993   -11327.1601  0.0002 -4.0740
siesta:   42   -11327.1027   -11327.0990   -11327.1598  0.0001 -4.0740

siesta: E_KS(eV) =           -11327.0995

siesta: E_KS - E_eggbox =    -11327.0995

siesta: Atomic forces (eV/Ang):
----------------------------------------
   Tot   -0.198587   -0.151296    0.000000
----------------------------------------
   Max  574.990291
   Res  161.664887    sqrt( Sum f_i^2 / 3N )
----------------------------------------
   Max  574.990291    constrained

Stress-tensor-Voigt (kbar):     -692.13    -2855.74       -0.12       -1.59        0.00        0.00
(Free)E + p*V (eV/cell)    -9929.6728
Target enthalpy (eV/cell)   -11327.1603

siesta: Stress tensor (static) (eV/Ang**3):
        -0.431988   -0.000993    0.000000
        -0.000992   -1.782392    0.000000
         0.000000    0.000000   -0.000073

siesta: Pressure (static):       1182.66121598  kBar

siesta: Stress tensor (total) (eV/Ang**3):
        -0.431988   -0.000993    0.000000
        -0.000992   -1.782392    0.000000
         0.000000    0.000000   -0.000073

siesta: Pressure (total):       1182.66121598  kBar

siesta: Temp_ion =       0.000 K

* Maximum dynamic memory allocated =   150 MB
Computing bands...

siesta: Program's energy decomposition (eV):
siesta: Ebs     =     -4759.294163
siesta: Eions   =     19688.985824
siesta: Ena     =      4790.397773
siesta: Ekin    =     10013.034143
siesta: Enl     =     -1248.575278
siesta: DEna    =      -762.559910
siesta: DUscf   =       100.533647
siesta: DUext   =         0.000000
siesta: Exc     =     -4530.944070
siesta: eta*DQ  =         0.000000
siesta: Emadel  =         0.000000
siesta: Emeta   =         0.000000
siesta: Emolmec =         0.000000
siesta: Ekinion =         0.000000
siesta: Eharris =    -11327.102747
siesta: Etot    =    -11327.099520
siesta: FreeEng =    -11327.160321

siesta: Final energy (eV):
siesta:  Band Struct. =   -4759.294163
siesta:       Kinetic =   10013.034143
siesta:       Hartree =   32801.513353
siesta:    Ext. field =       0.000000
siesta:   Exch.-corr. =   -4530.944070
siesta:  Ion-electron =  -75233.060777
siesta:       Ion-ion =   25622.357830
siesta:       Ekinion =       0.000000
siesta:         Total =  -11327.099520

siesta: Atomic forces (eV/Ang):
siesta:      1  -27.657138   -5.290124    0.000000
siesta:      2    0.390719    0.083314    0.000000
siesta:      3    0.473232   -0.124755    0.000000
siesta:      4    1.222831    1.812366    0.000000
siesta:      5   -2.134000   -4.725360    0.000000
siesta:      6    0.104779   -0.422108    0.000000
siesta:      7  -28.348892    4.526222    0.000000
siesta:      8   -1.409752  121.114436    0.000000
siesta:      9  -10.859033  550.743681    0.000000
siesta:     10   -0.597472 -122.582544    0.000000
siesta:     11    1.428173  127.589573    0.000000
siesta:     12  -19.765480 -551.323286    0.000000
siesta:     13   -1.605859  127.799370    0.000000
siesta:     14   18.337150 -549.262868    0.000000
siesta:     15   26.831055    6.582522    0.000000
siesta:     16   34.221093 -548.938477    0.000000
siesta:     17    2.074856    0.270165    0.000000
siesta:     18   -2.845080    0.959168    0.000000
siesta:     19    2.180731    2.003464    0.000000
siesta:     20   -1.593998    0.705084    0.000000
siesta:     21  -27.214361    6.321847    0.000000
siesta:     22  -34.183869 -548.411356    0.000000
siesta:     23    2.378015  545.591784    0.000000
siesta:     24   -0.570946 -123.559515    0.000000
siesta:     25   34.700694  549.118878    0.000000
siesta:     26   26.578866   -6.710998    0.000000
siesta:     27   -2.453755   -1.861544    0.000000
siesta:     28    1.833355   -0.032336    0.000000
siesta:     29   -1.214626   -0.489162    0.000000
siesta:     30    1.953507   -1.766318    0.000000
siesta:     31   -0.201268    6.970906    0.000000
siesta:     32   -0.370701   -6.798677    0.000000
siesta:     33   -6.360554  547.082117    0.000000
siesta:     34    0.858407 -124.200234    0.000000
siesta:     35   -0.772191  548.131423    0.000000
siesta:     36   -0.735265 -127.904984    0.000000
siesta:     37   21.172854  558.346084    0.000000
siesta:     38   23.884368   -5.984450    0.000000
siesta:     39   -1.616331    1.998636    0.000000
siesta:     40   -1.081955    0.218625    0.000000
siesta:     41   -0.014438    0.908253    0.000000
siesta:     42   -0.449037   -0.821329    0.000000
siesta:     43  -34.892479  548.527206    0.000000
siesta:     44  -26.650231   -6.715444    0.000000
siesta:     45  -13.098115  556.144101    0.000000
siesta:     46   13.184538  574.990291    0.000000
siesta:     47    0.948952    0.549153    0.000000
siesta:     48    2.438360   -1.911082    0.000000
siesta:     49   -0.960510   -0.157645    0.000000
siesta:     50   -0.094019    3.098609    0.000000
siesta:     51    0.142627   -0.423665    0.000000
siesta:     52   -1.000219    0.545099    0.000000
siesta:     53    0.571169   -0.233688    0.000000
siesta:     54    0.795652    0.310950    0.000000
siesta:     55   -1.541960   -1.750720    0.000000
siesta:     56    0.492282   -1.243542    0.000000
siesta:     57    0.521305    6.233650    0.000000
siesta:     58    0.041244   -6.832859    0.000000
siesta:     59   -0.936435    1.584253    0.000000
siesta:     60    0.825297    0.513805    0.000000
siesta:     61   -0.593062    0.704053    0.000000
siesta:     62   -0.234126   -0.242457    0.000000
siesta:     63   11.578813 -573.572564    0.000000
siesta:     64    0.680675   -3.222871    0.000000
siesta:     65   24.914861    6.339540    0.000000
siesta:     66   24.270343 -561.220956    0.000000
siesta:     67  -15.610618 -557.326903    0.000000
siesta:     68   -0.860776   -0.152229    0.000000
siesta:     69    2.779928    1.882049    0.000000
siesta:     70    0.216088 -538.411201    0.000000
siesta:     71   -1.799544  122.049754    0.000000
siesta:     72  -12.897314 -547.873474    0.000000
siesta: ----------------------------------------
siesta:    Tot   -0.198587   -0.151296    0.000000

siesta: Stress tensor (static) (eV/Ang**3):
siesta:    -0.431988   -0.000993    0.000000
siesta:    -0.000992   -1.782392    0.000000
siesta:     0.000000    0.000000   -0.000073

siesta: Cell volume =       1893.226884 Ang**3

siesta: Pressure (static):
siesta:                Solid            Molecule  Units
siesta:           0.00803941          0.12629584  Ry/Bohr**3
siesta:           0.73815109         11.59605416  eV/Ang**3
siesta:        1182.66121598      18579.12783421  kBar
(Free)E+ p_basis*V_orbitals  =      -11297.566411
(Free)Eharris+ p_basis*V_orbitals  =      -11297.570137

siesta: Electric dipole (a.u.)  =    0.000000    0.000000    0.000000
siesta: Electric dipole (Debye) =    0.000000    0.000000    0.000000

* Maximum dynamic memory allocated : Node    0 =   150 MB
* Maximum dynamic memory allocated : Node    1 =    59 MB
* Maximum dynamic memory allocated : Node    2 =    61 MB
* Maximum dynamic memory allocated : Node    3 =   136 MB
* Maximum dynamic memory allocated : Node    4 =   148 MB
* Maximum dynamic memory allocated : Node    5 =    54 MB
* Maximum dynamic memory allocated : Node    6 =    56 MB
* Maximum dynamic memory allocated : Node    7 =   141 MB
* Maximum dynamic memory allocated : Node    8 =   131 MB
* Maximum dynamic memory allocated : Node    9 =    53 MB
* Maximum dynamic memory allocated : Node   10 =    54 MB
* Maximum dynamic memory allocated : Node   11 =   126 MB

* Maximum memory occured during matrixMtoO                    

timer: CPU execution times:
timer:  Routine       Calls   Time/call    Tot.time        %
timer:  siesta            1  123591.573  123591.573   100.00
timer:  Setup             1       3.368       3.368     0.00
timer:  bands             3     225.938     677.813     0.55
timer:  writewave         1       0.022       0.022     0.00
timer:  KSV_init          1       0.004       0.004     0.00
timer:  IterMD            1  122903.390  122903.390    99.44
timer:  hsparse           1       0.167       0.167     0.00
timer:  overlap           1       5.985       5.985     0.00
timer:  IterSCF          42    2923.232  122775.738    99.34
timer:  kinefsm           2       3.040       6.080     0.00
timer:  nlefsm            2      18.824      37.649     0.03
timer:  DHSCF            43      64.289    2764.447     2.24
timer:  DHSCF1            1       0.906       0.906     0.00
timer:  DHSCF2            1      25.047      25.047     0.02
timer:  REORD           346       0.003       0.867     0.00
timer:  POISON           44       0.453      19.910     0.02
timer:  DHSCF3           43      63.176    2716.556     2.20
timer:  rhoofd           43      12.896     554.522     0.45
timer:  cellXC           43       2.487     106.924     0.09
timer:  vmat             43      29.907    1285.990     1.04
timer:  MolMec            2       0.000       0.001     0.00
timer:  diagon           42    2857.779  120026.699    97.12
timer:  c-eigval       9823       5.576   54770.435    44.32
timer:  c-buildHS      9823       0.033     325.715     0.26
timer:  cdiag         19525       5.682  110939.421    89.76
timer:  cdiag1        19525       0.262    5113.235     4.14
timer:  cdiag2        19525       1.828   35692.407    28.88
timer:  cdiag3        19525       3.376   65917.397    53.33
timer:  cdiag4        19525       0.088    1715.590     1.39
timer:  c-eigvec       9702       5.851   56766.712    45.93
timer:  c-buildD       9702       0.939    9114.718     7.37
timer:  DHSCF4            1      21.693      21.693     0.02
timer:  dfscf             1      20.252      20.252     0.02
timer:  overfsm           1       0.282       0.282     0.00
timer:  optical           1       6.390       6.390     0.01
  

elaps: ELAPSED times:
elaps:  Routine       Calls   Time/call    Tot.time        %
elaps:  siesta            1   10323.495   10323.495   100.00
elaps:  Setup             1       0.282       0.282     0.00
elaps:  bands             3      18.888      56.663     0.55
elaps:  writewave         1       0.002       0.002     0.00
elaps:  KSV_init          1       0.000       0.000     0.00
elaps:  IterMD            1   10266.012   10266.012    99.44
elaps:  hsparse           1       0.017       0.017     0.00
elaps:  overlap           1       0.712       0.712     0.01
elaps:  IterSCF          42     244.175   10255.349    99.34
elaps:  kinefsm           2       0.364       0.729     0.01
elaps:  nlefsm            2       1.627       3.253     0.03
elaps:  DHSCF            43       5.412     232.717     2.25
elaps:  DHSCF1            1       0.077       0.077     0.00
elaps:  DHSCF2            1       2.091       2.091     0.02
elaps:  REORD           346       0.000       0.103     0.00
elaps:  POISON           44       0.038       1.680     0.02
elaps:  DHSCF3           43       5.278     226.956     2.20
elaps:  rhoofd           43       2.269      97.581     0.95
elaps:  cellXC           43       0.207       8.912     0.09
elaps:  vmat             43       2.499     107.467     1.04
elaps:  MolMec            2       0.000       0.000     0.00
elaps:  diagon           42     238.715   10026.039    97.12
elaps:  c-eigval       9823       0.466    4574.851    44.31
elaps:  c-buildHS      9823       0.004      35.507     0.34
elaps:  cdiag         19525       0.469    9159.950    88.73
elaps:  cdiag1        19525       0.021     417.699     4.05
elaps:  cdiag2        19525       0.153    2983.995    28.90
elaps:  cdiag3        19525       0.282    5514.700    53.42
elaps:  cdiag4        19525       0.007     137.606     1.33
elaps:  c-eigvec       9702       0.479    4651.081    45.05
elaps:  c-buildD       9702       0.088     851.713     8.25
elaps:  DHSCF4            1       3.550       3.550     0.03
elaps:  dfscf             1       3.359       3.359     0.03
elaps:  overfsm           1       0.032       0.032     0.00
elaps:  optical           1       0.000       0.000     0.00
  
>> End of run:   7-MAY-2016   6:42:46
