Siesta Version:                                        siesta-3.2-pl-3
Architecture  : x86_64-unknown-linux-gnu--unknown
Compiler flags: mpiifort -g -O2 -fPIC -xSSE4.1 -fp-model source -shared-intel 
PARALLEL version

* Running on   12 nodes in parallel
>> Start of run:   1-MAY-2016   7:44:51

                           ***********************       
                           *  WELCOME TO SIESTA  *       
                           ***********************       

reinit: Reading from standard input
************************** Dump of input data file ****************************
#(1) General system descriptors
SystemName            GRP_doping    # Descriptive name of the system
SystemLabel           GRP_doping    # Short name for naming files
%include STRUCT.fdf
%include KPT.fdf
%include BASIS.fdf
#%include TS.fdf # for transiesta calculation
#(4) DFT, Grid, SCF
XC.functional         GGA           # LDA or GGA (default = LDA)
XC.authors            PBE           # CA (Ceperley-Aldr) = PZ
                                    #    (Perdew-Zunger) - LDA - Default
                                    # PW92 (Perdew-Wang-92) - LDA
                                    # PBE (Perdew-Burke-Ernzerhof) - GGA
MeshCutoff            200.000000    Ry      # Default: 50.0 Ry ~ 0.444 Bohr
                                    #         100.0 Ry ~ 0.314 Bohr
MaxSCFIterations      500           # Default: 50
DM.MixingWeight       0.05          # Default: 0.25
DM.NumberPulay        10            # Default: 0
DM.PulayOnFile        F             # SystemLabel.P1, SystemLabel.P2
DM.Tolerance          1.d-4         # Default: 1.d-4
DM.UseSaveDM          .true.        # because of the bug
SCFMustConverge       .true.
NeglNonOverlapInt     F             # Default: F
#(5) Eigenvalue problem: order-N or diagonalization
SolutionMethod        Diagon        # or Transiesta
ElectronicTemperature 300.0 K       # Default: 300.0 K
#(6) Molecular dynamics and relaxations
#MD.TypeOfRun          CG            # Type of dynamics:
#MD.VariableCell       F
#MD.NumCGsteps         0           # 0 for single-point / 100 for gopt
#MD.MaxCGDispl         0.2 Bohr      # Default: 0.2 Bohr
#MD.MaxForceTol        0.02 eV/Ang   # Default: 0.04 eV/Ang
#MD.MaxStressTol       1.0 GPa       # Default: 1.0 GPa
# Geometry Constraints
#%block GeometryConstraints
#	position from 1 to 44
#%endblock GeometryConstraints
BandLinesScale   pi/a
%block BandLines
 1   0.00000000  0.00000000  0.00000000
50   0.00000000  0.07809418  0.00000000
50   0.04509075  0.07809242  0.00000000
20   0.00000000  0.00000000  0.00000000
%endblock BandLines
************************** End of input data file *****************************

reinit: -----------------------------------------------------------------------
reinit: System Name: GRP_doping
reinit: -----------------------------------------------------------------------
reinit: System Label: GRP_doping                                                  
reinit: -----------------------------------------------------------------------

initatom: Reading input for the pseudopotentials and atomic orbitals ----------
 Species number:            1  Label: N Atomic number:           7
 Species number:            2  Label: C Atomic number:           6
Ground state valence configuration:   2s02  2p03
Reading pseudopotential information in formatted form from N.psf

Valence configuration for pseudopotential generation:
2s( 2.00) rc: 1.48
2p( 3.00) rc: 1.48
3d( 0.00) rc: 1.48
4f( 0.00) rc: 1.48
Ground state valence configuration:   2s02  2p02
Reading pseudopotential information in formatted form from C.psf

Valence configuration for pseudopotential generation:
2s( 2.00) rc: 1.54
2p( 2.00) rc: 1.54
3d( 0.00) rc: 1.54
4f( 0.00) rc: 1.54
For N, standard SIESTA heuristics set lmxkb to 3
 (one more than the basis l, including polarization orbitals).
Use PS.lmax or PS.KBprojectors blocks to override.
For C, standard SIESTA heuristics set lmxkb to 3
 (one more than the basis l, including polarization orbitals).
Use PS.lmax or PS.KBprojectors blocks to override.

<basis_specs>
===============================================================================
N                    Z=   7    Mass=  14.010        Charge= 0.17977+309
Lmxo=1 Lmxkb= 3    BasisType=split      Semic=F
L=0  Nsemic=0  Cnfigmx=2
          n=1  nzeta=2  polorb=0
            splnorm:   0.15000    
               vcte:    0.0000    
               rinn:    0.0000    
                rcs:    0.0000      0.0000    
            lambdas:    1.0000      1.0000    
L=1  Nsemic=0  Cnfigmx=2
          n=1  nzeta=2  polorb=1
            splnorm:   0.15000    
               vcte:    0.0000    
               rinn:    0.0000    
                rcs:    0.0000      0.0000    
            lambdas:    1.0000      1.0000    
-------------------------------------------------------------------------------
L=0  Nkbl=1  erefs: 0.17977+309
L=1  Nkbl=1  erefs: 0.17977+309
L=2  Nkbl=1  erefs: 0.17977+309
L=3  Nkbl=1  erefs: 0.17977+309
===============================================================================
</basis_specs>

atom: Called for N                     (Z =   7)

read_vps: Pseudopotential generation method:
read_vps: ATM3      Troullier-Martins                       
Total valence charge:    5.00000

read_vps: Pseudopotential includes a core correction:
read_vps: Pseudo-core for xc-correction

xc_check: Exchange-correlation functional:
xc_check: GGA Perdew, Burke & Ernzerhof 1996
V l=0 = -2*Zval/r beyond r=  1.4606
V l=1 = -2*Zval/r beyond r=  1.4606
V l=2 = -2*Zval/r beyond r=  1.4606
V l=3 = -2*Zval/r beyond r=  1.4606
All V_l potentials equal beyond r=  1.4606
This should be close to max(r_c) in ps generation
All pots = -2*Zval/r beyond r=  1.4606

VLOCAL1: 99.0% of the norm of Vloc inside     20.347 Ry
VLOCAL1: 99.9% of the norm of Vloc inside     46.372 Ry
atom: Maximum radius for 4*pi*r*r*local-pseudopot. charge    1.76189
atom: Maximum radius for r*vlocal+2*Zval:    1.53550
GHOST: No ghost state for L =  0
GHOST: No ghost state for L =  1
GHOST: No ghost state for L =  2
GHOST: No ghost state for L =  3

KBgen: Kleinman-Bylander projectors: 
   l= 0   rc=  1.634559   el= -1.363963   Ekb=  5.296955   kbcos=  0.335621
   l= 1   rc=  1.614250   el= -0.521451   Ekb= -5.259161   kbcos= -0.433408
   l= 2   rc=  1.718383   el=  0.001991   Ekb= -1.271464   kbcos= -0.007566
   l= 3   rc=  1.761893   el=  0.003093   Ekb= -0.494769   kbcos= -0.001015

KBgen: Total number of  Kleinman-Bylander projectors:   16
atom: -------------------------------------------------------------------------

atom: SANKEY-TYPE ORBITALS:
atom: Selected multiple-zeta basis: split     

SPLIT: Orbitals with angular momentum L= 0

SPLIT: Basis orbitals for state 2s

SPLIT: PAO cut-off radius determined from an
SPLIT: energy shift=  0.007350 Ry

   izeta = 1
                 lambda =    1.000000
                     rc =    4.071465
                 energy =   -1.356470
                kinetic =    1.176977
    potential(screened) =   -2.533447
       potential(ionic) =   -8.057990

   izeta = 2
                 rmatch =    2.905100
              splitnorm =    0.150000
                 energy =   -1.158343
                kinetic =    1.813009
    potential(screened) =   -2.971352
       potential(ionic) =   -8.901931

SPLIT: Orbitals with angular momentum L= 1

SPLIT: Basis orbitals for state 2p

SPLIT: PAO cut-off radius determined from an
SPLIT: energy shift=  0.007350 Ry

   izeta = 1
                 lambda =    1.000000
                     rc =    4.972977
                 energy =   -0.513884
                kinetic =    3.441732
    potential(screened) =   -3.955616
       potential(ionic) =   -9.287901

   izeta = 2
                 rmatch =    3.054066
              splitnorm =    0.150000
                 energy =   -0.318226
                kinetic =    5.125348
    potential(screened) =   -5.443573
       potential(ionic) =  -11.380999

POLgen: Perturbative polarization orbital with L=  2

POLgen: Polarization orbital for state 2p

   izeta = 1
                     rc =    4.972977
                 energy =    1.607437
                kinetic =    3.268125
    potential(screened) =   -1.660688
       potential(ionic) =   -5.973652
atom: Total number of Sankey-type orbitals: 13

atm_pop: Valence configuration (for local Pseudopot. screening):
 2s( 2.00)                                                            
 2p( 3.00)                                                            
Vna: chval, zval:    5.00000   5.00000

Vna:  Cut-off radius for the neutral-atom potential:   4.972977
comcore: Pseudo-core radius Rcore=  1.554824

atom: _________________________________________________________________________

<basis_specs>
===============================================================================
C                    Z=   6    Mass=  12.010        Charge= 0.17977+309
Lmxo=1 Lmxkb= 3    BasisType=split      Semic=F
L=0  Nsemic=0  Cnfigmx=2
          n=1  nzeta=2  polorb=0
            splnorm:   0.15000    
               vcte:    0.0000    
               rinn:    0.0000    
                rcs:    0.0000      0.0000    
            lambdas:    1.0000      1.0000    
L=1  Nsemic=0  Cnfigmx=2
          n=1  nzeta=2  polorb=1
            splnorm:   0.15000    
               vcte:    0.0000    
               rinn:    0.0000    
                rcs:    0.0000      0.0000    
            lambdas:    1.0000      1.0000    
-------------------------------------------------------------------------------
L=0  Nkbl=1  erefs: 0.17977+309
L=1  Nkbl=1  erefs: 0.17977+309
L=2  Nkbl=1  erefs: 0.17977+309
L=3  Nkbl=1  erefs: 0.17977+309
===============================================================================
</basis_specs>

atom: Called for C                     (Z =   6)

read_vps: Pseudopotential generation method:
read_vps: ATM3      Troullier-Martins                       
Total valence charge:    4.00000

read_vps: Pseudopotential includes a core correction:
read_vps: Pseudo-core for xc-correction

xc_check: Exchange-correlation functional:
xc_check: GGA Perdew, Burke & Ernzerhof 1996
V l=0 = -2*Zval/r beyond r=  1.5227
V l=1 = -2*Zval/r beyond r=  1.5227
V l=2 = -2*Zval/r beyond r=  1.5227
V l=3 = -2*Zval/r beyond r=  1.5038
All V_l potentials equal beyond r=  1.5227
This should be close to max(r_c) in ps generation
All pots = -2*Zval/r beyond r=  1.5227

VLOCAL1: 99.0% of the norm of Vloc inside     18.722 Ry
VLOCAL1: 99.9% of the norm of Vloc inside     42.668 Ry
atom: Maximum radius for 4*pi*r*r*local-pseudopot. charge    1.83678
atom: Maximum radius for r*vlocal+2*Zval:    1.58088
GHOST: No ghost state for L =  0
GHOST: No ghost state for L =  1
GHOST: No ghost state for L =  2
GHOST: No ghost state for L =  3

KBgen: Kleinman-Bylander projectors: 
   l= 0   rc=  1.704034   el= -1.009801   Ekb=  5.335044   kbcos=  0.316824
   l= 1   rc=  1.704034   el= -0.388707   Ekb= -3.785862   kbcos= -0.366464
   l= 2   rc=  1.791422   el=  0.001971   Ekb= -0.970471   kbcos= -0.009212
   l= 3   rc=  1.859892   el=  0.003065   Ekb= -0.399525   kbcos= -0.001223

KBgen: Total number of  Kleinman-Bylander projectors:   16
atom: -------------------------------------------------------------------------

atom: SANKEY-TYPE ORBITALS:
atom: Selected multiple-zeta basis: split     

SPLIT: Orbitals with angular momentum L= 0

SPLIT: Basis orbitals for state 2s

SPLIT: PAO cut-off radius determined from an
SPLIT: energy shift=  0.007350 Ry

   izeta = 1
                 lambda =    1.000000
                     rc =    4.632753
                 energy =   -1.002270
                kinetic =    0.855760
    potential(screened) =   -1.858031
       potential(ionic) =   -5.417575

   izeta = 2
                 rmatch =    3.431921
              splitnorm =    0.150000
                 energy =   -0.867111
                kinetic =    1.300804
    potential(screened) =   -2.167915
       potential(ionic) =   -5.962684

SPLIT: Orbitals with angular momentum L= 1

SPLIT: Basis orbitals for state 2p

SPLIT: PAO cut-off radius determined from an
SPLIT: energy shift=  0.007350 Ry

   izeta = 1
                 lambda =    1.000000
                     rc =    5.658549
                 energy =   -0.381140
                kinetic =    2.399701
    potential(screened) =   -2.780841
       potential(ionic) =   -6.206085

   izeta = 2
                 rmatch =    3.653288
              splitnorm =    0.150000
                 energy =   -0.249149
                kinetic =    3.542762
    potential(screened) =   -3.791911
       potential(ionic) =   -7.581078

POLgen: Perturbative polarization orbital with L=  2

POLgen: Polarization orbital for state 2p

   izeta = 1
                     rc =    5.658549
                 energy =    1.109913
                kinetic =    2.304789
    potential(screened) =   -1.194876
       potential(ionic) =   -4.013592
atom: Total number of Sankey-type orbitals: 13

atm_pop: Valence configuration (for local Pseudopot. screening):
 2s( 2.00)                                                            
 2p( 2.00)                                                            
Vna: chval, zval:    4.00000   4.00000

Vna:  Cut-off radius for the neutral-atom potential:   5.658549
comcore: Pseudo-core radius Rcore=  1.791422

atom: _________________________________________________________________________

prinput: Basis input ----------------------------------------------------------

PAO.BasisType split     

%block ChemicalSpeciesLabel
    1    7 N                       # Species index, atomic number, species label
    2    6 C                       # Species index, atomic number, species label
%endblock ChemicalSpeciesLabel

%block PAO.Basis                 # Define Basis set
N                     2                    # Species label, number of l-shells
 n=2   0   2                         # n, l, Nzeta 
   4.071      2.905   
   1.000      1.000   
 n=2   1   2 P   1                   # n, l, Nzeta, Polarization, NzetaPol
   4.973      3.054   
   1.000      1.000   
C                     2                    # Species label, number of l-shells
 n=2   0   2                         # n, l, Nzeta 
   4.633      3.432   
   1.000      1.000   
 n=2   1   2 P   1                   # n, l, Nzeta, Polarization, NzetaPol
   5.659      3.653   
   1.000      1.000   
%endblock PAO.Basis

prinput: ----------------------------------------------------------------------

coor:   Atomic-coordinates input format  =     Fractional

siesta: Atomic coordinates (Bohr) and species
siesta:      4.63094  34.85847   0.00000  1        1
siesta:      6.95932  30.82560   0.00000  1        2
siesta:      6.95932  33.51406   0.00000  1        3
siesta:     -0.02582  21.41544   0.00000  1        4
siesta:      2.30256  22.75985   0.00000  1        5
siesta:      2.30256  25.44831   0.00000  1        6
siesta:     -2.35420  22.75985   0.00000  1        7
siesta:     -2.35420  25.44831   0.00000  1        8
siesta:      4.63094  26.79272   0.00000  1        9
siesta:      4.63094  29.48119   0.00000  1       10
siesta:     -0.02582  26.79272   0.00000  1       11
siesta:     -0.02582  29.48119   0.00000  1       12
siesta:     -4.68258  29.48119   0.00000  1       13
siesta:      2.30256  30.82560   0.00000  1       14
siesta:      2.30256  33.51406   0.00000  1       15
siesta:     -2.35420  30.82560   0.00000  1       16
siesta:     -2.35420  33.51406   0.00000  1       17
siesta:     -7.01096  30.82560   0.00000  1       18
siesta:     -0.02582  34.85847   0.00000  1       19
siesta:     -0.02582   2.59549   0.00000  2       20
siesta:     -0.02582   5.28395   0.00000  2       21
siesta:     -2.35420  38.89134   0.00000  2       22
siesta:     -2.35420  41.57980   0.00000  2       23
siesta:      2.30256  38.89134   0.00000  2       24
siesta:      2.30256  41.57980   0.00000  2       25
siesta:      4.63094  37.54693   0.00000  2       26
siesta:      9.28770  26.79272   0.00000  2       27
siesta:      9.28770  29.48119   0.00000  2       28
siesta:     -4.68258  34.85847   0.00000  2       29
siesta:     -4.68258  37.54693   0.00000  2       30
siesta:      2.30256   6.62836   0.00000  2       31
siesta:      2.30256   9.31683   0.00000  2       32
siesta:      4.63094  10.66124   0.00000  2       33
siesta:      4.63094  13.34970   0.00000  2       34
siesta:      6.95932  14.69411   0.00000  2       35
siesta:      6.95932  17.38257   0.00000  2       36
siesta:      9.28770  18.72698   0.00000  2       37
siesta:      9.28770  21.41544   0.00000  2       38
siesta:     11.61608  22.75985   0.00000  2       39
siesta:     11.61608  25.44831   0.00000  2       40
siesta:     -2.35420   6.62836   0.00000  2       41
siesta:     -2.35420   9.31683   0.00000  2       42
siesta:     -0.02582  10.66124   0.00000  2       43
siesta:     -0.02582  13.34970   0.00000  2       44
siesta:      2.30256  14.69411   0.00000  2       45
siesta:      2.30256  17.38257   0.00000  2       46
siesta:      4.63094  18.72698   0.00000  2       47
siesta:      4.63094  21.41544   0.00000  2       48
siesta:      6.95932  22.75985   0.00000  2       49
siesta:      6.95932  25.44831   0.00000  2       50
siesta:     -4.68258  10.66124   0.00000  2       51
siesta:     -4.68258  13.34970   0.00000  2       52
siesta:     -2.35420  14.69411   0.00000  2       53
siesta:     -2.35420  17.38257   0.00000  2       54
siesta:     -0.02582  18.72698   0.00000  2       55
siesta:     -7.01096  14.69411   0.00000  2       56
siesta:     -7.01096  17.38257   0.00000  2       57
siesta:     -4.68258  18.72698   0.00000  2       58
siesta:     -4.68258  21.41544   0.00000  2       59
siesta:     -9.33934  18.72698   0.00000  2       60
siesta:     -9.33934  21.41544   0.00000  2       61
siesta:     -7.01096  22.75985   0.00000  2       62
siesta:     -7.01096  25.44831   0.00000  2       63
siesta:    -11.66772  22.75985   0.00000  2       64
siesta:    -11.66772  25.44831   0.00000  2       65
siesta:     -9.33934  26.79272   0.00000  2       66
siesta:     -9.33934  29.48119   0.00000  2       67
siesta:     -4.68258  26.79272   0.00000  2       68
siesta:     -7.01096  33.51406   0.00000  2       69
siesta:     -0.02582  37.54693   0.00000  2       70
siesta:     -0.02582  42.92421   0.00000  2       71
siesta:     -0.02582  45.61267   0.00000  2       72

siesta: System type = slab      

initatomlists: Number of atoms, orbitals, and projectors:     72   936  1152

siesta: ******************** Simulation parameters ****************************
siesta:
siesta: The following are some of the parameters of the simulation.
siesta: A complete list of the parameters used, including default values,
siesta: can be found in file out.fdf
siesta:
redata: Non-Collinear-spin run           =     F
redata: SpinPolarized (Up/Down) run      =     F
redata: Number of spin components        =     1
redata: Long output                      =     F
redata: Number of Atomic Species         =        2
redata: Charge density info will appear in .RHO file
redata: Write Mulliken Pop.              =     NO
redata: Mesh Cutoff                      =   200.0000  Ry
redata: Net charge of the system         =     0.0000 |e|
redata: Max. number of SCF Iter          =      500
redata: SCF convergence failure will abort job
redata: Performing Pulay mixing using    =    10 iterations
redata: Mix DM in first SCF step ?       =     F
redata: Write Pulay info on disk?        =     F
redata: Discard 1st Pulay DM after  kick =     F
redata: New DM Mixing Weight             =     0.0500
redata: New DM Occupancy tolerance       = 0.000000000001
redata: No kicks to SCF
redata: DM Mixing Weight for Kicks       =     0.5000
redata: DM Tolerance for SCF             =     0.000100
redata: Require Energy convergence for SCF =     F
redata: DM Energy tolerance for SCF      =     0.000100 eV
redata: Require Harris convergence for SCF =     F
redata: DM Harris energy tolerance for SCF =     0.000100 eV
redata: Using Saved Data (generic)   =     F
redata: Use continuation files for DM    =     T
redata: Neglect nonoverlap interactions  =     F
redata: Method of Calculation            =     Diagonalization
redata: Divide and Conquer               =     T
redata: Electronic Temperature           =     0.0019  Ry
redata: Fix the spin of the system       =     F
redata: Dynamics option                  =     Verlet MD run
redata: Initial MD time step             =        1
redata:   Final MD time step             =        1
redata: Length of MD time step           =     1.0000  fs
redata: Initial Temperature of MD run    =     0.0000  K
redata: Perform a MD quench              =     F
redata: ***********************************************************************
Total number of electrons:   307.000000
Total ionic charge:   307.000000

* ProcessorY, Blocksize:    3  24

k-point displ. along   1 input, could be:     0.50    0.00
k-point displ. along   2 input, could be:     0.50    0.00
 Kpoints in:          231 . Kpoints trimmed:          231

siesta: k-grid: Number of k-points =   231
siesta: k-grid: Cutoff (effective) =     5.000 Ang
siesta: k-grid: Supercell and displacements
siesta: k-grid:   21   0   0      0.500
siesta: k-grid:    0  21   0      0.500
siesta: k-grid:    0   0   1      0.000
Naive supercell factors:     2    2    2

superc: Internal auxiliary supercell:     2 x     2 x     2  =       8
superc: Number of atoms, orbitals, and projectors:    576   7488   9216

* Maximum dynamic memory allocated =     4 MB

siesta:                 ==============================
                            Begin MD step =      1
                        ==============================

superc: Internal auxiliary supercell:     2 x     2 x     2  =       8
superc: Number of atoms, orbitals, and projectors:    576   7488   9216

outcell: Unit cell vectors (Ang):
       12.804619    7.392750    0.000000
        0.000000   14.785500    0.000000
        0.000000    0.000000   10.000000

outcell: Cell vector modules (Ang)   :   14.785500   14.785500   10.000000
outcell: Cell angles (23,13,12) (deg):     90.0000     90.0000     60.0000
outcell: Cell volume (Ang**3)        :   1893.2269
New_DM. Step:     1
Initializing Density Matrix...

InitMesh: MESH =   120 x   120 x    90 =     1296000
InitMesh: Mesh cutoff (required, used) =   200.000   223.865 Ry

* Maximum dynamic memory allocated =   136 MB

stepf: Fermi-Dirac step function

siesta: Program's energy decomposition (eV):
siesta: Ebs     =     -6220.114780
siesta: Eions   =     21457.201110
siesta: Ena     =      4918.270088
siesta: Ekin    =      7972.707975
siesta: Enl     =        86.772917
siesta: DEna    =        -0.000015
siesta: DUscf   =         0.000000
siesta: DUext   =         0.000000
siesta: Exc     =     -4643.092617
siesta: eta*DQ  =         0.000000
siesta: Emadel  =         0.000000
siesta: Emeta   =         0.000000
siesta: Emolmec =         0.000000
siesta: Ekinion =         0.000000
siesta: Eharris =    -12766.384287
siesta: Etot    =    -13122.542762
siesta: FreeEng =    -13122.542762

siesta: iscf   Eharris(eV)      E_KS(eV)   FreeEng(eV)   dDmax  Ef(eV)
siesta:    1   -12766.3843   -13122.5428   -13122.5428  6.4466 -6.8322
timer: Routine,Calls,Time,% = IterSCF        1    3005.271  99.59
elaps: Routine,Calls,Wall,% = IterSCF        1     251.037  99.59
siesta:    2   -18577.3703   -11957.3513   -11957.4058 26.5079 -6.3870
siesta:    3   -12678.5178   -12969.4627   -12969.5162  3.4632 -5.6155
siesta:    4   -12664.1844   -12794.4435   -12794.5050  1.4180 -4.3383
siesta:    5   -12610.4181   -12735.7321   -12735.7708  0.9086 -3.8628
siesta:    6   -12600.8514   -12673.2270   -12673.2903  1.0451 -3.6421
siesta:    7   -12597.8401   -12662.7963   -12662.8488  1.0195 -3.6916
siesta:    8   -12592.2152   -12645.9959   -12646.0351  0.8764 -3.7224
siesta:    9   -12591.1874   -12619.4155   -12619.4677  0.6837 -3.7029
siesta:   10   -12590.5363   -12596.6221   -12596.6722  0.5273 -3.6882
siesta:   11   -12590.8702   -12582.2387   -12582.2988  0.3696 -3.6773
siesta:   12   -12590.4796   -12570.0275   -12570.0697  0.2235 -3.6338
siesta:   13   -12589.8820   -12565.8090   -12565.8692  0.1653 -3.5616
siesta:   14   -12589.5666   -12567.5691   -12567.6131  0.1575 -3.5860
siesta:   15   -12589.2604   -12566.3611   -12566.4369  0.1051 -3.5671
siesta:   16   -12589.0597   -12571.6305   -12571.6901  0.0725 -3.6064
siesta:   17   -12588.9953   -12576.1862   -12576.2558  0.0568 -3.6411
siesta:   18   -12588.9654   -12579.0841   -12579.1354  0.0391 -3.6411
siesta:   19   -12588.9608   -12583.4975   -12583.5517  0.0233 -3.6368
siesta:   20   -12588.9562   -12586.0898   -12586.1463  0.0246 -3.6383
siesta:   21   -12588.9471   -12586.8188   -12586.8719  0.0205 -3.6357
siesta:   22   -12588.9431   -12587.2622   -12587.3190  0.0213 -3.6363
siesta:   23   -12588.9468   -12588.2994   -12588.3571  0.0177 -3.6378
siesta:   24   -12588.9427   -12589.2104   -12589.2642  0.0130 -3.6325
siesta:   25   -12588.9427   -12589.8854   -12589.9425  0.0055 -3.6266
siesta:   26   -12588.9418   -12589.6894   -12589.7463  0.0037 -3.6251
siesta:   27   -12588.9420   -12589.5632   -12589.6203  0.0029 -3.6244
siesta:   28   -12588.9413   -12589.4252   -12589.4819  0.0025 -3.6233
siesta:   29   -12588.9413   -12589.2900   -12589.3472  0.0022 -3.6228
siesta:   30   -12588.9412   -12589.2462   -12589.3033  0.0013 -3.6230
siesta:   31   -12588.9413   -12589.2120   -12589.2693  0.0010 -3.6231
siesta:   32   -12588.9412   -12589.1422   -12589.1994  0.0007 -3.6233
siesta:   33   -12588.9413   -12589.0590   -12589.1163  0.0004 -3.6235
siesta:   34   -12588.9413   -12589.0244   -12589.0816  0.0002 -3.6236
siesta:   35   -12588.9413   -12588.9926   -12589.0498  0.0002 -3.6235
siesta:   36   -12588.9413   -12588.9735   -12589.0307  0.0001 -3.6235
siesta:   37   -12588.9413   -12588.9625   -12589.0197  0.0001 -3.6235

siesta: E_KS(eV) =           -12588.9490

siesta: E_KS - E_eggbox =    -12588.9490

siesta: Atomic forces (eV/Ang):
----------------------------------------
   Tot    0.111649   -0.149864    0.000000
----------------------------------------
   Max  693.158538
   Res  172.662463    sqrt( Sum f_i^2 / 3N )
----------------------------------------
   Max  693.158538    constrained

Stress-tensor-Voigt (kbar):     -717.40    -3055.88       -0.09       -7.04        0.00        0.00
(Free)E + p*V (eV/cell)   -11102.7415
Target enthalpy (eV/cell)   -12589.0062

siesta: Stress tensor (static) (eV/Ang**3):
        -0.447760   -0.004396    0.000000
        -0.004396   -1.907312    0.000000
         0.000000    0.000000   -0.000057

siesta: Pressure (static):       1257.79126147  kBar

siesta: Stress tensor (total) (eV/Ang**3):
        -0.447760   -0.004396    0.000000
        -0.004396   -1.907312    0.000000
         0.000000    0.000000   -0.000057

siesta: Pressure (total):       1257.79126147  kBar

siesta: Temp_ion =       0.000 K

* Maximum dynamic memory allocated =   148 MB
Computing bands...

siesta: Program's energy decomposition (eV):
siesta: Ebs     =     -4995.514030
siesta: Eions   =     21457.201110
siesta: Ena     =      4918.270088
siesta: Ekin    =     11026.903396
siesta: Enl     =     -1583.071431
siesta: DEna    =      -787.652083
siesta: DUscf   =       110.158722
siesta: DUext   =         0.000000
siesta: Exc     =     -4816.356604
siesta: eta*DQ  =         0.000000
siesta: Emadel  =         0.000000
siesta: Emeta   =         0.000000
siesta: Emolmec =         0.000000
siesta: Ekinion =         0.000000
siesta: Eharris =    -12588.941309
siesta: Etot    =    -12588.949022
siesta: FreeEng =    -12589.006195

siesta: Final energy (eV):
siesta:  Band Struct. =   -4995.514030
siesta:       Kinetic =   11026.903396
siesta:       Hartree =   35857.110552
siesta:    Ext. field =       0.000000
siesta:   Exch.-corr. =   -4816.356604
siesta:  Ion-electron =  -82260.153498
siesta:       Ion-ion =   27603.547132
siesta:       Ekinion =       0.000000
siesta:         Total =  -12588.949022

siesta: Atomic forces (eV/Ang):
siesta:      1   30.300627   12.214626    0.000000
siesta:      2    4.361681    0.482722    0.000000
siesta:      3    0.411684   -3.234384    0.000000
siesta:      4   -0.144913   -1.915937    0.000000
siesta:      5    0.993111   -1.313552    0.000000
siesta:      6    0.573575    0.351001    0.000000
siesta:      7   -0.413495   -0.799405    0.000000
siesta:      8   -1.392632    1.140685    0.000000
siesta:      9    1.377470   -0.361922    0.000000
siesta:     10   -0.588404   -1.992080    0.000000
siesta:     11   -0.402609    6.427023    0.000000
siesta:     12   -0.319462 -693.158538    0.000000
siesta:     13    1.186373   -5.302393    0.000000
siesta:     14   31.310548   11.454334    0.000000
siesta:     15    0.149025 -683.173266    0.000000
siesta:     16  -31.746130   10.342825    0.000000
siesta:     17  -15.813659 -672.927873    0.000000
siesta:     18   -4.283712    1.702077    0.000000
siesta:     19    0.923905  117.806706    0.000000
siesta:     20   -0.462750  638.243473    0.000000
siesta:     21    2.309661 -113.940259    0.000000
siesta:     22    3.751035  126.748202    0.000000
siesta:     23  -13.157895 -548.315459    0.000000
siesta:     24   -1.612747  126.647924    0.000000
siesta:     25   14.194060 -548.462190    0.000000
siesta:     26   24.563383 -549.869306    0.000000
siesta:     27    0.665535    1.890010    0.000000
siesta:     28   -1.910882    2.820909    0.000000
siesta:     29  -26.697341    8.648523    0.000000
siesta:     30  -32.545908 -549.251965    0.000000
siesta:     31   21.622507  658.841345    0.000000
siesta:     32    0.428943 -114.852549    0.000000
siesta:     33   37.016095  552.265967    0.000000
siesta:     34   26.899375   -6.305673    0.000000
siesta:     35   -2.355364   -0.923941    0.000000
siesta:     36    2.534666   -0.216288    0.000000
siesta:     37   -1.208369   -0.298990    0.000000
siesta:     38    1.919792   -2.277831    0.000000
siesta:     39   -0.288033    7.064159    0.000000
siesta:     40   -0.417714   -6.327439    0.000000
siesta:     41   -9.786847  654.481164    0.000000
siesta:     42    0.875968 -117.320200    0.000000
siesta:     43   -0.066238  545.021140    0.000000
siesta:     44   -0.436248 -128.381898    0.000000
siesta:     45   24.146297  558.256055    0.000000
siesta:     46   22.306034   -6.150822    0.000000
siesta:     47   -2.125990    3.734133    0.000000
siesta:     48   -0.639131   -1.194276    0.000000
siesta:     49   -0.988051    1.653125    0.000000
siesta:     50   -0.555677   -1.086275    0.000000
siesta:     51  -35.137530  549.964746    0.000000
siesta:     52  -26.743790   -6.361520    0.000000
siesta:     53  -22.682380  559.022841    0.000000
siesta:     54  -22.695727   -5.638607    0.000000
siesta:     55   -0.737774  564.649246    0.000000
siesta:     56    2.723625   -1.682500    0.000000
siesta:     57   -2.514812    0.194292    0.000000
siesta:     58    2.146317    3.483421    0.000000
siesta:     59    0.053939   -0.855408    0.000000
siesta:     60    1.346158   -0.464350    0.000000
siesta:     61   -1.555356   -2.274808    0.000000
siesta:     62    0.901577    0.665369    0.000000
siesta:     63    0.878951   -0.489450    0.000000
siesta:     64   -0.056313    7.091689    0.000000
siesta:     65    0.326611   -6.259733    0.000000
siesta:     66   -1.117820    2.189643    0.000000
siesta:     67    1.416438    1.663208    0.000000
siesta:     68    0.507231    0.761772    0.000000
siesta:     69    1.692378   -1.194017    0.000000
siesta:     70   -2.748740 -534.621320    0.000000
siesta:     71   -0.960535  127.466496    0.000000
siesta:     72    0.608053 -546.344290    0.000000
siesta: ----------------------------------------
siesta:    Tot    0.111649   -0.149864    0.000000

siesta: Stress tensor (static) (eV/Ang**3):
siesta:    -0.447760   -0.004396    0.000000
siesta:    -0.004396   -1.907312    0.000000
siesta:     0.000000    0.000000   -0.000057

siesta: Cell volume =       1893.226884 Ang**3

siesta: Pressure (static):
siesta:                Solid            Molecule  Units
siesta:           0.00855012          0.13558561  Ry/Bohr**3
siesta:           0.78504307         12.44900934  eV/Ang**3
siesta:        1257.79126147      19945.72747406  kBar
(Free)E+ p_basis*V_orbitals  =      -12560.984885
(Free)Eharris+ p_basis*V_orbitals  =      -12560.963673

siesta: Electric dipole (a.u.)  =    0.000000    0.000000    0.000000
siesta: Electric dipole (Debye) =    0.000000    0.000000    0.000000

* Maximum dynamic memory allocated : Node    0 =   141 MB
* Maximum dynamic memory allocated : Node    1 =    57 MB
* Maximum dynamic memory allocated : Node    2 =    58 MB
* Maximum dynamic memory allocated : Node    3 =   130 MB
* Maximum dynamic memory allocated : Node    4 =   148 MB
* Maximum dynamic memory allocated : Node    5 =    55 MB
* Maximum dynamic memory allocated : Node    6 =    55 MB
* Maximum dynamic memory allocated : Node    7 =   139 MB
* Maximum dynamic memory allocated : Node    8 =   125 MB
* Maximum dynamic memory allocated : Node    9 =    50 MB
* Maximum dynamic memory allocated : Node   10 =    53 MB
* Maximum dynamic memory allocated : Node   11 =   120 MB

* Maximum memory occured during matrixMtoO                    

timer: CPU execution times:
timer:  Routine       Calls   Time/call    Tot.time        %
timer:  siesta            1  108773.163  108773.163   100.00
timer:  Setup             1       3.347       3.347     0.00
timer:  bands             3     225.899     677.696     0.62
timer:  writewave         1       0.021       0.021     0.00
timer:  KSV_init          1       0.007       0.007     0.00
timer:  IterMD            1  108085.173  108085.173    99.37
timer:  hsparse           1       0.164       0.164     0.00
timer:  overlap           1       7.924       7.924     0.01
timer:  IterSCF          37    2917.833  107959.833    99.25
timer:  kinefsm           2       4.007       8.013     0.01
timer:  nlefsm            2      18.209      36.417     0.03
timer:  DHSCF            38      63.785    2423.812     2.23
timer:  DHSCF1            1       0.900       0.900     0.00
timer:  DHSCF2            1      24.937      24.937     0.02
timer:  REORD           306       0.002       0.743     0.00
timer:  POISON           39       0.449      17.507     0.02
timer:  DHSCF3           38      62.563    2377.411     2.19
timer:  rhoofd           38      12.033     457.241     0.42
timer:  cellXC           38       2.440      92.711     0.09
timer:  vmat             38      28.933    1099.469     1.01
timer:  MolMec            2       0.000       0.000     0.00
timer:  diagon           37    2852.834  105554.876    97.04
timer:  c-eigval       8668       5.572   48301.445    44.41
timer:  c-buildHS      8668       0.032     278.959     0.26
timer:  cdiag         17215       5.674   97670.395    89.79
timer:  cdiag1        17215       0.261    4490.414     4.13
timer:  cdiag2        17215       1.828   31477.058    28.94
timer:  cdiag3        17215       3.375   58106.527    53.42
timer:  cdiag4        17215       0.090    1541.849     1.42
timer:  c-eigvec       8547       5.836   49883.981    45.86
timer:  c-buildD       8547       0.936    8000.125     7.35
timer:  DHSCF4            1      20.302      20.302     0.02
timer:  dfscf             1      18.893      18.893     0.02
timer:  overfsm           1       0.277       0.277     0.00
timer:  optical           1       6.337       6.337     0.01
  

elaps: ELAPSED times:
elaps:  Routine       Calls   Time/call    Tot.time        %
elaps:  siesta            1    9085.747    9085.747   100.00
elaps:  Setup             1       0.279       0.279     0.00
elaps:  bands             3      18.885      56.654     0.62
elaps:  writewave         1       0.002       0.002     0.00
elaps:  KSV_init          1       0.000       0.000     0.00
elaps:  IterMD            1    9028.281    9028.281    99.37
elaps:  hsparse           1       0.017       0.017     0.00
elaps:  overlap           1       0.710       0.710     0.01
elaps:  IterSCF          37     243.725    9017.812    99.25
elaps:  kinefsm           2       0.362       0.725     0.01
elaps:  nlefsm            2       1.605       3.211     0.04
elaps:  DHSCF            38       5.369     204.008     2.25
elaps:  DHSCF1            1       0.077       0.077     0.00
elaps:  DHSCF2            1       2.081       2.081     0.02
elaps:  REORD           306       0.000       0.091     0.00
elaps:  POISON           39       0.038       1.483     0.02
elaps:  DHSCF3           38       5.227     198.623     2.19
elaps:  rhoofd           38       1.960      74.493     0.82
elaps:  cellXC           38       0.203       7.728     0.09
elaps:  vmat             38       2.418      91.880     1.01
elaps:  MolMec            2       0.000       0.000     0.00
elaps:  diagon           37     238.301    8817.141    97.04
elaps:  c-eigval       8668       0.465    4034.513    44.40
elaps:  c-buildHS      8668       0.003      30.194     0.33
elaps:  cdiag         17215       0.469    8076.586    88.89
elaps:  cdiag1        17215       0.021     366.476     4.03
elaps:  cdiag2        17215       0.153    2631.578    28.96
elaps:  cdiag3        17215       0.282    4860.601    53.50
elaps:  cdiag4        17215       0.007     123.408     1.36
elaps:  c-eigvec       8547       0.479    4097.771    45.10
elaps:  c-buildD       8547       0.086     736.982     8.11
elaps:  DHSCF4            1       3.184       3.184     0.04
elaps:  dfscf             1       3.001       3.001     0.03
elaps:  overfsm           1       0.030       0.030     0.00
elaps:  optical           1       0.000       0.000     0.00
  
>> End of run:   1-MAY-2016  10:16:16
