Siesta Version:                                        siesta-3.2-pl-3
Architecture  : x86_64-unknown-linux-gnu--unknown
Compiler flags: mpiifort -g -O2 -fPIC -xSSE4.1 -fp-model source -shared-intel 
PARALLEL version

* Running on    8 nodes in parallel
>> Start of run:  29-APR-2016  13:15:07

                           ***********************       
                           *  WELCOME TO SIESTA  *       
                           ***********************       

reinit: Reading from standard input
************************** Dump of input data file ****************************
#(1) General system descriptors
SystemName            GRP_doping    # Descriptive name of the system
SystemLabel           GRP_doping    # Short name for naming files
%include STRUCT.fdf
%include KPT.fdf
%include BASIS.fdf
#%include TS.fdf # for transiesta calculation
#(4) DFT, Grid, SCF
XC.functional         GGA           # LDA or GGA (default = LDA)
XC.authors            PBE           # CA (Ceperley-Aldr) = PZ
                                    #    (Perdew-Zunger) - LDA - Default
                                    # PW92 (Perdew-Wang-92) - LDA
                                    # PBE (Perdew-Burke-Ernzerhof) - GGA
MeshCutoff            200.000000    Ry      # Default: 50.0 Ry ~ 0.444 Bohr
                                    #         100.0 Ry ~ 0.314 Bohr
MaxSCFIterations      500           # Default: 50
DM.MixingWeight       0.05          # Default: 0.25
DM.NumberPulay        10            # Default: 0
DM.PulayOnFile        F             # SystemLabel.P1, SystemLabel.P2
DM.Tolerance          1.d-4         # Default: 1.d-4
DM.UseSaveDM          .true.        # because of the bug
SCFMustConverge       .true.
NeglNonOverlapInt     F             # Default: F
#(5) Eigenvalue problem: order-N or diagonalization
SolutionMethod        Diagon        # or Transiesta
ElectronicTemperature 300.0 K       # Default: 300.0 K
#(6) Molecular dynamics and relaxations
#MD.TypeOfRun          CG            # Type of dynamics:
#MD.VariableCell       F
#MD.NumCGsteps         0           # 0 for single-point / 100 for gopt
#MD.MaxCGDispl         0.2 Bohr      # Default: 0.2 Bohr
#MD.MaxForceTol        0.02 eV/Ang   # Default: 0.04 eV/Ang
#MD.MaxStressTol       1.0 GPa       # Default: 1.0 GPa
# Geometry Constraints
#%block GeometryConstraints
#	position from 1 to 44
#%endblock GeometryConstraints
BandLinesScale   pi/a
%block BandLines
 1   0.00000000  0.00000000  0.00000000
50   0.00000000  0.07809418  0.00000000
50   0.04509075  0.07809242  0.00000000
20   0.00000000  0.00000000  0.00000000
%endblock BandLines
************************** End of input data file *****************************

reinit: -----------------------------------------------------------------------
reinit: System Name: GRP_doping
reinit: -----------------------------------------------------------------------
reinit: System Label: GRP_doping                                                  
reinit: -----------------------------------------------------------------------

initatom: Reading input for the pseudopotentials and atomic orbitals ----------
 Species number:            1  Label: N Atomic number:           7
 Species number:            2  Label: C Atomic number:           6
Ground state valence configuration:   2s02  2p03
Reading pseudopotential information in formatted form from N.psf

Valence configuration for pseudopotential generation:
2s( 2.00) rc: 1.48
2p( 3.00) rc: 1.48
3d( 0.00) rc: 1.48
4f( 0.00) rc: 1.48
Ground state valence configuration:   2s02  2p02
Reading pseudopotential information in formatted form from C.psf

Valence configuration for pseudopotential generation:
2s( 2.00) rc: 1.54
2p( 2.00) rc: 1.54
3d( 0.00) rc: 1.54
4f( 0.00) rc: 1.54
For N, standard SIESTA heuristics set lmxkb to 3
 (one more than the basis l, including polarization orbitals).
Use PS.lmax or PS.KBprojectors blocks to override.
For C, standard SIESTA heuristics set lmxkb to 3
 (one more than the basis l, including polarization orbitals).
Use PS.lmax or PS.KBprojectors blocks to override.

<basis_specs>
===============================================================================
N                    Z=   7    Mass=  14.010        Charge= 0.17977+309
Lmxo=1 Lmxkb= 3    BasisType=split      Semic=F
L=0  Nsemic=0  Cnfigmx=2
          n=1  nzeta=2  polorb=0
            splnorm:   0.15000    
               vcte:    0.0000    
               rinn:    0.0000    
                rcs:    0.0000      0.0000    
            lambdas:    1.0000      1.0000    
L=1  Nsemic=0  Cnfigmx=2
          n=1  nzeta=2  polorb=1
            splnorm:   0.15000    
               vcte:    0.0000    
               rinn:    0.0000    
                rcs:    0.0000      0.0000    
            lambdas:    1.0000      1.0000    
-------------------------------------------------------------------------------
L=0  Nkbl=1  erefs: 0.17977+309
L=1  Nkbl=1  erefs: 0.17977+309
L=2  Nkbl=1  erefs: 0.17977+309
L=3  Nkbl=1  erefs: 0.17977+309
===============================================================================
</basis_specs>

atom: Called for N                     (Z =   7)

read_vps: Pseudopotential generation method:
read_vps: ATM3      Troullier-Martins                       
Total valence charge:    5.00000

read_vps: Pseudopotential includes a core correction:
read_vps: Pseudo-core for xc-correction

xc_check: Exchange-correlation functional:
xc_check: GGA Perdew, Burke & Ernzerhof 1996
V l=0 = -2*Zval/r beyond r=  1.4606
V l=1 = -2*Zval/r beyond r=  1.4606
V l=2 = -2*Zval/r beyond r=  1.4606
V l=3 = -2*Zval/r beyond r=  1.4606
All V_l potentials equal beyond r=  1.4606
This should be close to max(r_c) in ps generation
All pots = -2*Zval/r beyond r=  1.4606

VLOCAL1: 99.0% of the norm of Vloc inside     20.347 Ry
VLOCAL1: 99.9% of the norm of Vloc inside     46.372 Ry
atom: Maximum radius for 4*pi*r*r*local-pseudopot. charge    1.76189
atom: Maximum radius for r*vlocal+2*Zval:    1.53550
GHOST: No ghost state for L =  0
GHOST: No ghost state for L =  1
GHOST: No ghost state for L =  2
GHOST: No ghost state for L =  3

KBgen: Kleinman-Bylander projectors: 
   l= 0   rc=  1.634559   el= -1.363963   Ekb=  5.296955   kbcos=  0.335621
   l= 1   rc=  1.614250   el= -0.521451   Ekb= -5.259161   kbcos= -0.433408
   l= 2   rc=  1.718383   el=  0.001991   Ekb= -1.271464   kbcos= -0.007566
   l= 3   rc=  1.761893   el=  0.003093   Ekb= -0.494769   kbcos= -0.001015

KBgen: Total number of  Kleinman-Bylander projectors:   16
atom: -------------------------------------------------------------------------

atom: SANKEY-TYPE ORBITALS:
atom: Selected multiple-zeta basis: split     

SPLIT: Orbitals with angular momentum L= 0

SPLIT: Basis orbitals for state 2s

SPLIT: PAO cut-off radius determined from an
SPLIT: energy shift=  0.007350 Ry

   izeta = 1
                 lambda =    1.000000
                     rc =    4.071465
                 energy =   -1.356470
                kinetic =    1.176977
    potential(screened) =   -2.533447
       potential(ionic) =   -8.057990

   izeta = 2
                 rmatch =    2.905100
              splitnorm =    0.150000
                 energy =   -1.158343
                kinetic =    1.813009
    potential(screened) =   -2.971352
       potential(ionic) =   -8.901931

SPLIT: Orbitals with angular momentum L= 1

SPLIT: Basis orbitals for state 2p

SPLIT: PAO cut-off radius determined from an
SPLIT: energy shift=  0.007350 Ry

   izeta = 1
                 lambda =    1.000000
                     rc =    4.972977
                 energy =   -0.513884
                kinetic =    3.441732
    potential(screened) =   -3.955616
       potential(ionic) =   -9.287901

   izeta = 2
                 rmatch =    3.054066
              splitnorm =    0.150000
                 energy =   -0.318226
                kinetic =    5.125348
    potential(screened) =   -5.443573
       potential(ionic) =  -11.380999

POLgen: Perturbative polarization orbital with L=  2

POLgen: Polarization orbital for state 2p

   izeta = 1
                     rc =    4.972977
                 energy =    1.607437
                kinetic =    3.268125
    potential(screened) =   -1.660688
       potential(ionic) =   -5.973652
atom: Total number of Sankey-type orbitals: 13

atm_pop: Valence configuration (for local Pseudopot. screening):
 2s( 2.00)                                                            
 2p( 3.00)                                                            
Vna: chval, zval:    5.00000   5.00000

Vna:  Cut-off radius for the neutral-atom potential:   4.972977
comcore: Pseudo-core radius Rcore=  1.554824

atom: _________________________________________________________________________

<basis_specs>
===============================================================================
C                    Z=   6    Mass=  12.010        Charge= 0.17977+309
Lmxo=1 Lmxkb= 3    BasisType=split      Semic=F
L=0  Nsemic=0  Cnfigmx=2
          n=1  nzeta=2  polorb=0
            splnorm:   0.15000    
               vcte:    0.0000    
               rinn:    0.0000    
                rcs:    0.0000      0.0000    
            lambdas:    1.0000      1.0000    
L=1  Nsemic=0  Cnfigmx=2
          n=1  nzeta=2  polorb=1
            splnorm:   0.15000    
               vcte:    0.0000    
               rinn:    0.0000    
                rcs:    0.0000      0.0000    
            lambdas:    1.0000      1.0000    
-------------------------------------------------------------------------------
L=0  Nkbl=1  erefs: 0.17977+309
L=1  Nkbl=1  erefs: 0.17977+309
L=2  Nkbl=1  erefs: 0.17977+309
L=3  Nkbl=1  erefs: 0.17977+309
===============================================================================
</basis_specs>

atom: Called for C                     (Z =   6)

read_vps: Pseudopotential generation method:
read_vps: ATM3      Troullier-Martins                       
Total valence charge:    4.00000

read_vps: Pseudopotential includes a core correction:
read_vps: Pseudo-core for xc-correction

xc_check: Exchange-correlation functional:
xc_check: GGA Perdew, Burke & Ernzerhof 1996
V l=0 = -2*Zval/r beyond r=  1.5227
V l=1 = -2*Zval/r beyond r=  1.5227
V l=2 = -2*Zval/r beyond r=  1.5227
V l=3 = -2*Zval/r beyond r=  1.5038
All V_l potentials equal beyond r=  1.5227
This should be close to max(r_c) in ps generation
All pots = -2*Zval/r beyond r=  1.5227

VLOCAL1: 99.0% of the norm of Vloc inside     18.722 Ry
VLOCAL1: 99.9% of the norm of Vloc inside     42.668 Ry
atom: Maximum radius for 4*pi*r*r*local-pseudopot. charge    1.83678
atom: Maximum radius for r*vlocal+2*Zval:    1.58088
GHOST: No ghost state for L =  0
GHOST: No ghost state for L =  1
GHOST: No ghost state for L =  2
GHOST: No ghost state for L =  3

KBgen: Kleinman-Bylander projectors: 
   l= 0   rc=  1.704034   el= -1.009801   Ekb=  5.335044   kbcos=  0.316824
   l= 1   rc=  1.704034   el= -0.388707   Ekb= -3.785862   kbcos= -0.366464
   l= 2   rc=  1.791422   el=  0.001971   Ekb= -0.970471   kbcos= -0.009212
   l= 3   rc=  1.859892   el=  0.003065   Ekb= -0.399525   kbcos= -0.001223

KBgen: Total number of  Kleinman-Bylander projectors:   16
atom: -------------------------------------------------------------------------

atom: SANKEY-TYPE ORBITALS:
atom: Selected multiple-zeta basis: split     

SPLIT: Orbitals with angular momentum L= 0

SPLIT: Basis orbitals for state 2s

SPLIT: PAO cut-off radius determined from an
SPLIT: energy shift=  0.007350 Ry

   izeta = 1
                 lambda =    1.000000
                     rc =    4.632753
                 energy =   -1.002270
                kinetic =    0.855760
    potential(screened) =   -1.858031
       potential(ionic) =   -5.417575

   izeta = 2
                 rmatch =    3.431921
              splitnorm =    0.150000
                 energy =   -0.867111
                kinetic =    1.300804
    potential(screened) =   -2.167915
       potential(ionic) =   -5.962684

SPLIT: Orbitals with angular momentum L= 1

SPLIT: Basis orbitals for state 2p

SPLIT: PAO cut-off radius determined from an
SPLIT: energy shift=  0.007350 Ry

   izeta = 1
                 lambda =    1.000000
                     rc =    5.658549
                 energy =   -0.381140
                kinetic =    2.399701
    potential(screened) =   -2.780841
       potential(ionic) =   -6.206085

   izeta = 2
                 rmatch =    3.653288
              splitnorm =    0.150000
                 energy =   -0.249149
                kinetic =    3.542762
    potential(screened) =   -3.791911
       potential(ionic) =   -7.581078

POLgen: Perturbative polarization orbital with L=  2

POLgen: Polarization orbital for state 2p

   izeta = 1
                     rc =    5.658549
                 energy =    1.109913
                kinetic =    2.304789
    potential(screened) =   -1.194876
       potential(ionic) =   -4.013592
atom: Total number of Sankey-type orbitals: 13

atm_pop: Valence configuration (for local Pseudopot. screening):
 2s( 2.00)                                                            
 2p( 2.00)                                                            
Vna: chval, zval:    4.00000   4.00000

Vna:  Cut-off radius for the neutral-atom potential:   5.658549
comcore: Pseudo-core radius Rcore=  1.791422

atom: _________________________________________________________________________

prinput: Basis input ----------------------------------------------------------

PAO.BasisType split     

%block ChemicalSpeciesLabel
    1    7 N                       # Species index, atomic number, species label
    2    6 C                       # Species index, atomic number, species label
%endblock ChemicalSpeciesLabel

%block PAO.Basis                 # Define Basis set
N                     2                    # Species label, number of l-shells
 n=2   0   2                         # n, l, Nzeta 
   4.071      2.905   
   1.000      1.000   
 n=2   1   2 P   1                   # n, l, Nzeta, Polarization, NzetaPol
   4.973      3.054   
   1.000      1.000   
C                     2                    # Species label, number of l-shells
 n=2   0   2                         # n, l, Nzeta 
   4.633      3.432   
   1.000      1.000   
 n=2   1   2 P   1                   # n, l, Nzeta, Polarization, NzetaPol
   5.659      3.653   
   1.000      1.000   
%endblock PAO.Basis

prinput: ----------------------------------------------------------------------

coor:   Atomic-coordinates input format  =     Fractional

siesta: Atomic coordinates (Bohr) and species
siesta:      4.63094  34.85847   0.00000  1        1
siesta:      6.95932  30.82560   0.00000  1        2
siesta:      6.95932  33.51406   0.00000  1        3
siesta:     -4.68258  34.85847   0.00000  1        4
siesta:     -4.68258  37.54693   0.00000  1        5
siesta:     -2.35420  17.38257   0.00000  1        6
siesta:     -0.02582  18.72698   0.00000  1        7
siesta:     -0.02582  21.41544   0.00000  1        8
siesta:      2.30256  22.75985   0.00000  1        9
siesta:      2.30256  25.44831   0.00000  1       10
siesta:     -4.68258  18.72698   0.00000  1       11
siesta:     -4.68258  21.41544   0.00000  1       12
siesta:     -2.35420  22.75985   0.00000  1       13
siesta:     -2.35420  25.44831   0.00000  1       14
siesta:      4.63094  26.79272   0.00000  1       15
siesta:      4.63094  29.48119   0.00000  1       16
siesta:     -0.02582  26.79272   0.00000  1       17
siesta:     -0.02582  29.48119   0.00000  1       18
siesta:      2.30256  30.82560   0.00000  1       19
siesta:      2.30256  33.51406   0.00000  1       20
siesta:     -2.35420  30.82560   0.00000  1       21
siesta:     -0.02582   2.59549   0.00000  2       22
siesta:     -0.02582   5.28395   0.00000  2       23
siesta:     -2.35420  38.89134   0.00000  2       24
siesta:     -2.35420  41.57980   0.00000  2       25
siesta:      2.30256  38.89134   0.00000  2       26
siesta:      2.30256  41.57980   0.00000  2       27
siesta:      4.63094  37.54693   0.00000  2       28
siesta:      9.28770  26.79272   0.00000  2       29
siesta:      9.28770  29.48119   0.00000  2       30
siesta:      2.30256   6.62836   0.00000  2       31
siesta:      2.30256   9.31683   0.00000  2       32
siesta:      4.63094  10.66124   0.00000  2       33
siesta:      4.63094  13.34970   0.00000  2       34
siesta:      6.95932  14.69411   0.00000  2       35
siesta:      6.95932  17.38257   0.00000  2       36
siesta:      9.28770  18.72698   0.00000  2       37
siesta:      9.28770  21.41544   0.00000  2       38
siesta:     11.61608  22.75985   0.00000  2       39
siesta:     11.61608  25.44831   0.00000  2       40
siesta:     -2.35420   6.62836   0.00000  2       41
siesta:     -2.35420   9.31683   0.00000  2       42
siesta:     -0.02582  10.66124   0.00000  2       43
siesta:     -0.02582  13.34970   0.00000  2       44
siesta:      2.30256  14.69411   0.00000  2       45
siesta:      2.30256  17.38257   0.00000  2       46
siesta:      4.63094  18.72698   0.00000  2       47
siesta:      4.63094  21.41544   0.00000  2       48
siesta:      6.95932  22.75985   0.00000  2       49
siesta:      6.95932  25.44831   0.00000  2       50
siesta:     -4.68258  10.66124   0.00000  2       51
siesta:     -4.68258  13.34970   0.00000  2       52
siesta:     -2.35420  14.69411   0.00000  2       53
siesta:     -7.01096  14.69411   0.00000  2       54
siesta:     -7.01096  17.38257   0.00000  2       55
siesta:     -9.33934  18.72698   0.00000  2       56
siesta:     -9.33934  21.41544   0.00000  2       57
siesta:     -7.01096  22.75985   0.00000  2       58
siesta:     -7.01096  25.44831   0.00000  2       59
siesta:    -11.66772  22.75985   0.00000  2       60
siesta:    -11.66772  25.44831   0.00000  2       61
siesta:     -9.33934  26.79272   0.00000  2       62
siesta:     -9.33934  29.48119   0.00000  2       63
siesta:     -4.68258  26.79272   0.00000  2       64
siesta:     -4.68258  29.48119   0.00000  2       65
siesta:     -2.35420  33.51406   0.00000  2       66
siesta:     -7.01096  30.82560   0.00000  2       67
siesta:     -7.01096  33.51406   0.00000  2       68
siesta:     -0.02582  34.85847   0.00000  2       69
siesta:     -0.02582  37.54693   0.00000  2       70
siesta:     -0.02582  42.92421   0.00000  2       71
siesta:     -0.02582  45.61267   0.00000  2       72

siesta: System type = slab      

initatomlists: Number of atoms, orbitals, and projectors:     72   936  1152

siesta: ******************** Simulation parameters ****************************
siesta:
siesta: The following are some of the parameters of the simulation.
siesta: A complete list of the parameters used, including default values,
siesta: can be found in file out.fdf
siesta:
redata: Non-Collinear-spin run           =     F
redata: SpinPolarized (Up/Down) run      =     F
redata: Number of spin components        =     1
redata: Long output                      =     F
redata: Number of Atomic Species         =        2
redata: Charge density info will appear in .RHO file
redata: Write Mulliken Pop.              =     NO
redata: Mesh Cutoff                      =   200.0000  Ry
redata: Net charge of the system         =     0.0000 |e|
redata: Max. number of SCF Iter          =      500
redata: SCF convergence failure will abort job
redata: Performing Pulay mixing using    =    10 iterations
redata: Mix DM in first SCF step ?       =     F
redata: Write Pulay info on disk?        =     F
redata: Discard 1st Pulay DM after  kick =     F
redata: New DM Mixing Weight             =     0.0500
redata: New DM Occupancy tolerance       = 0.000000000001
redata: No kicks to SCF
redata: DM Mixing Weight for Kicks       =     0.5000
redata: DM Tolerance for SCF             =     0.000100
redata: Require Energy convergence for SCF =     F
redata: DM Energy tolerance for SCF      =     0.000100 eV
redata: Require Harris convergence for SCF =     F
redata: DM Harris energy tolerance for SCF =     0.000100 eV
redata: Using Saved Data (generic)   =     F
redata: Use continuation files for DM    =     T
redata: Neglect nonoverlap interactions  =     F
redata: Method of Calculation            =     Diagonalization
redata: Divide and Conquer               =     T
redata: Electronic Temperature           =     0.0019  Ry
redata: Fix the spin of the system       =     F
redata: Dynamics option                  =     Verlet MD run
redata: Initial MD time step             =        1
redata:   Final MD time step             =        1
redata: Length of MD time step           =     1.0000  fs
redata: Initial Temperature of MD run    =     0.0000  K
redata: Perform a MD quench              =     F
redata: ***********************************************************************
Total number of electrons:   309.000000
Total ionic charge:   309.000000

* ProcessorY, Blocksize:    2  24

k-point displ. along   1 input, could be:     0.50    0.00
k-point displ. along   2 input, could be:     0.50    0.00
 Kpoints in:          231 . Kpoints trimmed:          231

siesta: k-grid: Number of k-points =   231
siesta: k-grid: Cutoff (effective) =     5.000 Ang
siesta: k-grid: Supercell and displacements
siesta: k-grid:   21   0   0      0.500
siesta: k-grid:    0  21   0      0.500
siesta: k-grid:    0   0   1      0.000
Naive supercell factors:     2    2    2

superc: Internal auxiliary supercell:     2 x     2 x     2  =       8
superc: Number of atoms, orbitals, and projectors:    576   7488   9216

* Maximum dynamic memory allocated =     4 MB

siesta:                 ==============================
                            Begin MD step =      1
                        ==============================

superc: Internal auxiliary supercell:     2 x     2 x     2  =       8
superc: Number of atoms, orbitals, and projectors:    576   7488   9216

outcell: Unit cell vectors (Ang):
       12.804619    7.392750    0.000000
        0.000000   14.785500    0.000000
        0.000000    0.000000   10.000000

outcell: Cell vector modules (Ang)   :   14.785500   14.785500   10.000000
outcell: Cell angles (23,13,12) (deg):     90.0000     90.0000     60.0000
outcell: Cell volume (Ang**3)        :   1893.2269
New_DM. Step:     1
Initializing Density Matrix...

InitMesh: MESH =   120 x   120 x    90 =     1296000
InitMesh: Mesh cutoff (required, used) =   200.000   223.865 Ry

* Maximum dynamic memory allocated =   185 MB

stepf: Fermi-Dirac step function

siesta: Program's energy decomposition (eV):
siesta: Ebs     =     -6268.185737
siesta: Eions   =     21778.694799
siesta: Ena     =      4946.503527
siesta: Ekin    =      8140.553599
siesta: Enl     =        34.484953
siesta: DEna    =        -0.000015
siesta: DUscf   =         0.000000
siesta: DUext   =         0.000000
siesta: Exc     =     -4693.906163
siesta: eta*DQ  =         0.000000
siesta: Emadel  =         0.000000
siesta: Emeta   =         0.000000
siesta: Emolmec =         0.000000
siesta: Ekinion =         0.000000
siesta: Eharris =    -12997.140194
siesta: Etot    =    -13351.058897
siesta: FreeEng =    -13351.058897

siesta: iscf   Eharris(eV)      E_KS(eV)   FreeEng(eV)   dDmax  Ef(eV)
siesta:    1   -12997.1402   -13351.0589   -13351.0589  5.8037 -6.8856
timer: Routine,Calls,Time,% = IterSCF        1    4141.995  99.73
elaps: Routine,Calls,Wall,% = IterSCF        1     518.363  99.73
siesta:    2   -19509.8733   -12089.6830   -12089.7451 15.4334 -6.6429
siesta:    3   -12958.4035   -13152.3469   -13152.3846  2.4261 -5.2439
siesta:    4   -12889.9482   -13027.0389   -13027.0722  1.2745 -4.5587
siesta:    5   -12854.6929   -12930.2084   -12930.2650  0.9895 -3.9658
siesta:    6   -12830.3317   -12895.6139   -12895.6583  0.8483 -3.7325
siesta:    7   -12825.5610   -12880.0822   -12880.1479  0.7731 -3.7201
siesta:    8   -12815.6933   -12861.7578   -12861.8395  0.7371 -3.6686
siesta:    9   -12814.4514   -12846.8490   -12846.8904  0.5272 -3.6909
siesta:   10   -12814.0451   -12836.4360   -12836.5009  0.5286 -3.6534
siesta:   11   -12813.8392   -12826.7449   -12826.7983  0.4120 -3.6756
siesta:   12   -12813.4820   -12810.4469   -12810.5091  0.2467 -3.6697
siesta:   13   -12813.5365   -12805.1594   -12805.2225  0.2248 -3.6727
siesta:   14   -12813.0927   -12805.7504   -12805.8054  0.2060 -3.6734
siesta:   15   -12812.5955   -12806.7711   -12806.8302  0.1515 -3.6684
siesta:   16   -12812.5108   -12806.4867   -12806.5464  0.1123 -3.6558
siesta:   17   -12812.4264   -12807.1612   -12807.2251  0.0873 -3.6648
siesta:   18   -12812.3390   -12809.4660   -12809.5236  0.0874 -3.6796
siesta:   19   -12812.3267   -12810.9517   -12811.0103  0.0872 -3.6790
siesta:   20   -12812.3082   -12812.2926   -12812.3512  0.0782 -3.6787
siesta:   21   -12812.2924   -12812.7854   -12812.8442  0.0512 -3.6704
siesta:   22   -12812.2867   -12812.4544   -12812.5138  0.0216 -3.6619
siesta:   23   -12812.2851   -12812.1647   -12812.2236  0.0153 -3.6547
siesta:   24   -12812.2853   -12812.1380   -12812.1974  0.0106 -3.6511
siesta:   25   -12812.2839   -12812.2924   -12812.3517  0.0079 -3.6513
siesta:   26   -12812.2839   -12812.3402   -12812.3997  0.0065 -3.6522
siesta:   27   -12812.2838   -12812.3218   -12812.3812  0.0037 -3.6548
siesta:   28   -12812.2836   -12812.3230   -12812.3823  0.0028 -3.6552
siesta:   29   -12812.2835   -12812.3041   -12812.3635  0.0022 -3.6553
siesta:   30   -12812.2834   -12812.2958   -12812.3553  0.0015 -3.6558
siesta:   31   -12812.2834   -12812.2735   -12812.3331  0.0016 -3.6560
siesta:   32   -12812.2834   -12812.2764   -12812.3359  0.0012 -3.6559
siesta:   33   -12812.2834   -12812.2967   -12812.3563  0.0007 -3.6560
siesta:   34   -12812.2834   -12812.3076   -12812.3671  0.0004 -3.6559
siesta:   35   -12812.2834   -12812.3124   -12812.3719  0.0003 -3.6559
siesta:   36   -12812.2834   -12812.3098   -12812.3693  0.0002 -3.6558
siesta:   37   -12812.2834   -12812.3058   -12812.3653  0.0002 -3.6558
siesta:   38   -12812.2834   -12812.2986   -12812.3581  0.0001 -3.6557

siesta: E_KS(eV) =           -12812.2934

siesta: E_KS - E_eggbox =    -12812.2934

siesta: Atomic forces (eV/Ang):
----------------------------------------
   Tot   -0.067425   -0.191238    0.000000
----------------------------------------
   Max  694.008486
   Res  176.245894    sqrt( Sum f_i^2 / 3N )
----------------------------------------
   Max  694.008486    constrained

Stress-tensor-Voigt (kbar):     -728.44    -3126.67       -0.07      -20.79        0.00        0.00
(Free)E + p*V (eV/cell)   -11293.8652
Target enthalpy (eV/cell)   -12812.3529

siesta: Stress tensor (static) (eV/Ang**3):
        -0.454651   -0.012973    0.000000
        -0.012973   -1.951494    0.000000
         0.000000    0.000000   -0.000044

siesta: Pressure (static):       1285.06082440  kBar

siesta: Stress tensor (total) (eV/Ang**3):
        -0.454651   -0.012973    0.000000
        -0.012973   -1.951494    0.000000
         0.000000    0.000000   -0.000044

siesta: Pressure (total):       1285.06082440  kBar

siesta: Temp_ion =       0.000 K

* Maximum dynamic memory allocated =   202 MB
Computing bands...

siesta: Program's energy decomposition (eV):
siesta: Ebs     =     -5015.495882
siesta: Eions   =     21778.694799
siesta: Ena     =      4946.503527
siesta: Ekin    =     11219.696790
siesta: Enl     =     -1638.162943
siesta: DEna    =      -805.044612
siesta: DUscf   =       113.520674
siesta: DUext   =         0.000000
siesta: Exc     =     -4870.112015
siesta: eta*DQ  =         0.000000
siesta: Emadel  =         0.000000
siesta: Emeta   =         0.000000
siesta: Emolmec =         0.000000
siesta: Ekinion =         0.000000
siesta: Eharris =    -12812.283410
siesta: Etot    =    -12812.293379
siesta: FreeEng =    -12812.352864

siesta: Final energy (eV):
siesta:  Band Struct. =   -5015.495882
siesta:       Kinetic =   11219.696790
siesta:       Hartree =   36307.725108
siesta:    Ext. field =       0.000000
siesta:   Exch.-corr. =   -4870.112015
siesta:  Ion-electron =  -83311.318788
siesta:       Ion-ion =   27841.715526
siesta:       Ekinion =       0.000000
siesta:         Total =  -12812.293379

siesta: Atomic forces (eV/Ang):
siesta:      1   30.140295   11.716698    0.000000
siesta:      2    4.075899    0.612834    0.000000
siesta:      3    0.431915   -3.508323    0.000000
siesta:      4  -28.069473   -0.591663    0.000000
siesta:      5  -23.639286 -648.993184    0.000000
siesta:      6  -34.744254  -16.287326    0.000000
siesta:      7   11.879312  685.631679    0.000000
siesta:      8    0.930683   -4.267499    0.000000
siesta:      9    0.929118    0.701685    0.000000
siesta:     10    1.496987    0.480750    0.000000
siesta:     11   -1.082259    2.516804    0.000000
siesta:     12   -0.728426    0.255442    0.000000
siesta:     13   -1.242271   -1.955497    0.000000
siesta:     14   -0.110171    0.115074    0.000000
siesta:     15    0.826516   -0.297596    0.000000
siesta:     16   -0.020626   -1.845724    0.000000
siesta:     17   -0.289716    6.836677    0.000000
siesta:     18    3.406906 -694.008486    0.000000
siesta:     19   29.827253    8.555621    0.000000
siesta:     20   -4.013459 -673.299291    0.000000
siesta:     21  -33.026575   13.353208    0.000000
siesta:     22   -3.228283  641.449267    0.000000
siesta:     23    1.400515 -118.222938    0.000000
siesta:     24    4.272586  134.196869    0.000000
siesta:     25  -21.747364 -551.909412    0.000000
siesta:     26    0.474292  127.136931    0.000000
siesta:     27   14.994082 -546.607719    0.000000
siesta:     28   22.133003 -550.239345    0.000000
siesta:     29    0.557625    2.026003    0.000000
siesta:     30   -1.916688    2.695479    0.000000
siesta:     31   33.697469  653.961402    0.000000
siesta:     32    2.191191 -117.548986    0.000000
siesta:     33   34.710973  552.708128    0.000000
siesta:     34   26.930811   -5.301533    0.000000
siesta:     35   -2.189169   -1.128656    0.000000
siesta:     36    2.556076   -0.176463    0.000000
siesta:     37   -1.268621   -0.296002    0.000000
siesta:     38    2.033781   -2.229715    0.000000
siesta:     39   -0.243170    7.156634    0.000000
siesta:     40   -0.381494   -6.546137    0.000000
siesta:     41  -34.099594  551.735976    0.000000
siesta:     42    1.515811 -126.910415    0.000000
siesta:     43   -6.051157  547.885008    0.000000
siesta:     44   -1.319842 -127.763581    0.000000
siesta:     45   26.957537  557.868026    0.000000
siesta:     46   25.181693  -12.029091    0.000000
siesta:     47   -1.956952    3.771851    0.000000
siesta:     48   -0.152767   -1.376134    0.000000
siesta:     49   -1.207123    1.299105    0.000000
siesta:     50   -0.709338   -0.784603    0.000000
siesta:     51  -35.973196  655.129169    0.000000
siesta:     52  -26.278559   -6.686334    0.000000
siesta:     53  -11.220270  560.917085    0.000000
siesta:     54    2.270684   -0.584211    0.000000
siesta:     55   -2.428761    0.140541    0.000000
siesta:     56    1.476575   -1.094164    0.000000
siesta:     57   -1.083102   -1.557710    0.000000
siesta:     58    0.653435    0.467197    0.000000
siesta:     59    1.082735   -1.226529    0.000000
siesta:     60    0.222743    6.433945    0.000000
siesta:     61    0.228350   -6.392076    0.000000
siesta:     62   -1.913339    2.158118    0.000000
siesta:     63    0.547282    0.776371    0.000000
siesta:     64    0.505993    1.632094    0.000000
siesta:     65    2.032313   -3.692684    0.000000
siesta:     66   -0.850791 -563.980523    0.000000
siesta:     67   -1.232453    0.643304    0.000000
siesta:     68    1.773178    1.307335    0.000000
siesta:     69   -1.398823  126.584226    0.000000
siesta:     70   -0.081097 -548.533058    0.000000
siesta:     71   -2.574427  119.680435    0.000000
siesta:     72   -5.940145 -642.855599    0.000000
siesta: ----------------------------------------
siesta:    Tot   -0.067425   -0.191238    0.000000

siesta: Stress tensor (static) (eV/Ang**3):
siesta:    -0.454651   -0.012973    0.000000
siesta:    -0.012973   -1.951494    0.000000
siesta:     0.000000    0.000000   -0.000044

siesta: Cell volume =       1893.226884 Ang**3

siesta: Pressure (static):
siesta:                Solid            Molecule  Units
siesta:           0.00873549          0.13826927  Ry/Bohr**3
siesta:           0.80206321         12.69541426  eV/Ang**3
siesta:        1285.06082440      20340.51594454  kBar
(Free)E+ p_basis*V_orbitals  =      -12784.617482
(Free)Eharris+ p_basis*V_orbitals  =      -12784.602252

siesta: Electric dipole (a.u.)  =    0.000000    0.000000    0.000000
siesta: Electric dipole (Debye) =    0.000000    0.000000    0.000000

* Maximum dynamic memory allocated : Node    0 =   202 MB
* Maximum dynamic memory allocated : Node    1 =    71 MB
* Maximum dynamic memory allocated : Node    2 =    73 MB
* Maximum dynamic memory allocated : Node    3 =   192 MB
* Maximum dynamic memory allocated : Node    4 =   183 MB
* Maximum dynamic memory allocated : Node    5 =    70 MB
* Maximum dynamic memory allocated : Node    6 =    72 MB
* Maximum dynamic memory allocated : Node    7 =   168 MB

* Maximum memory occured during matrixMtoO                    

timer: CPU execution times:
timer:  Routine       Calls   Time/call    Tot.time        %
timer:  siesta            1  155055.152  155055.152   100.00
timer:  Setup             1       3.071       3.071     0.00
timer:  bands             3     270.816     812.449     0.52
timer:  writewave         1       0.022       0.022     0.00
timer:  KSV_init          1       0.000       0.000     0.00
timer:  IterMD            1  154233.751  154233.751    99.47
timer:  hsparse           1       0.230       0.230     0.00
timer:  overlap           1       7.713       7.713     0.00
timer:  IterSCF          38    4054.352  154065.387    99.36
timer:  kinefsm           2       3.956       7.911     0.01
timer:  nlefsm            2      18.390      36.780     0.02
timer:  DHSCF            39      87.980    3431.219     2.21
timer:  DHSCF1            1       0.776       0.776     0.00
timer:  DHSCF2            1      33.680      33.680     0.02
timer:  REORD           314       0.011       3.325     0.00
timer:  POISON           40       2.510     100.405     0.06
timer:  DHSCF3           39      86.277    3364.791     2.17
timer:  rhoofd           39      16.633     648.685     0.42
timer:  cellXC           39       3.496     136.362     0.09
timer:  vmat             39      41.323    1611.608     1.04
timer:  MolMec            2       0.000       0.000     0.00
timer:  diagon           38    3965.105  150674.002    97.17
timer:  c-eigval       8899       6.712   59728.371    38.52
timer:  c-buildHS      8899       0.122    1083.159     0.70
timer:  cdiag         17677       6.888  121763.267    78.53
timer:  cdiag1        17677       0.429    7583.031     4.89
timer:  cdiag2        17677       1.911   33781.632    21.79
timer:  cdiag3        17677       3.968   70141.151    45.24
timer:  cdiag4        17677       0.206    3648.572     2.35
timer:  c-eigvec       8778       7.251   63646.952    41.05
timer:  c-buildD       8778       3.197   28062.091    18.10
timer:  DHSCF4            1      29.666      29.666     0.02
timer:  dfscf             1      27.879      27.879     0.02
timer:  overfsm           1       0.398       0.398     0.00
timer:  optical           1       5.123       5.123     0.00
  

elaps: ELAPSED times:
elaps:  Routine       Calls   Time/call    Tot.time        %
elaps:  siesta            1   19402.672   19402.672   100.00
elaps:  Setup             1       0.384       0.384     0.00
elaps:  bands             3      33.904     101.712     0.52
elaps:  writewave         1       0.002       0.002     0.00
elaps:  KSV_init          1       0.000       0.000     0.00
elaps:  IterMD            1   19299.900   19299.900    99.47
elaps:  hsparse           1       0.028       0.028     0.00
elaps:  overlap           1       0.967       0.967     0.00
elaps:  IterSCF          38     507.338   19278.841    99.36
elaps:  kinefsm           2       0.495       0.990     0.01
elaps:  nlefsm            2       2.312       4.624     0.02
elaps:  DHSCF            39      11.114     433.434     2.23
elaps:  DHSCF1            1       0.100       0.100     0.00
elaps:  DHSCF2            1       4.213       4.213     0.02
elaps:  REORD           314       0.001       0.431     0.00
elaps:  POISON           40       0.315      12.597     0.06
elaps:  DHSCF3           39      10.794     420.959     2.17
elaps:  rhoofd           39       4.730     184.479     0.95
elaps:  cellXC           39       0.437      17.032     0.09
elaps:  vmat             39       5.169     201.608     1.04
elaps:  MolMec            2       0.000       0.000     0.00
elaps:  diagon           38     496.182   18854.903    97.18
elaps:  c-eigval       8899       0.840    7473.146    38.52
elaps:  c-buildHS      8899       0.016     146.489     0.75
elaps:  cdiag         17677       0.856   15123.929    77.95
elaps:  cdiag1        17677       0.054     948.995     4.89
elaps:  cdiag2        17677       0.239    4226.980    21.79
elaps:  cdiag3        17677       0.497    8788.372    45.29
elaps:  cdiag4        17677       0.026     457.109     2.36
elaps:  c-eigvec       8778       0.900    7900.296    40.72
elaps:  c-buildD       8778       0.407    3575.674    18.43
elaps:  DHSCF4            1       7.844       7.844     0.04
elaps:  dfscf             1       7.451       7.451     0.04
elaps:  overfsm           1       0.049       0.049     0.00
elaps:  optical           1       0.000       0.000     0.00
  
>> End of run:  29-APR-2016  18:38:30
