Siesta Version:                                        siesta-3.2-pl-3
Architecture  : x86_64-unknown-linux-gnu--unknown
Compiler flags: mpiifort -g -O2 -fPIC -xSSE4.1 -fp-model source -shared-intel 
PARALLEL version

* Running on    8 nodes in parallel
>> Start of run:  28-APR-2016   6:55:01

                           ***********************       
                           *  WELCOME TO SIESTA  *       
                           ***********************       

reinit: Reading from standard input
************************** Dump of input data file ****************************
#(1) General system descriptors
SystemName            GRP_doping    # Descriptive name of the system
SystemLabel           GRP_doping    # Short name for naming files
%include STRUCT.fdf
%include KPT.fdf
%include BASIS.fdf
#%include TS.fdf # for transiesta calculation
#(4) DFT, Grid, SCF
XC.functional         GGA           # LDA or GGA (default = LDA)
XC.authors            PBE           # CA (Ceperley-Aldr) = PZ
                                    #    (Perdew-Zunger) - LDA - Default
                                    # PW92 (Perdew-Wang-92) - LDA
                                    # PBE (Perdew-Burke-Ernzerhof) - GGA
MeshCutoff            200.000000    Ry      # Default: 50.0 Ry ~ 0.444 Bohr
                                    #         100.0 Ry ~ 0.314 Bohr
MaxSCFIterations      500           # Default: 50
DM.MixingWeight       0.05          # Default: 0.25
DM.NumberPulay        10            # Default: 0
DM.PulayOnFile        F             # SystemLabel.P1, SystemLabel.P2
DM.Tolerance          1.d-4         # Default: 1.d-4
DM.UseSaveDM          .true.        # because of the bug
SCFMustConverge       .true.
NeglNonOverlapInt     F             # Default: F
#(5) Eigenvalue problem: order-N or diagonalization
SolutionMethod        Diagon        # or Transiesta
ElectronicTemperature 300.0 K       # Default: 300.0 K
#(6) Molecular dynamics and relaxations
#MD.TypeOfRun          CG            # Type of dynamics:
#MD.VariableCell       F
#MD.NumCGsteps         0           # 0 for single-point / 100 for gopt
#MD.MaxCGDispl         0.2 Bohr      # Default: 0.2 Bohr
#MD.MaxForceTol        0.02 eV/Ang   # Default: 0.04 eV/Ang
#MD.MaxStressTol       1.0 GPa       # Default: 1.0 GPa
# Geometry Constraints
#%block GeometryConstraints
#	position from 1 to 44
#%endblock GeometryConstraints
BandLinesScale   pi/a
%block BandLines
 1   0.00000000  0.00000000  0.00000000
50   0.00000000  0.07809418  0.00000000
50   0.04509075  0.07809242  0.00000000
20   0.00000000  0.00000000  0.00000000
%endblock BandLines
************************** End of input data file *****************************

reinit: -----------------------------------------------------------------------
reinit: System Name: GRP_doping
reinit: -----------------------------------------------------------------------
reinit: System Label: GRP_doping                                                  
reinit: -----------------------------------------------------------------------

initatom: Reading input for the pseudopotentials and atomic orbitals ----------
 Species number:            1  Label: B Atomic number:           5
 Species number:            2  Label: C Atomic number:           6
Ground state valence configuration:   2s02  2p01
Reading pseudopotential information in formatted form from B.psf

Valence configuration for pseudopotential generation:
2s( 2.00) rc: 1.74
2p( 1.00) rc: 1.74
3d( 0.00) rc: 1.74
4f( 0.00) rc: 1.74
Ground state valence configuration:   2s02  2p02
Reading pseudopotential information in formatted form from C.psf

Valence configuration for pseudopotential generation:
2s( 2.00) rc: 1.54
2p( 2.00) rc: 1.54
3d( 0.00) rc: 1.54
4f( 0.00) rc: 1.54
For B, standard SIESTA heuristics set lmxkb to 3
 (one more than the basis l, including polarization orbitals).
Use PS.lmax or PS.KBprojectors blocks to override.
For C, standard SIESTA heuristics set lmxkb to 3
 (one more than the basis l, including polarization orbitals).
Use PS.lmax or PS.KBprojectors blocks to override.

<basis_specs>
===============================================================================
B                    Z=   5    Mass=  10.810        Charge= 0.17977+309
Lmxo=1 Lmxkb= 3    BasisType=split      Semic=F
L=0  Nsemic=0  Cnfigmx=2
          n=1  nzeta=2  polorb=0
            splnorm:   0.15000    
               vcte:    0.0000    
               rinn:    0.0000    
                rcs:    0.0000      0.0000    
            lambdas:    1.0000      1.0000    
L=1  Nsemic=0  Cnfigmx=2
          n=1  nzeta=2  polorb=1
            splnorm:   0.15000    
               vcte:    0.0000    
               rinn:    0.0000    
                rcs:    0.0000      0.0000    
            lambdas:    1.0000      1.0000    
-------------------------------------------------------------------------------
L=0  Nkbl=1  erefs: 0.17977+309
L=1  Nkbl=1  erefs: 0.17977+309
L=2  Nkbl=1  erefs: 0.17977+309
L=3  Nkbl=1  erefs: 0.17977+309
===============================================================================
</basis_specs>

atom: Called for B                     (Z =   5)

read_vps: Pseudopotential generation method:
read_vps: ATM3      Troullier-Martins                       
Total valence charge:    3.00000

read_vps: Pseudopotential includes a core correction:
read_vps: Pseudo-core for xc-correction

xc_check: Exchange-correlation functional:
xc_check: GGA Perdew, Burke & Ernzerhof 1996
V l=0 = -2*Zval/r beyond r=  1.7165
V l=1 = -2*Zval/r beyond r=  1.7165
V l=2 = -2*Zval/r beyond r=  1.7165
V l=3 = -2*Zval/r beyond r=  1.6951
All V_l potentials equal beyond r=  1.7165
This should be close to max(r_c) in ps generation
All pots = -2*Zval/r beyond r=  1.7165

VLOCAL1: 99.0% of the norm of Vloc inside     14.733 Ry
VLOCAL1: 99.9% of the norm of Vloc inside     33.577 Ry
atom: Maximum radius for 4*pi*r*r*local-pseudopot. charge    2.04484
atom: Maximum radius for r*vlocal+2*Zval:    1.75994
GHOST: No ghost state for L =  0
GHOST: No ghost state for L =  1
GHOST: No ghost state for L =  2
GHOST: No ghost state for L =  3

KBgen: Kleinman-Bylander projectors: 
   l= 0   rc=  1.897051   el= -0.693730   Ekb=  4.595746   kbcos=  0.286105
   l= 1   rc=  1.920920   el= -0.265236   Ekb= -2.350715   kbcos= -0.315747
   l= 2   rc=  2.044840   el=  0.002055   Ekb= -0.690767   kbcos= -0.013822
   l= 3   rc=  2.149707   el=  0.003188   Ekb= -0.315358   kbcos= -0.002055

KBgen: Total number of  Kleinman-Bylander projectors:   16
atom: -------------------------------------------------------------------------

atom: SANKEY-TYPE ORBITALS:
atom: Selected multiple-zeta basis: split     

SPLIT: Orbitals with angular momentum L= 0

SPLIT: Basis orbitals for state 2s

SPLIT: PAO cut-off radius determined from an
SPLIT: energy shift=  0.007350 Ry

   izeta = 1
                 lambda =    1.000000
                     rc =    5.422032
                 energy =   -0.686029
                kinetic =    0.576707
    potential(screened) =   -1.262736
       potential(ionic) =   -3.271094

   izeta = 2
                 rmatch =    4.222573
              splitnorm =    0.150000
                 energy =   -0.602132
                kinetic =    0.858975
    potential(screened) =   -1.461107
       potential(ionic) =   -3.582536

SPLIT: Orbitals with angular momentum L= 1

SPLIT: Basis orbitals for state 2p

SPLIT: PAO cut-off radius determined from an
SPLIT: energy shift=  0.007350 Ry

   izeta = 1
                 lambda =    1.000000
                     rc =    6.790259
                 energy =   -0.258578
                kinetic =    1.481412
    potential(screened) =   -1.739989
       potential(ionic) =   -3.657461

   izeta = 2
                 rmatch =    4.608740
              splitnorm =    0.150000
                 energy =   -0.173757
                kinetic =    2.186690
    potential(screened) =   -2.360447
       potential(ionic) =   -4.464260

POLgen: Perturbative polarization orbital with L=  2

POLgen: Polarization orbital for state 2p

   izeta = 1
                     rc =    6.790259
                 energy =    0.684082
                kinetic =    1.471481
    potential(screened) =   -0.787399
       potential(ionic) =   -2.406985
atom: Total number of Sankey-type orbitals: 13

atm_pop: Valence configuration (for local Pseudopot. screening):
 2s( 2.00)                                                            
 2p( 1.00)                                                            
Vna: chval, zval:    3.00000   3.00000

Vna:  Cut-off radius for the neutral-atom potential:   6.790259
comcore: Pseudo-core radius Rcore=  2.122997

atom: _________________________________________________________________________

<basis_specs>
===============================================================================
C                    Z=   6    Mass=  12.010        Charge= 0.17977+309
Lmxo=1 Lmxkb= 3    BasisType=split      Semic=F
L=0  Nsemic=0  Cnfigmx=2
          n=1  nzeta=2  polorb=0
            splnorm:   0.15000    
               vcte:    0.0000    
               rinn:    0.0000    
                rcs:    0.0000      0.0000    
            lambdas:    1.0000      1.0000    
L=1  Nsemic=0  Cnfigmx=2
          n=1  nzeta=2  polorb=1
            splnorm:   0.15000    
               vcte:    0.0000    
               rinn:    0.0000    
                rcs:    0.0000      0.0000    
            lambdas:    1.0000      1.0000    
-------------------------------------------------------------------------------
L=0  Nkbl=1  erefs: 0.17977+309
L=1  Nkbl=1  erefs: 0.17977+309
L=2  Nkbl=1  erefs: 0.17977+309
L=3  Nkbl=1  erefs: 0.17977+309
===============================================================================
</basis_specs>

atom: Called for C                     (Z =   6)

read_vps: Pseudopotential generation method:
read_vps: ATM3      Troullier-Martins                       
Total valence charge:    4.00000

read_vps: Pseudopotential includes a core correction:
read_vps: Pseudo-core for xc-correction

xc_check: Exchange-correlation functional:
xc_check: GGA Perdew, Burke & Ernzerhof 1996
V l=0 = -2*Zval/r beyond r=  1.5227
V l=1 = -2*Zval/r beyond r=  1.5227
V l=2 = -2*Zval/r beyond r=  1.5227
V l=3 = -2*Zval/r beyond r=  1.5038
All V_l potentials equal beyond r=  1.5227
This should be close to max(r_c) in ps generation
All pots = -2*Zval/r beyond r=  1.5227

VLOCAL1: 99.0% of the norm of Vloc inside     18.722 Ry
VLOCAL1: 99.9% of the norm of Vloc inside     42.668 Ry
atom: Maximum radius for 4*pi*r*r*local-pseudopot. charge    1.83678
atom: Maximum radius for r*vlocal+2*Zval:    1.58088
GHOST: No ghost state for L =  0
GHOST: No ghost state for L =  1
GHOST: No ghost state for L =  2
GHOST: No ghost state for L =  3

KBgen: Kleinman-Bylander projectors: 
   l= 0   rc=  1.704034   el= -1.009801   Ekb=  5.335044   kbcos=  0.316824
   l= 1   rc=  1.704034   el= -0.388707   Ekb= -3.785862   kbcos= -0.366464
   l= 2   rc=  1.791422   el=  0.001971   Ekb= -0.970471   kbcos= -0.009212
   l= 3   rc=  1.859892   el=  0.003065   Ekb= -0.399525   kbcos= -0.001223

KBgen: Total number of  Kleinman-Bylander projectors:   16
atom: -------------------------------------------------------------------------

atom: SANKEY-TYPE ORBITALS:
atom: Selected multiple-zeta basis: split     

SPLIT: Orbitals with angular momentum L= 0

SPLIT: Basis orbitals for state 2s

SPLIT: PAO cut-off radius determined from an
SPLIT: energy shift=  0.007350 Ry

   izeta = 1
                 lambda =    1.000000
                     rc =    4.632753
                 energy =   -1.002270
                kinetic =    0.855760
    potential(screened) =   -1.858031
       potential(ionic) =   -5.417575

   izeta = 2
                 rmatch =    3.431921
              splitnorm =    0.150000
                 energy =   -0.867111
                kinetic =    1.300804
    potential(screened) =   -2.167915
       potential(ionic) =   -5.962684

SPLIT: Orbitals with angular momentum L= 1

SPLIT: Basis orbitals for state 2p

SPLIT: PAO cut-off radius determined from an
SPLIT: energy shift=  0.007350 Ry

   izeta = 1
                 lambda =    1.000000
                     rc =    5.658549
                 energy =   -0.381140
                kinetic =    2.399701
    potential(screened) =   -2.780841
       potential(ionic) =   -6.206085

   izeta = 2
                 rmatch =    3.653288
              splitnorm =    0.150000
                 energy =   -0.249149
                kinetic =    3.542762
    potential(screened) =   -3.791911
       potential(ionic) =   -7.581078

POLgen: Perturbative polarization orbital with L=  2

POLgen: Polarization orbital for state 2p

   izeta = 1
                     rc =    5.658549
                 energy =    1.109913
                kinetic =    2.304789
    potential(screened) =   -1.194876
       potential(ionic) =   -4.013592
atom: Total number of Sankey-type orbitals: 13

atm_pop: Valence configuration (for local Pseudopot. screening):
 2s( 2.00)                                                            
 2p( 2.00)                                                            
Vna: chval, zval:    4.00000   4.00000

Vna:  Cut-off radius for the neutral-atom potential:   5.658549
comcore: Pseudo-core radius Rcore=  1.791422

atom: _________________________________________________________________________

prinput: Basis input ----------------------------------------------------------

PAO.BasisType split     

%block ChemicalSpeciesLabel
    1    5 B                       # Species index, atomic number, species label
    2    6 C                       # Species index, atomic number, species label
%endblock ChemicalSpeciesLabel

%block PAO.Basis                 # Define Basis set
B                     2                    # Species label, number of l-shells
 n=2   0   2                         # n, l, Nzeta 
   5.422      4.223   
   1.000      1.000   
 n=2   1   2 P   1                   # n, l, Nzeta, Polarization, NzetaPol
   6.790      4.609   
   1.000      1.000   
C                     2                    # Species label, number of l-shells
 n=2   0   2                         # n, l, Nzeta 
   4.633      3.432   
   1.000      1.000   
 n=2   1   2 P   1                   # n, l, Nzeta, Polarization, NzetaPol
   5.659      3.653   
   1.000      1.000   
%endblock PAO.Basis

prinput: ----------------------------------------------------------------------

coor:   Atomic-coordinates input format  =     Fractional

siesta: Atomic coordinates (Bohr) and species
siesta:      4.63094  34.85847   0.00000  1        1
siesta:      6.95932  30.82560   0.00000  1        2
siesta:      6.95932  33.51406   0.00000  1        3
siesta:      6.95932  14.69411   0.00000  1        4
siesta:      6.95932  17.38257   0.00000  1        5
siesta:      9.28770  18.72698   0.00000  1        6
siesta:      2.30256  17.38257   0.00000  1        7
siesta:      4.63094  18.72698   0.00000  1        8
siesta:     -2.35420  17.38257   0.00000  1        9
siesta:     -0.02582  18.72698   0.00000  1       10
siesta:     -0.02582  21.41544   0.00000  1       11
siesta:      2.30256  22.75985   0.00000  1       12
siesta:      2.30256  25.44831   0.00000  1       13
siesta:     -4.68258  18.72698   0.00000  1       14
siesta:     -4.68258  21.41544   0.00000  1       15
siesta:     -2.35420  22.75985   0.00000  1       16
siesta:     -2.35420  25.44831   0.00000  1       17
siesta:      4.63094  29.48119   0.00000  1       18
siesta:     -0.02582  26.79272   0.00000  1       19
siesta:      2.30256  30.82560   0.00000  1       20
siesta:      2.30256  33.51406   0.00000  1       21
siesta:     -0.02582   2.59549   0.00000  2       22
siesta:     -0.02582   5.28395   0.00000  2       23
siesta:     -2.35420  38.89134   0.00000  2       24
siesta:     -2.35420  41.57980   0.00000  2       25
siesta:      2.30256  38.89134   0.00000  2       26
siesta:      2.30256  41.57980   0.00000  2       27
siesta:      4.63094  37.54693   0.00000  2       28
siesta:      9.28770  26.79272   0.00000  2       29
siesta:      9.28770  29.48119   0.00000  2       30
siesta:     -4.68258  34.85847   0.00000  2       31
siesta:     -4.68258  37.54693   0.00000  2       32
siesta:      2.30256   6.62836   0.00000  2       33
siesta:      2.30256   9.31683   0.00000  2       34
siesta:      4.63094  10.66124   0.00000  2       35
siesta:      4.63094  13.34970   0.00000  2       36
siesta:      9.28770  21.41544   0.00000  2       37
siesta:     11.61608  22.75985   0.00000  2       38
siesta:     11.61608  25.44831   0.00000  2       39
siesta:     -2.35420   6.62836   0.00000  2       40
siesta:     -2.35420   9.31683   0.00000  2       41
siesta:     -0.02582  10.66124   0.00000  2       42
siesta:     -0.02582  13.34970   0.00000  2       43
siesta:      2.30256  14.69411   0.00000  2       44
siesta:      4.63094  21.41544   0.00000  2       45
siesta:      6.95932  22.75985   0.00000  2       46
siesta:      6.95932  25.44831   0.00000  2       47
siesta:     -4.68258  10.66124   0.00000  2       48
siesta:     -4.68258  13.34970   0.00000  2       49
siesta:     -2.35420  14.69411   0.00000  2       50
siesta:     -7.01096  14.69411   0.00000  2       51
siesta:     -7.01096  17.38257   0.00000  2       52
siesta:     -9.33934  18.72698   0.00000  2       53
siesta:     -9.33934  21.41544   0.00000  2       54
siesta:     -7.01096  22.75985   0.00000  2       55
siesta:     -7.01096  25.44831   0.00000  2       56
siesta:    -11.66772  22.75985   0.00000  2       57
siesta:    -11.66772  25.44831   0.00000  2       58
siesta:     -9.33934  26.79272   0.00000  2       59
siesta:     -9.33934  29.48119   0.00000  2       60
siesta:      4.63094  26.79272   0.00000  2       61
siesta:     -0.02582  29.48119   0.00000  2       62
siesta:     -4.68258  26.79272   0.00000  2       63
siesta:     -4.68258  29.48119   0.00000  2       64
siesta:     -2.35420  30.82560   0.00000  2       65
siesta:     -2.35420  33.51406   0.00000  2       66
siesta:     -7.01096  30.82560   0.00000  2       67
siesta:     -7.01096  33.51406   0.00000  2       68
siesta:     -0.02582  34.85847   0.00000  2       69
siesta:     -0.02582  37.54693   0.00000  2       70
siesta:     -0.02582  42.92421   0.00000  2       71
siesta:     -0.02582  45.61267   0.00000  2       72

siesta: System type = slab      

initatomlists: Number of atoms, orbitals, and projectors:     72   936  1152

siesta: ******************** Simulation parameters ****************************
siesta:
siesta: The following are some of the parameters of the simulation.
siesta: A complete list of the parameters used, including default values,
siesta: can be found in file out.fdf
siesta:
redata: Non-Collinear-spin run           =     F
redata: SpinPolarized (Up/Down) run      =     F
redata: Number of spin components        =     1
redata: Long output                      =     F
redata: Number of Atomic Species         =        2
redata: Charge density info will appear in .RHO file
redata: Write Mulliken Pop.              =     NO
redata: Mesh Cutoff                      =   200.0000  Ry
redata: Net charge of the system         =     0.0000 |e|
redata: Max. number of SCF Iter          =      500
redata: SCF convergence failure will abort job
redata: Performing Pulay mixing using    =    10 iterations
redata: Mix DM in first SCF step ?       =     F
redata: Write Pulay info on disk?        =     F
redata: Discard 1st Pulay DM after  kick =     F
redata: New DM Mixing Weight             =     0.0500
redata: New DM Occupancy tolerance       = 0.000000000001
redata: No kicks to SCF
redata: DM Mixing Weight for Kicks       =     0.5000
redata: DM Tolerance for SCF             =     0.000100
redata: Require Energy convergence for SCF =     F
redata: DM Energy tolerance for SCF      =     0.000100 eV
redata: Require Harris convergence for SCF =     F
redata: DM Harris energy tolerance for SCF =     0.000100 eV
redata: Using Saved Data (generic)   =     F
redata: Use continuation files for DM    =     T
redata: Neglect nonoverlap interactions  =     F
redata: Method of Calculation            =     Diagonalization
redata: Divide and Conquer               =     T
redata: Electronic Temperature           =     0.0019  Ry
redata: Fix the spin of the system       =     F
redata: Dynamics option                  =     Verlet MD run
redata: Initial MD time step             =        1
redata:   Final MD time step             =        1
redata: Length of MD time step           =     1.0000  fs
redata: Initial Temperature of MD run    =     0.0000  K
redata: Perform a MD quench              =     F
redata: ***********************************************************************
Total number of electrons:   267.000000
Total ionic charge:   267.000000

* ProcessorY, Blocksize:    2  24

k-point displ. along   1 input, could be:     0.50    0.00
k-point displ. along   2 input, could be:     0.50    0.00
 Kpoints in:          231 . Kpoints trimmed:          231

siesta: k-grid: Number of k-points =   231
siesta: k-grid: Cutoff (effective) =     5.000 Ang
siesta: k-grid: Supercell and displacements
siesta: k-grid:   21   0   0      0.500
siesta: k-grid:    0  21   0      0.500
siesta: k-grid:    0   0   1      0.000
Naive supercell factors:     2    2    2

superc: Internal auxiliary supercell:     2 x     2 x     2  =       8
superc: Number of atoms, orbitals, and projectors:    576   7488   9216

* Maximum dynamic memory allocated =     4 MB

siesta:                 ==============================
                            Begin MD step =      1
                        ==============================

superc: Internal auxiliary supercell:     2 x     2 x     2  =       8
superc: Number of atoms, orbitals, and projectors:    576   7488   9216

outcell: Unit cell vectors (Ang):
       12.804619    7.392750    0.000000
        0.000000   14.785500    0.000000
        0.000000    0.000000   10.000000

outcell: Cell vector modules (Ang)   :   14.785500   14.785500   10.000000
outcell: Cell angles (23,13,12) (deg):     90.0000     90.0000     60.0000
outcell: Cell volume (Ang**3)        :   1893.2269
New_DM. Step:     1
Initializing Density Matrix...

InitMesh: MESH =   120 x   120 x    90 =     1296000
InitMesh: Mesh cutoff (required, used) =   200.000   223.865 Ry

* Maximum dynamic memory allocated =   221 MB

stepf: Fermi-Dirac step function

siesta: Program's energy decomposition (eV):
siesta: Ebs     =     -5552.912539
siesta: Eions   =     15713.820136
siesta: Ena     =      4221.570368
siesta: Ekin    =      5270.679987
siesta: Enl     =       812.922395
siesta: DEna    =        -0.000008
siesta: DUscf   =         0.000000
siesta: DUext   =         0.000000
siesta: Exc     =     -4209.673947
siesta: eta*DQ  =         0.000000
siesta: Emadel  =         0.000000
siesta: Emeta   =         0.000000
siesta: Emolmec =         0.000000
siesta: Ekinion =         0.000000
siesta: Eharris =     -9338.938186
siesta: Etot    =     -9618.321342
siesta: FreeEng =     -9618.321342

siesta: iscf   Eharris(eV)      E_KS(eV)   FreeEng(eV)   dDmax  Ef(eV)
siesta:    1    -9338.9382    -9618.3213    -9618.3213  6.7076 -8.3954
timer: Routine,Calls,Time,% = IterSCF        1    4454.328  99.74
elaps: Routine,Calls,Wall,% = IterSCF        1     557.480  99.74
siesta:    2   -14575.1222    -8572.7527    -8572.7984 18.7895 -3.3974
siesta:    3    -9273.6048    -9483.7335    -9483.7703  4.0145 -6.8758
siesta:    4    -9254.0457    -9325.1441    -9325.1949  1.3037 -5.6622
siesta:    5    -9206.0796    -9271.8632    -9271.9131  1.0696 -5.6801
siesta:    6    -9187.8156    -9205.7191    -9205.7700  0.7601 -5.2485
siesta:    7    -9184.1868    -9201.4361    -9201.4657  0.7000 -5.2122
siesta:    8    -9181.8073    -9195.5783    -9195.6289  0.6147 -5.2487
siesta:    9    -9179.2483    -9186.9435    -9187.0102  0.5387 -5.2527
siesta:   10    -9179.7885    -9162.4779    -9162.5356  0.4348 -5.1972
siesta:   11    -9178.0966    -9160.6315    -9160.6818  0.2602 -5.1173
siesta:   12    -9178.8519    -9152.1587    -9152.2242  0.2631 -5.0830
siesta:   13    -9178.2230    -9148.4899    -9148.5484  0.2326 -5.0976
siesta:   14    -9177.4808    -9150.3641    -9150.4294  0.1843 -5.0156
siesta:   15    -9177.0847    -9151.1489    -9151.1811  0.1789 -5.0109
siesta:   16    -9176.6659    -9156.0381    -9156.0751  0.1267 -5.0177
siesta:   17    -9176.5794    -9160.9946    -9161.0446  0.1085 -5.0362
siesta:   18    -9176.5550    -9166.1175    -9166.1618  0.0745 -5.0557
siesta:   19    -9176.4969    -9170.4995    -9170.5458  0.0403 -5.0787
siesta:   20    -9176.4866    -9172.5631    -9172.6148  0.0322 -5.0894
siesta:   21    -9176.4835    -9174.6221    -9174.6743  0.0302 -5.0853
siesta:   22    -9176.4791    -9176.1870    -9176.2372  0.0232 -5.0905
siesta:   23    -9176.4779    -9176.6948    -9176.7446  0.0183 -5.0883
siesta:   24    -9176.4770    -9177.0339    -9177.0830  0.0111 -5.0812
siesta:   25    -9176.4743    -9177.1068    -9177.1565  0.0076 -5.0794
siesta:   26    -9176.4730    -9177.1974    -9177.2477  0.0048 -5.0804
siesta:   27    -9176.4729    -9176.9556    -9177.0065  0.0041 -5.0799
siesta:   28    -9176.4728    -9176.8410    -9176.8915  0.0026 -5.0804
siesta:   29    -9176.4729    -9176.5960    -9176.6465  0.0034 -5.0805
siesta:   30    -9176.4728    -9176.5765    -9176.6268  0.0018 -5.0815
siesta:   31    -9176.4728    -9176.5742    -9176.6245  0.0013 -5.0816
siesta:   32    -9176.4727    -9176.5543    -9176.6047  0.0006 -5.0818
siesta:   33    -9176.4727    -9176.5088    -9176.5593  0.0004 -5.0818
siesta:   34    -9176.4727    -9176.4944    -9176.5449  0.0002 -5.0818
siesta:   35    -9176.4727    -9176.4789    -9176.5293  0.0002 -5.0818
siesta:   36    -9176.4727    -9176.4745    -9176.5249  0.0002 -5.0818
siesta:   37    -9176.4727    -9176.4757    -9176.5261  0.0001 -5.0818
siesta:   38    -9176.4727    -9176.4757    -9176.5261  0.0001 -5.0818
siesta:   39    -9176.4727    -9176.4767    -9176.5271  0.0000 -5.0817

siesta: E_KS(eV) =            -9176.4759

siesta: E_KS - E_eggbox =     -9176.4759

siesta: Atomic forces (eV/Ang):
----------------------------------------
   Tot   -0.139607    0.014433    0.000000
----------------------------------------
   Max  556.741881
   Res  153.098911    sqrt( Sum f_i^2 / 3N )
----------------------------------------
   Max  556.741881    constrained

Stress-tensor-Voigt (kbar):     -832.67    -2797.60       -0.69       -5.31        0.00        0.00
(Free)E + p*V (eV/cell)    -7746.3520
Target enthalpy (eV/cell)    -9176.5263

siesta: Stress tensor (static) (eV/Ang**3):
        -0.519707   -0.003314    0.000000
        -0.003314   -1.746109    0.000000
         0.000000    0.000000   -0.000433

siesta: Pressure (static):       1210.32331120  kBar

siesta: Stress tensor (total) (eV/Ang**3):
        -0.519707   -0.003314    0.000000
        -0.003314   -1.746109    0.000000
         0.000000    0.000000   -0.000433

siesta: Pressure (total):       1210.32331120  kBar

siesta: Temp_ion =       0.000 K

* Maximum dynamic memory allocated =   238 MB
Computing bands...

siesta: Program's energy decomposition (eV):
siesta: Ebs     =     -4147.699499
siesta: Eions   =     15713.820136
siesta: Ena     =      4221.570368
siesta: Ekin    =      8208.199518
siesta: Enl     =      -797.896492
siesta: DEna    =      -819.447169
siesta: DUscf   =       111.240970
siesta: DUext   =         0.000000
siesta: Exc     =     -4386.322963
siesta: eta*DQ  =         0.000000
siesta: Emadel  =         0.000000
siesta: Emeta   =         0.000000
siesta: Emolmec =         0.000000
siesta: Ekinion =         0.000000
siesta: Eharris =     -9176.472729
siesta: Etot    =     -9176.475903
siesta: FreeEng =     -9176.526326

siesta: Final energy (eV):
siesta:  Band Struct. =   -4147.699499
siesta:       Kinetic =    8208.199518
siesta:       Hartree =   26870.336275
siesta:    Ext. field =       0.000000
siesta:   Exch.-corr. =   -4386.322963
siesta:  Ion-electron =  -61650.581255
siesta:       Ion-ion =   21781.892522
siesta:       Ekinion =       0.000000
siesta:         Total =   -9176.475903

siesta: Atomic forces (eV/Ang):
siesta:      1   17.379728    3.348039    0.000000
siesta:      2    9.018403    0.349433    0.000000
siesta:      3    2.910134    3.426057    0.000000
siesta:      4   -0.886233   -4.904134    0.000000
siesta:      5    4.331110   -3.099507    0.000000
siesta:      6    3.796549    2.206378    0.000000
siesta:      7   16.392394   -2.824854    0.000000
siesta:      8   -0.550632    2.798946    0.000000
siesta:      9  -17.004220   -2.930074    0.000000
siesta:     10    0.806724  410.264840    0.000000
siesta:     11   -1.012134    1.136739    0.000000
siesta:     12    4.830147   -4.551103    0.000000
siesta:     13    3.261197    4.501743    0.000000
siesta:     14   -1.303647   -3.047314    0.000000
siesta:     15   -4.810500    3.218610    0.000000
siesta:     16    2.277907   -2.640593    0.000000
siesta:     17   -4.951824    3.477160    0.000000
siesta:     18   -1.875574   -2.990218    0.000000
siesta:     19   -0.130714    2.815174    0.000000
siesta:     20   14.095909    2.317655    0.000000
siesta:     21   20.816067 -401.995688    0.000000
siesta:     22   -8.170295  548.788308    0.000000
siesta:     23    5.435450 -131.625984    0.000000
siesta:     24    1.388017  127.668081    0.000000
siesta:     25  -18.211729 -552.836322    0.000000
siesta:     26    0.690566  125.543753    0.000000
siesta:     27   19.582872 -554.289187    0.000000
siesta:     28   27.944013 -549.663056    0.000000
siesta:     29    3.659146    2.592567    0.000000
siesta:     30    0.384528   -3.050165    0.000000
siesta:     31  -26.445517    3.381759    0.000000
siesta:     32  -31.712529 -549.643933    0.000000
siesta:     33   16.159829  406.488410    0.000000
siesta:     34    2.621856 -125.112811    0.000000
siesta:     35   34.617567  555.181640    0.000000
siesta:     36   22.480180   -7.822902    0.000000
siesta:     37    3.638424    0.606503    0.000000
siesta:     38   -0.137128    7.414260    0.000000
siesta:     39    0.301756   -7.336152    0.000000
siesta:     40  -14.965149  547.424103    0.000000
siesta:     41    0.953587 -127.334496    0.000000
siesta:     42   -3.331315  548.219953    0.000000
siesta:     43   -0.470686 -126.108116    0.000000
siesta:     44   23.470447  556.505903    0.000000
siesta:     45    2.851659    3.181787    0.000000
siesta:     46   -0.589873    0.418367    0.000000
siesta:     47   -1.002216   -0.457021    0.000000
siesta:     48  -33.148811  550.055860    0.000000
siesta:     49  -26.578199   -3.943516    0.000000
siesta:     50  -23.578086  555.236505    0.000000
siesta:     51    3.170286   -1.995147    0.000000
siesta:     52   -6.963256   -1.542458    0.000000
siesta:     53    1.520322   -0.810950    0.000000
siesta:     54   -2.262332   -1.697911    0.000000
siesta:     55   -2.350449    2.572783    0.000000
siesta:     56   -0.479732   -0.589865    0.000000
siesta:     57   -0.354384    5.455585    0.000000
siesta:     58   -0.559971   -5.634383    0.000000
siesta:     59   -1.867073    2.175450    0.000000
siesta:     60    0.708927    0.565916    0.000000
siesta:     61    3.512917   -2.655370    0.000000
siesta:     62    5.526401 -556.741881    0.000000
siesta:     63   -2.673466    1.996174    0.000000
siesta:     64    0.922122   -2.186932    0.000000
siesta:     65  -21.377702    6.652074    0.000000
siesta:     66  -29.944633 -555.049512    0.000000
siesta:     67   -2.178163    0.098633    0.000000
siesta:     68    2.598595    2.181500    0.000000
siesta:     69    7.082388  119.334254    0.000000
siesta:     70    0.759736 -545.449724    0.000000
siesta:     71   -0.182044  128.764276    0.000000
siesta:     72    0.022748 -405.789467    0.000000
siesta: ----------------------------------------
siesta:    Tot   -0.139607    0.014433    0.000000

siesta: Stress tensor (static) (eV/Ang**3):
siesta:    -0.519707   -0.003314    0.000000
siesta:    -0.003314   -1.746109    0.000000
siesta:     0.000000    0.000000   -0.000433

siesta: Cell volume =       1893.226884 Ang**3

siesta: Pressure (static):
siesta:                Solid            Molecule  Units
siesta:           0.00822745          0.11804200  Ry/Bohr**3
siesta:           0.75541623         10.83821485  eV/Ang**3
siesta:        1210.32331120      17364.92228783  kBar
(Free)E+ p_basis*V_orbitals  =       -9139.153688
(Free)Eharris+ p_basis*V_orbitals  =       -9139.149741

siesta: Electric dipole (a.u.)  =    0.000000    0.000000    0.000000
siesta: Electric dipole (Debye) =    0.000000    0.000000    0.000000

* Maximum dynamic memory allocated : Node    0 =   238 MB
* Maximum dynamic memory allocated : Node    1 =    84 MB
* Maximum dynamic memory allocated : Node    2 =    87 MB
* Maximum dynamic memory allocated : Node    3 =   226 MB
* Maximum dynamic memory allocated : Node    4 =   231 MB
* Maximum dynamic memory allocated : Node    5 =    85 MB
* Maximum dynamic memory allocated : Node    6 =    87 MB
* Maximum dynamic memory allocated : Node    7 =   213 MB

* Maximum memory occured during matrixMtoO                    

timer: CPU execution times:
timer:  Routine       Calls   Time/call    Tot.time        %
timer:  siesta            1  171649.999  171649.999   100.00
timer:  Setup             1       3.024       3.024     0.00
timer:  bands             3     269.048     807.143     0.47
timer:  writewave         1       0.022       0.022     0.00
timer:  KSV_init          1       0.002       0.002     0.00
timer:  IterMD            1  170833.975  170833.975    99.52
timer:  hsparse           1       0.394       0.394     0.00
timer:  overlap           1       7.801       7.801     0.00
timer:  IterSCF          39    4374.582  170608.679    99.39
timer:  kinefsm           2       4.046       8.091     0.00
timer:  nlefsm            2      21.428      42.856     0.02
timer:  DHSCF            40     120.295    4811.784     2.80
timer:  DHSCF1            1       0.992       0.992     0.00
timer:  DHSCF2            1      44.327      44.327     0.03
timer:  REORD           322       0.010       3.209     0.00
timer:  POISON           41       2.242      91.933     0.05
timer:  DHSCF3           40     118.015    4720.592     2.75
timer:  rhoofd           40      26.343    1053.708     0.61
timer:  cellXC           40       3.517     140.668     0.08
timer:  vmat             40      57.828    2313.130     1.35
timer:  MolMec            2       0.000       0.000     0.00
timer:  diagon           39    4253.035  165868.361    96.63
timer:  c-eigval       9130       6.675   60944.098    35.50
timer:  c-buildHS      9130       0.122    1112.344     0.65
timer:  cdiag         18139       6.911  125365.959    73.04
timer:  cdiag1        18139       0.428    7765.623     4.52
timer:  cdiag2        18139       1.912   34689.185    20.21
timer:  cdiag3        18139       3.932   71326.267    41.55
timer:  cdiag4        18139       0.226    4091.125     2.38
timer:  c-eigvec       9009       7.340   66128.297    38.53
timer:  c-buildD       9009       4.390   39553.553    23.04
timer:  DHSCF4            1      43.807      43.807     0.03
timer:  dfscf             1      41.117      41.117     0.02
timer:  overfsm           1       0.490       0.490     0.00
timer:  optical           1       5.111       5.111     0.00
  

elaps: ELAPSED times:
elaps:  Routine       Calls   Time/call    Tot.time        %
elaps:  siesta            1   21481.120   21481.120   100.00
elaps:  Setup             1       0.378       0.378     0.00
elaps:  bands             3      33.682     101.047     0.47
elaps:  writewave         1       0.002       0.002     0.00
elaps:  KSV_init          1       0.000       0.000     0.00
elaps:  IterMD            1   21379.020   21379.020    99.52
elaps:  hsparse           1       0.050       0.050     0.00
elaps:  overlap           1       0.978       0.978     0.00
elaps:  IterSCF          39     547.457   21350.838    99.39
elaps:  kinefsm           2       0.506       1.012     0.00
elaps:  nlefsm            2       2.481       4.962     0.02
elaps:  DHSCF            40      15.176     607.039     2.83
elaps:  DHSCF1            1       0.129       0.129     0.00
elaps:  DHSCF2            1       5.544       5.544     0.03
elaps:  REORD           322       0.001       0.438     0.00
elaps:  POISON           41       0.281      11.515     0.05
elaps:  DHSCF3           40      14.764     590.574     2.75
elaps:  rhoofd           40       6.638     265.516     1.24
elaps:  cellXC           40       0.439      17.569     0.08
elaps:  vmat             40       7.234     289.361     1.35
elaps:  MolMec            2       0.000       0.000     0.00
elaps:  diagon           39     532.278   20758.852    96.64
elaps:  c-eigval       9130       0.835    7625.185    35.50
elaps:  c-buildHS      9130       0.017     153.082     0.71
elaps:  cdiag         18139       0.849   15401.162    71.70
elaps:  cdiag1        18139       0.053     961.531     4.48
elaps:  cdiag2        18139       0.239    4340.375    20.21
elaps:  cdiag3        18139       0.493    8936.536    41.60
elaps:  cdiag4        18139       0.028     514.398     2.39
elaps:  c-eigvec       9009       0.892    8031.659    37.39
elaps:  c-buildD       9009       0.577    5195.417    24.19
elaps:  DHSCF4            1      10.507      10.507     0.05
elaps:  dfscf             1       9.976       9.976     0.05
elaps:  overfsm           1       0.061       0.061     0.00
elaps:  optical           1       0.000       0.000     0.00
  
>> End of run:  28-APR-2016  12:53:02
