Siesta Version:                                        siesta-3.2-pl-3
Architecture  : x86_64-unknown-linux-gnu--unknown
Compiler flags: mpiifort -g -O2 -fPIC -xSSE4.1 -fp-model source -shared-intel 
PARALLEL version

* Running on    8 nodes in parallel
>> Start of run:  20-APR-2016  21:57:18

                           ***********************       
                           *  WELCOME TO SIESTA  *       
                           ***********************       

reinit: Reading from standard input
************************** Dump of input data file ****************************
#(1) General system descriptors
SystemName            GRP_doping    # Descriptive name of the system
SystemLabel           GRP_doping    # Short name for naming files
%include STRUCT.fdf
%include KPT.fdf
%include BASIS.fdf
#%include TS.fdf # for transiesta calculation
#(4) DFT, Grid, SCF
XC.functional         GGA           # LDA or GGA (default = LDA)
XC.authors            PBE           # CA (Ceperley-Aldr) = PZ
                                    #    (Perdew-Zunger) - LDA - Default
                                    # PW92 (Perdew-Wang-92) - LDA
                                    # PBE (Perdew-Burke-Ernzerhof) - GGA
MeshCutoff            200.000000    Ry      # Default: 50.0 Ry ~ 0.444 Bohr
                                    #         100.0 Ry ~ 0.314 Bohr
MaxSCFIterations      500           # Default: 50
DM.MixingWeight       0.05          # Default: 0.25
DM.NumberPulay        10            # Default: 0
DM.PulayOnFile        F             # SystemLabel.P1, SystemLabel.P2
DM.Tolerance          1.d-4         # Default: 1.d-4
DM.UseSaveDM          .true.        # because of the bug
SCFMustConverge       .true.
NeglNonOverlapInt     F             # Default: F
#(5) Eigenvalue problem: order-N or diagonalization
SolutionMethod        Diagon        # or Transiesta
ElectronicTemperature 300.0 K       # Default: 300.0 K
#(6) Molecular dynamics and relaxations
#MD.TypeOfRun          CG            # Type of dynamics:
#MD.VariableCell       F
#MD.NumCGsteps         0           # 0 for single-point / 100 for gopt
#MD.MaxCGDispl         0.2 Bohr      # Default: 0.2 Bohr
#MD.MaxForceTol        0.02 eV/Ang   # Default: 0.04 eV/Ang
#MD.MaxStressTol       1.0 GPa       # Default: 1.0 GPa
# Geometry Constraints
#%block GeometryConstraints
#	position from 1 to 44
#%endblock GeometryConstraints
BandLinesScale   pi/a
%block BandLines
 1   0.00000000  0.00000000  0.00000000
50   0.00000000  0.07809418  0.00000000
50   0.04509075  0.07809242  0.00000000
20   0.00000000  0.00000000  0.00000000
%endblock BandLines
************************** End of input data file *****************************

reinit: -----------------------------------------------------------------------
reinit: System Name: GRP_doping
reinit: -----------------------------------------------------------------------
reinit: System Label: GRP_doping                                                  
reinit: -----------------------------------------------------------------------

initatom: Reading input for the pseudopotentials and atomic orbitals ----------
 Species number:            1  Label: N Atomic number:           7
 Species number:            2  Label: C Atomic number:           6
Ground state valence configuration:   2s02  2p03
Reading pseudopotential information in formatted form from N.psf

Valence configuration for pseudopotential generation:
2s( 2.00) rc: 1.48
2p( 3.00) rc: 1.48
3d( 0.00) rc: 1.48
4f( 0.00) rc: 1.48
Ground state valence configuration:   2s02  2p02
Reading pseudopotential information in formatted form from C.psf

Valence configuration for pseudopotential generation:
2s( 2.00) rc: 1.54
2p( 2.00) rc: 1.54
3d( 0.00) rc: 1.54
4f( 0.00) rc: 1.54
For N, standard SIESTA heuristics set lmxkb to 3
 (one more than the basis l, including polarization orbitals).
Use PS.lmax or PS.KBprojectors blocks to override.
For C, standard SIESTA heuristics set lmxkb to 3
 (one more than the basis l, including polarization orbitals).
Use PS.lmax or PS.KBprojectors blocks to override.

<basis_specs>
===============================================================================
N                    Z=   7    Mass=  14.010        Charge= 0.17977+309
Lmxo=1 Lmxkb= 3    BasisType=split      Semic=F
L=0  Nsemic=0  Cnfigmx=2
          n=1  nzeta=2  polorb=0
            splnorm:   0.15000    
               vcte:    0.0000    
               rinn:    0.0000    
                rcs:    0.0000      0.0000    
            lambdas:    1.0000      1.0000    
L=1  Nsemic=0  Cnfigmx=2
          n=1  nzeta=2  polorb=1
            splnorm:   0.15000    
               vcte:    0.0000    
               rinn:    0.0000    
                rcs:    0.0000      0.0000    
            lambdas:    1.0000      1.0000    
-------------------------------------------------------------------------------
L=0  Nkbl=1  erefs: 0.17977+309
L=1  Nkbl=1  erefs: 0.17977+309
L=2  Nkbl=1  erefs: 0.17977+309
L=3  Nkbl=1  erefs: 0.17977+309
===============================================================================
</basis_specs>

atom: Called for N                     (Z =   7)

read_vps: Pseudopotential generation method:
read_vps: ATM3      Troullier-Martins                       
Total valence charge:    5.00000

read_vps: Pseudopotential includes a core correction:
read_vps: Pseudo-core for xc-correction

xc_check: Exchange-correlation functional:
xc_check: GGA Perdew, Burke & Ernzerhof 1996
V l=0 = -2*Zval/r beyond r=  1.4606
V l=1 = -2*Zval/r beyond r=  1.4606
V l=2 = -2*Zval/r beyond r=  1.4606
V l=3 = -2*Zval/r beyond r=  1.4606
All V_l potentials equal beyond r=  1.4606
This should be close to max(r_c) in ps generation
All pots = -2*Zval/r beyond r=  1.4606

VLOCAL1: 99.0% of the norm of Vloc inside     20.347 Ry
VLOCAL1: 99.9% of the norm of Vloc inside     46.372 Ry
atom: Maximum radius for 4*pi*r*r*local-pseudopot. charge    1.76189
atom: Maximum radius for r*vlocal+2*Zval:    1.53550
GHOST: No ghost state for L =  0
GHOST: No ghost state for L =  1
GHOST: No ghost state for L =  2
GHOST: No ghost state for L =  3

KBgen: Kleinman-Bylander projectors: 
   l= 0   rc=  1.634559   el= -1.363963   Ekb=  5.296955   kbcos=  0.335621
   l= 1   rc=  1.614250   el= -0.521451   Ekb= -5.259161   kbcos= -0.433408
   l= 2   rc=  1.718383   el=  0.001991   Ekb= -1.271464   kbcos= -0.007566
   l= 3   rc=  1.761893   el=  0.003093   Ekb= -0.494769   kbcos= -0.001015

KBgen: Total number of  Kleinman-Bylander projectors:   16
atom: -------------------------------------------------------------------------

atom: SANKEY-TYPE ORBITALS:
atom: Selected multiple-zeta basis: split     

SPLIT: Orbitals with angular momentum L= 0

SPLIT: Basis orbitals for state 2s

SPLIT: PAO cut-off radius determined from an
SPLIT: energy shift=  0.007350 Ry

   izeta = 1
                 lambda =    1.000000
                     rc =    4.071465
                 energy =   -1.356470
                kinetic =    1.176977
    potential(screened) =   -2.533447
       potential(ionic) =   -8.057990

   izeta = 2
                 rmatch =    2.905100
              splitnorm =    0.150000
                 energy =   -1.158343
                kinetic =    1.813009
    potential(screened) =   -2.971352
       potential(ionic) =   -8.901931

SPLIT: Orbitals with angular momentum L= 1

SPLIT: Basis orbitals for state 2p

SPLIT: PAO cut-off radius determined from an
SPLIT: energy shift=  0.007350 Ry

   izeta = 1
                 lambda =    1.000000
                     rc =    4.972977
                 energy =   -0.513884
                kinetic =    3.441732
    potential(screened) =   -3.955616
       potential(ionic) =   -9.287901

   izeta = 2
                 rmatch =    3.054066
              splitnorm =    0.150000
                 energy =   -0.318226
                kinetic =    5.125348
    potential(screened) =   -5.443573
       potential(ionic) =  -11.380999

POLgen: Perturbative polarization orbital with L=  2

POLgen: Polarization orbital for state 2p

   izeta = 1
                     rc =    4.972977
                 energy =    1.607437
                kinetic =    3.268125
    potential(screened) =   -1.660688
       potential(ionic) =   -5.973652
atom: Total number of Sankey-type orbitals: 13

atm_pop: Valence configuration (for local Pseudopot. screening):
 2s( 2.00)                                                            
 2p( 3.00)                                                            
Vna: chval, zval:    5.00000   5.00000

Vna:  Cut-off radius for the neutral-atom potential:   4.972977
comcore: Pseudo-core radius Rcore=  1.554824

atom: _________________________________________________________________________

<basis_specs>
===============================================================================
C                    Z=   6    Mass=  12.010        Charge= 0.17977+309
Lmxo=1 Lmxkb= 3    BasisType=split      Semic=F
L=0  Nsemic=0  Cnfigmx=2
          n=1  nzeta=2  polorb=0
            splnorm:   0.15000    
               vcte:    0.0000    
               rinn:    0.0000    
                rcs:    0.0000      0.0000    
            lambdas:    1.0000      1.0000    
L=1  Nsemic=0  Cnfigmx=2
          n=1  nzeta=2  polorb=1
            splnorm:   0.15000    
               vcte:    0.0000    
               rinn:    0.0000    
                rcs:    0.0000      0.0000    
            lambdas:    1.0000      1.0000    
-------------------------------------------------------------------------------
L=0  Nkbl=1  erefs: 0.17977+309
L=1  Nkbl=1  erefs: 0.17977+309
L=2  Nkbl=1  erefs: 0.17977+309
L=3  Nkbl=1  erefs: 0.17977+309
===============================================================================
</basis_specs>

atom: Called for C                     (Z =   6)

read_vps: Pseudopotential generation method:
read_vps: ATM3      Troullier-Martins                       
Total valence charge:    4.00000

read_vps: Pseudopotential includes a core correction:
read_vps: Pseudo-core for xc-correction

xc_check: Exchange-correlation functional:
xc_check: GGA Perdew, Burke & Ernzerhof 1996
V l=0 = -2*Zval/r beyond r=  1.5227
V l=1 = -2*Zval/r beyond r=  1.5227
V l=2 = -2*Zval/r beyond r=  1.5227
V l=3 = -2*Zval/r beyond r=  1.5038
All V_l potentials equal beyond r=  1.5227
This should be close to max(r_c) in ps generation
All pots = -2*Zval/r beyond r=  1.5227

VLOCAL1: 99.0% of the norm of Vloc inside     18.722 Ry
VLOCAL1: 99.9% of the norm of Vloc inside     42.668 Ry
atom: Maximum radius for 4*pi*r*r*local-pseudopot. charge    1.83678
atom: Maximum radius for r*vlocal+2*Zval:    1.58088
GHOST: No ghost state for L =  0
GHOST: No ghost state for L =  1
GHOST: No ghost state for L =  2
GHOST: No ghost state for L =  3

KBgen: Kleinman-Bylander projectors: 
   l= 0   rc=  1.704034   el= -1.009801   Ekb=  5.335044   kbcos=  0.316824
   l= 1   rc=  1.704034   el= -0.388707   Ekb= -3.785862   kbcos= -0.366464
   l= 2   rc=  1.791422   el=  0.001971   Ekb= -0.970471   kbcos= -0.009212
   l= 3   rc=  1.859892   el=  0.003065   Ekb= -0.399525   kbcos= -0.001223

KBgen: Total number of  Kleinman-Bylander projectors:   16
atom: -------------------------------------------------------------------------

atom: SANKEY-TYPE ORBITALS:
atom: Selected multiple-zeta basis: split     

SPLIT: Orbitals with angular momentum L= 0

SPLIT: Basis orbitals for state 2s

SPLIT: PAO cut-off radius determined from an
SPLIT: energy shift=  0.007350 Ry

   izeta = 1
                 lambda =    1.000000
                     rc =    4.632753
                 energy =   -1.002270
                kinetic =    0.855760
    potential(screened) =   -1.858031
       potential(ionic) =   -5.417575

   izeta = 2
                 rmatch =    3.431921
              splitnorm =    0.150000
                 energy =   -0.867111
                kinetic =    1.300804
    potential(screened) =   -2.167915
       potential(ionic) =   -5.962684

SPLIT: Orbitals with angular momentum L= 1

SPLIT: Basis orbitals for state 2p

SPLIT: PAO cut-off radius determined from an
SPLIT: energy shift=  0.007350 Ry

   izeta = 1
                 lambda =    1.000000
                     rc =    5.658549
                 energy =   -0.381140
                kinetic =    2.399701
    potential(screened) =   -2.780841
       potential(ionic) =   -6.206085

   izeta = 2
                 rmatch =    3.653288
              splitnorm =    0.150000
                 energy =   -0.249149
                kinetic =    3.542762
    potential(screened) =   -3.791911
       potential(ionic) =   -7.581078

POLgen: Perturbative polarization orbital with L=  2

POLgen: Polarization orbital for state 2p

   izeta = 1
                     rc =    5.658549
                 energy =    1.109913
                kinetic =    2.304789
    potential(screened) =   -1.194876
       potential(ionic) =   -4.013592
atom: Total number of Sankey-type orbitals: 13

atm_pop: Valence configuration (for local Pseudopot. screening):
 2s( 2.00)                                                            
 2p( 2.00)                                                            
Vna: chval, zval:    4.00000   4.00000

Vna:  Cut-off radius for the neutral-atom potential:   5.658549
comcore: Pseudo-core radius Rcore=  1.791422

atom: _________________________________________________________________________

prinput: Basis input ----------------------------------------------------------

PAO.BasisType split     

%block ChemicalSpeciesLabel
    1    7 N                       # Species index, atomic number, species label
    2    6 C                       # Species index, atomic number, species label
%endblock ChemicalSpeciesLabel

%block PAO.Basis                 # Define Basis set
N                     2                    # Species label, number of l-shells
 n=2   0   2                         # n, l, Nzeta 
   4.071      2.905   
   1.000      1.000   
 n=2   1   2 P   1                   # n, l, Nzeta, Polarization, NzetaPol
   4.973      3.054   
   1.000      1.000   
C                     2                    # Species label, number of l-shells
 n=2   0   2                         # n, l, Nzeta 
   4.633      3.432   
   1.000      1.000   
 n=2   1   2 P   1                   # n, l, Nzeta, Polarization, NzetaPol
   5.659      3.653   
   1.000      1.000   
%endblock PAO.Basis

prinput: ----------------------------------------------------------------------

coor:   Atomic-coordinates input format  =     Fractional

siesta: Atomic coordinates (Bohr) and species
siesta:     -2.35420  38.89134   0.00000  1        1
siesta:      2.30256  38.89134   0.00000  1        2
siesta:      4.63094  34.85847   0.00000  1        3
siesta:      4.63094  37.54693   0.00000  1        4
siesta:     -4.68258  34.85847   0.00000  1        5
siesta:     -4.68258  37.54693   0.00000  1        6
siesta:      2.30256   9.31683   0.00000  1        7
siesta:      4.63094  10.66124   0.00000  1        8
siesta:      4.63094  13.34970   0.00000  1        9
siesta:      9.28770  18.72698   0.00000  1       10
siesta:     -2.35420   9.31683   0.00000  1       11
siesta:     -0.02582  10.66124   0.00000  1       12
siesta:     -0.02582  13.34970   0.00000  1       13
siesta:      2.30256  14.69411   0.00000  1       14
siesta:      4.63094  21.41544   0.00000  1       15
siesta:     -4.68258  10.66124   0.00000  1       16
siesta:     -4.68258  13.34970   0.00000  1       17
siesta:     -2.35420  14.69411   0.00000  1       18
siesta:      2.30256  22.75985   0.00000  1       19
siesta:     -2.35420  25.44831   0.00000  1       20
siesta:     -9.33934  29.48119   0.00000  1       21
siesta:     -4.68258  26.79272   0.00000  1       22
siesta:      2.30256  33.51406   0.00000  1       23
siesta:     -2.35420  33.51406   0.00000  1       24
siesta:     -0.02582  34.85847   0.00000  1       25
siesta:     -0.02582  37.54693   0.00000  1       26
siesta:     -0.02582   2.59549   0.00000  2       27
siesta:     -0.02582   5.28395   0.00000  2       28
siesta:     -2.35420  41.57980   0.00000  2       29
siesta:      2.30256  41.57980   0.00000  2       30
siesta:      6.95932  30.82560   0.00000  2       31
siesta:      6.95932  33.51406   0.00000  2       32
siesta:      9.28770  26.79272   0.00000  2       33
siesta:      9.28770  29.48119   0.00000  2       34
siesta:      2.30256   6.62836   0.00000  2       35
siesta:      6.95932  14.69411   0.00000  2       36
siesta:      6.95932  17.38257   0.00000  2       37
siesta:      9.28770  21.41544   0.00000  2       38
siesta:     11.61608  22.75985   0.00000  2       39
siesta:     11.61608  25.44831   0.00000  2       40
siesta:     -2.35420   6.62836   0.00000  2       41
siesta:      2.30256  17.38257   0.00000  2       42
siesta:      4.63094  18.72698   0.00000  2       43
siesta:      6.95932  22.75985   0.00000  2       44
siesta:      6.95932  25.44831   0.00000  2       45
siesta:     -2.35420  17.38257   0.00000  2       46
siesta:     -0.02582  18.72698   0.00000  2       47
siesta:     -0.02582  21.41544   0.00000  2       48
siesta:      2.30256  25.44831   0.00000  2       49
siesta:     -7.01096  14.69411   0.00000  2       50
siesta:     -7.01096  17.38257   0.00000  2       51
siesta:     -4.68258  18.72698   0.00000  2       52
siesta:     -4.68258  21.41544   0.00000  2       53
siesta:     -2.35420  22.75985   0.00000  2       54
siesta:     -9.33934  18.72698   0.00000  2       55
siesta:     -9.33934  21.41544   0.00000  2       56
siesta:     -7.01096  22.75985   0.00000  2       57
siesta:     -7.01096  25.44831   0.00000  2       58
siesta:    -11.66772  22.75985   0.00000  2       59
siesta:    -11.66772  25.44831   0.00000  2       60
siesta:     -9.33934  26.79272   0.00000  2       61
siesta:      4.63094  26.79272   0.00000  2       62
siesta:      4.63094  29.48119   0.00000  2       63
siesta:     -0.02582  26.79272   0.00000  2       64
siesta:     -0.02582  29.48119   0.00000  2       65
siesta:     -4.68258  29.48119   0.00000  2       66
siesta:      2.30256  30.82560   0.00000  2       67
siesta:     -2.35420  30.82560   0.00000  2       68
siesta:     -7.01096  30.82560   0.00000  2       69
siesta:     -7.01096  33.51406   0.00000  2       70
siesta:     -0.02582  42.92421   0.00000  2       71
siesta:     -0.02582  45.61267   0.00000  2       72

siesta: System type = slab      

initatomlists: Number of atoms, orbitals, and projectors:     72   936  1152

siesta: ******************** Simulation parameters ****************************
siesta:
siesta: The following are some of the parameters of the simulation.
siesta: A complete list of the parameters used, including default values,
siesta: can be found in file out.fdf
siesta:
redata: Non-Collinear-spin run           =     F
redata: SpinPolarized (Up/Down) run      =     F
redata: Number of spin components        =     1
redata: Long output                      =     F
redata: Number of Atomic Species         =        2
redata: Charge density info will appear in .RHO file
redata: Write Mulliken Pop.              =     NO
redata: Mesh Cutoff                      =   200.0000  Ry
redata: Net charge of the system         =     0.0000 |e|
redata: Max. number of SCF Iter          =      500
redata: SCF convergence failure will abort job
redata: Performing Pulay mixing using    =    10 iterations
redata: Mix DM in first SCF step ?       =     F
redata: Write Pulay info on disk?        =     F
redata: Discard 1st Pulay DM after  kick =     F
redata: New DM Mixing Weight             =     0.0500
redata: New DM Occupancy tolerance       = 0.000000000001
redata: No kicks to SCF
redata: DM Mixing Weight for Kicks       =     0.5000
redata: DM Tolerance for SCF             =     0.000100
redata: Require Energy convergence for SCF =     F
redata: DM Energy tolerance for SCF      =     0.000100 eV
redata: Require Harris convergence for SCF =     F
redata: DM Harris energy tolerance for SCF =     0.000100 eV
redata: Using Saved Data (generic)   =     F
redata: Use continuation files for DM    =     T
redata: Neglect nonoverlap interactions  =     F
redata: Method of Calculation            =     Diagonalization
redata: Divide and Conquer               =     T
redata: Electronic Temperature           =     0.0019  Ry
redata: Fix the spin of the system       =     F
redata: Dynamics option                  =     Verlet MD run
redata: Initial MD time step             =        1
redata:   Final MD time step             =        1
redata: Length of MD time step           =     1.0000  fs
redata: Initial Temperature of MD run    =     0.0000  K
redata: Perform a MD quench              =     F
redata: ***********************************************************************
Total number of electrons:   314.000000
Total ionic charge:   314.000000

* ProcessorY, Blocksize:    2  24

k-point displ. along   1 input, could be:     0.50    0.00
k-point displ. along   2 input, could be:     0.50    0.00
 Kpoints in:          231 . Kpoints trimmed:          231

siesta: k-grid: Number of k-points =   231
siesta: k-grid: Cutoff (effective) =     5.000 Ang
siesta: k-grid: Supercell and displacements
siesta: k-grid:   21   0   0      0.500
siesta: k-grid:    0  21   0      0.500
siesta: k-grid:    0   0   1      0.000
Naive supercell factors:     2    2    2

superc: Internal auxiliary supercell:     2 x     2 x     2  =       8
superc: Number of atoms, orbitals, and projectors:    576   7488   9216

* Maximum dynamic memory allocated =     4 MB

siesta:                 ==============================
                            Begin MD step =      1
                        ==============================

superc: Internal auxiliary supercell:     2 x     2 x     2  =       8
superc: Number of atoms, orbitals, and projectors:    576   7488   9216

outcell: Unit cell vectors (Ang):
       12.804619    7.392750    0.000000
        0.000000   14.785500    0.000000
        0.000000    0.000000   10.000000

outcell: Cell vector modules (Ang)   :   14.785500   14.785500   10.000000
outcell: Cell angles (23,13,12) (deg):     90.0000     90.0000     60.0000
outcell: Cell volume (Ang**3)        :   1893.2269
New_DM. Step:     1
Initializing Density Matrix...

InitMesh: MESH =   120 x   120 x    90 =     1296000
InitMesh: Mesh cutoff (required, used) =   200.000   223.865 Ry

* Maximum dynamic memory allocated =   175 MB

stepf: Fermi-Dirac step function

siesta: Program's energy decomposition (eV):
siesta: Ebs     =     -6482.155216
siesta: Eions   =     22582.429020
siesta: Ena     =      5021.688415
siesta: Ekin    =      8560.167659
siesta: Enl     =      -170.856416
siesta: DEna    =        -0.000015
siesta: DUscf   =         0.000000
siesta: DUext   =         0.000000
siesta: Exc     =     -4846.389461
siesta: eta*DQ  =         0.000000
siesta: Emadel  =         0.000000
siesta: Emeta   =         0.000000
siesta: Emolmec =         0.000000
siesta: Ekinion =         0.000000
siesta: Eharris =    -13547.009163
siesta: Etot    =    -14017.818837
siesta: FreeEng =    -14017.818837

siesta: iscf   Eharris(eV)      E_KS(eV)   FreeEng(eV)   dDmax  Ef(eV)
siesta:    1   -13547.0092   -14017.8188   -14017.8188  4.7902 -6.3651
timer: Routine,Calls,Time,% = IterSCF        1    4203.485  99.73
elaps: Routine,Calls,Wall,% = IterSCF        1     526.049  99.73
siesta:    2   -14356.1185   -13247.9683   -13247.9968  6.0607 -1.1809
siesta:    3   -13442.0958   -13715.5831   -13715.6181  1.4300 -3.7573
siesta:    4   -13433.0301   -13632.1458   -13632.1868  0.8384 -3.2409
siesta:    5   -13423.4956   -13603.7986   -13603.8517  0.8555 -3.3107
siesta:    6   -13418.8604   -13544.9682   -13545.0195  0.5310 -3.5372
siesta:    7   -13418.2703   -13522.1408   -13522.1521  0.5038 -3.5332
siesta:    8   -13417.3813   -13473.7871   -13473.8008  0.3277 -3.5836
siesta:    9   -13415.7308   -13433.1226   -13433.1588  0.1528 -3.5183
siesta:   10   -13415.3669   -13420.1877   -13420.2326  0.1503 -3.4907
siesta:   11   -13414.7284   -13411.8375   -13411.8861  0.1009 -3.4747
siesta:   12   -13414.5735   -13412.5990   -13412.6510  0.0729 -3.4615
siesta:   13   -13414.4959   -13413.0410   -13413.0967  0.0767 -3.5058
siesta:   14   -13414.3843   -13413.7802   -13413.8120  0.0481 -3.4899
siesta:   15   -13414.3719   -13414.2529   -13414.3005  0.0286 -3.4783
siesta:   16   -13414.3627   -13413.8391   -13413.8896  0.0267 -3.4829
siesta:   17   -13414.3559   -13414.6546   -13414.7014  0.0142 -3.4916
siesta:   18   -13414.3514   -13415.1096   -13415.1587  0.0121 -3.4876
siesta:   19   -13414.3414   -13414.5835   -13414.6333  0.0037 -3.4720
siesta:   20   -13414.3405   -13414.4492   -13414.5002  0.0033 -3.4700
siesta:   21   -13414.3401   -13414.4056   -13414.4569  0.0026 -3.4725
siesta:   22   -13414.3397   -13414.4642   -13414.5152  0.0014 -3.4720
siesta:   23   -13414.3399   -13414.4505   -13414.5018  0.0013 -3.4728
siesta:   24   -13414.3399   -13414.3491   -13414.4002  0.0008 -3.4732
siesta:   25   -13414.3398   -13414.3348   -13414.3859  0.0006 -3.4732
siesta:   26   -13414.3398   -13414.3265   -13414.3776  0.0003 -3.4730
siesta:   27   -13414.3398   -13414.3247   -13414.3758  0.0002 -3.4733
siesta:   28   -13414.3398   -13414.3391   -13414.3903  0.0002 -3.4734
siesta:   29   -13414.3398   -13414.3473   -13414.3985  0.0001 -3.4734
siesta:   30   -13414.3398   -13414.3394   -13414.3905  0.0001 -3.4735

siesta: E_KS(eV) =           -13414.3393

siesta: E_KS - E_eggbox =    -13414.3393

siesta: Atomic forces (eV/Ang):
----------------------------------------
   Tot   -0.037134    0.097148    0.000000
----------------------------------------
   Max  767.973042
   Res  197.445513    sqrt( Sum f_i^2 / 3N )
----------------------------------------
   Max  767.973042    constrained

Stress-tensor-Voigt (kbar):     -629.82    -3549.12       -0.15        6.82        0.00        0.00
(Free)E + p*V (eV/cell)   -11768.3233
Target enthalpy (eV/cell)   -13414.3904

siesta: Stress tensor (static) (eV/Ang**3):
        -0.393097    0.004254    0.000000
         0.004254   -2.215164    0.000000
         0.000000    0.000000   -0.000091

siesta: Pressure (static):       1393.02835124  kBar

siesta: Stress tensor (total) (eV/Ang**3):
        -0.393097    0.004254    0.000000
         0.004254   -2.215164    0.000000
         0.000000    0.000000   -0.000091

siesta: Pressure (total):       1393.02835124  kBar

siesta: Temp_ion =       0.000 K

* Maximum dynamic memory allocated =   191 MB
Computing bands...

siesta: Program's energy decomposition (eV):
siesta: Ebs     =     -5287.534497
siesta: Eions   =     22582.429020
siesta: Ena     =      5021.688415
siesta: Ekin    =     11914.807790
siesta: Enl     =     -2006.682482
siesta: DEna    =      -840.043104
siesta: DUscf   =       111.676296
siesta: DUext   =         0.000000
siesta: Exc     =     -5033.357178
siesta: eta*DQ  =         0.000000
siesta: Emadel  =         0.000000
siesta: Emeta   =         0.000000
siesta: Emolmec =         0.000000
siesta: Ekinion =         0.000000
siesta: Eharris =    -13414.339801
siesta: Etot    =    -13414.339282
siesta: FreeEng =    -13414.390396

siesta: Final energy (eV):
siesta:  Band Struct. =   -5287.534497
siesta:       Kinetic =   11914.807790
siesta:       Hartree =   39612.097449
siesta:    Ext. field =       0.000000
siesta:   Exch.-corr. =   -5033.357178
siesta:  Ion-electron =  -90688.862732
siesta:       Ion-ion =   30780.975389
siesta:       Ekinion =       0.000000
siesta:         Total =  -13414.339282

siesta: Atomic forces (eV/Ang):
siesta:      1    5.146800  110.159967    0.000000
siesta:      2   -5.045411  110.402183    0.000000
siesta:      3   33.048033   -1.426205    0.000000
siesta:      4   28.695807 -753.486015    0.000000
siesta:      5  -33.214961   -0.886093    0.000000
siesta:      6  -28.532421 -753.851227    0.000000
siesta:      7   -5.087547 -110.136643    0.000000
siesta:      8   28.492356  753.823573    0.000000
siesta:      9   33.137019    0.855922    0.000000
siesta:     10   -1.124494    1.091321    0.000000
siesta:     11    5.132343 -110.391566    0.000000
siesta:     12   -0.178218  767.973042    0.000000
siesta:     13    0.096053 -115.396077    0.000000
siesta:     14    7.775538  689.004704    0.000000
siesta:     15    0.120364   -0.754017    0.000000
siesta:     16  -28.749492  753.507362    0.000000
siesta:     17  -33.144829    1.446110    0.000000
siesta:     18   -8.322599  689.283538    0.000000
siesta:     19    0.798480   -0.236792    0.000000
siesta:     20   -0.766750    0.277293    0.000000
siesta:     21    1.108779   -1.082794    0.000000
siesta:     22   -0.148788    0.728398    0.000000
siesta:     23    8.478222 -689.205792    0.000000
siesta:     24   -7.594982 -689.057596    0.000000
siesta:     25   -0.182526  115.395500    0.000000
siesta:     26   -0.006411 -767.933247    0.000000
siesta:     27   -1.401213  548.820370    0.000000
siesta:     28    0.175479 -121.190425    0.000000
siesta:     29  -12.936148 -652.867728    0.000000
siesta:     30   13.601609 -653.149753    0.000000
siesta:     31    0.851337    1.374919    0.000000
siesta:     32   -3.054158    1.317229    0.000000
siesta:     33    1.754368    3.350782    0.000000
siesta:     34   -0.176800   -0.485757    0.000000
siesta:     35   12.973524  652.849575    0.000000
siesta:     36   -2.875940   -0.653233    0.000000
siesta:     37    2.292143    0.399731    0.000000
siesta:     38    0.691934   -4.885369    0.000000
siesta:     39   -0.343307    6.969800    0.000000
siesta:     40   -0.044198   -8.074012    0.000000
siesta:     41  -13.573634  653.152121    0.000000
siesta:     42   22.095835   -4.921493    0.000000
siesta:     43   -2.028912    3.326247    0.000000
siesta:     44   -0.819880    1.701543    0.000000
siesta:     45   -0.423616   -1.740383    0.000000
siesta:     46  -22.874482   -5.466242    0.000000
siesta:     47   -0.420420  568.095963    0.000000
siesta:     48    0.129332    1.654739    0.000000
siesta:     49   -0.151115   -0.074352    0.000000
siesta:     50    3.062376   -1.340313    0.000000
siesta:     51   -0.835956   -1.383663    0.000000
siesta:     52    1.715756    2.255551    0.000000
siesta:     53    0.289332   -0.211964    0.000000
siesta:     54    0.154073    0.071824    0.000000
siesta:     55    0.180558    0.489814    0.000000
siesta:     56   -1.754017   -3.338907    0.000000
siesta:     57    0.409477    1.752158    0.000000
siesta:     58    0.812521   -1.705133    0.000000
siesta:     59    0.050717    8.076632    0.000000
siesta:     60    0.351703   -6.972556    0.000000
siesta:     61   -0.688776    4.868009    0.000000
siesta:     62   -0.287352    0.202925    0.000000
siesta:     63   -1.727714   -2.228049    0.000000
siesta:     64   -0.146369   -1.652627    0.000000
siesta:     65    0.420124 -568.107865    0.000000
siesta:     66    2.022370   -3.332451    0.000000
siesta:     67   22.846328    5.485137    0.000000
siesta:     68  -22.125182    4.921802    0.000000
siesta:     69   -2.281748   -0.401672    0.000000
siesta:     70    2.890043    0.668737    0.000000
siesta:     71   -0.168929  121.183551    0.000000
siesta:     72    1.401432 -548.812914    0.000000
siesta: ----------------------------------------
siesta:    Tot   -0.037134    0.097148    0.000000

siesta: Stress tensor (static) (eV/Ang**3):
siesta:    -0.393097    0.004254    0.000000
siesta:     0.004254   -2.215164    0.000000
siesta:     0.000000    0.000000   -0.000091

siesta: Cell volume =       1893.226884 Ang**3

siesta: Pressure (static):
siesta:                Solid            Molecule  Units
siesta:           0.00946943          0.15906536  Ry/Bohr**3
siesta:           0.86945051         14.60484067  eV/Ang**3
siesta:        1393.02835124      23399.78738474  kBar
(Free)E+ p_basis*V_orbitals  =      -13387.369832
(Free)Eharris+ p_basis*V_orbitals  =      -13387.370282

siesta: Electric dipole (a.u.)  =    0.000000    0.000000    0.000000
siesta: Electric dipole (Debye) =    0.000000    0.000000    0.000000

* Maximum dynamic memory allocated : Node    0 =   191 MB
* Maximum dynamic memory allocated : Node    1 =    70 MB
* Maximum dynamic memory allocated : Node    2 =    72 MB
* Maximum dynamic memory allocated : Node    3 =   182 MB
* Maximum dynamic memory allocated : Node    4 =   187 MB
* Maximum dynamic memory allocated : Node    5 =    69 MB
* Maximum dynamic memory allocated : Node    6 =    73 MB
* Maximum dynamic memory allocated : Node    7 =   172 MB

* Maximum memory occured during matrixMtoO                    

timer: CPU execution times:
timer:  Routine       Calls   Time/call    Tot.time        %
timer:  siesta            1  124727.924  124727.924   100.00
timer:  Setup             1       3.023       3.023     0.00
timer:  bands             3     268.318     804.954     0.65
timer:  writewave         1       0.019       0.019     0.00
timer:  KSV_init          1       0.000       0.000     0.00
timer:  IterMD            1  123914.079  123914.079    99.35
timer:  hsparse           1       0.235       0.235     0.00
timer:  overlap           1       7.689       7.689     0.01
timer:  IterSCF          30    4125.274  123758.221    99.22
timer:  kinefsm           2       3.951       7.902     0.01
timer:  nlefsm            2      18.225      36.451     0.03
timer:  DHSCF            31      79.914    2477.329     1.99
timer:  DHSCF1            1       0.761       0.761     0.00
timer:  DHSCF2            1      31.803      31.803     0.03
timer:  REORD           250       0.010       2.522     0.00
timer:  POISON           32       2.252      72.056     0.06
timer:  DHSCF3           31      77.876    2414.161     1.94
timer:  rhoofd           31      15.935     493.986     0.40
timer:  cellXC           31       3.458     107.196     0.09
timer:  vmat             31      37.598    1165.528     0.93
timer:  MolMec            2       0.000       0.000     0.00
timer:  diagon           30    4044.008  121320.244    97.27
timer:  c-eigval       7051       6.654   46914.964    37.61
timer:  c-buildHS      7051       0.112     791.528     0.63
timer:  cdiag         13981       6.857   95870.140    76.86
timer:  cdiag1        13981       0.426    5953.068     4.77
timer:  cdiag2        13981       1.904   26622.449    21.34
timer:  cdiag3        13981       3.935   55019.097    44.11
timer:  cdiag4        13981       0.204    2852.861     2.29
timer:  c-eigvec       6930       7.232   50118.642    40.18
timer:  c-buildD       6930       3.615   25053.904    20.09
timer:  DHSCF4            1      28.975      28.975     0.02
timer:  dfscf             1      27.216      27.216     0.02
timer:  overfsm           1       0.398       0.398     0.00
timer:  optical           1       5.121       5.121     0.00
  

elaps: ELAPSED times:
elaps:  Routine       Calls   Time/call    Tot.time        %
elaps:  siesta            1   15607.965   15607.965   100.00
elaps:  Setup             1       0.379       0.379     0.00
elaps:  bands             3      33.590     100.771     0.65
elaps:  writewave         1       0.002       0.002     0.00
elaps:  KSV_init          1       0.000       0.000     0.00
elaps:  IterMD            1   15506.140   15506.140    99.35
elaps:  hsparse           1       0.029       0.029     0.00
elaps:  overlap           1       0.968       0.968     0.01
elaps:  IterSCF          30     516.221   15486.645    99.22
elaps:  kinefsm           2       0.499       0.999     0.01
elaps:  nlefsm            2       2.295       4.591     0.03
elaps:  DHSCF            31      10.118     313.654     2.01
elaps:  DHSCF1            1       0.100       0.100     0.00
elaps:  DHSCF2            1       3.976       3.976     0.03
elaps:  REORD           250       0.001       0.337     0.00
elaps:  POISON           32       0.281       9.003     0.06
elaps:  DHSCF3           31       9.743     302.029     1.94
elaps:  rhoofd           31       4.271     132.388     0.85
elaps:  cellXC           31       0.432      13.384     0.09
elaps:  vmat             31       4.704     145.809     0.93
elaps:  MolMec            2       0.000       0.000     0.00
elaps:  diagon           30     506.059   15181.762    97.27
elaps:  c-eigval       7051       0.832    5869.842    37.61
elaps:  c-buildHS      7051       0.015     108.252     0.69
elaps:  cdiag         13981       0.856   11968.497    76.68
elaps:  cdiag1        13981       0.053     734.969     4.71
elaps:  cdiag2        13981       0.238    3331.183    21.34
elaps:  cdiag3        13981       0.493    6893.474    44.17
elaps:  cdiag4        13981       0.026     366.887     2.35
elaps:  c-eigvec       6930       0.905    6269.868    40.17
elaps:  c-buildD       6930       0.453    3137.085    20.10
elaps:  DHSCF4            1       7.326       7.326     0.05
elaps:  dfscf             1       6.952       6.952     0.04
elaps:  overfsm           1       0.050       0.050     0.00
elaps:  optical           1       0.000       0.000     0.00
  
>> End of run:  21-APR-2016   2:17:26
