Siesta Version:                                        siesta-3.2-pl-3
Architecture  : x86_64-unknown-linux-gnu--unknown
Compiler flags: mpiifort -g -O2 -fPIC -xSSE4.1 -fp-model source -shared-intel 
PARALLEL version

* Running on   12 nodes in parallel
>> Start of run:   1-MAY-2016  12:59:52

                           ***********************       
                           *  WELCOME TO SIESTA  *       
                           ***********************       

reinit: Reading from standard input
************************** Dump of input data file ****************************
#(1) General system descriptors
SystemName            GRP_doping    # Descriptive name of the system
SystemLabel           GRP_doping    # Short name for naming files
%include STRUCT.fdf
%include KPT.fdf
%include BASIS.fdf
#%include TS.fdf # for transiesta calculation
#(4) DFT, Grid, SCF
XC.functional         GGA           # LDA or GGA (default = LDA)
XC.authors            PBE           # CA (Ceperley-Aldr) = PZ
                                    #    (Perdew-Zunger) - LDA - Default
                                    # PW92 (Perdew-Wang-92) - LDA
                                    # PBE (Perdew-Burke-Ernzerhof) - GGA
MeshCutoff            200.000000    Ry      # Default: 50.0 Ry ~ 0.444 Bohr
                                    #         100.0 Ry ~ 0.314 Bohr
MaxSCFIterations      500           # Default: 50
DM.MixingWeight       0.05          # Default: 0.25
DM.NumberPulay        10            # Default: 0
DM.PulayOnFile        F             # SystemLabel.P1, SystemLabel.P2
DM.Tolerance          1.d-4         # Default: 1.d-4
DM.UseSaveDM          .true.        # because of the bug
SCFMustConverge       .true.
NeglNonOverlapInt     F             # Default: F
#(5) Eigenvalue problem: order-N or diagonalization
SolutionMethod        Diagon        # or Transiesta
ElectronicTemperature 300.0 K       # Default: 300.0 K
#(6) Molecular dynamics and relaxations
#MD.TypeOfRun          CG            # Type of dynamics:
#MD.VariableCell       F
#MD.NumCGsteps         0           # 0 for single-point / 100 for gopt
#MD.MaxCGDispl         0.2 Bohr      # Default: 0.2 Bohr
#MD.MaxForceTol        0.02 eV/Ang   # Default: 0.04 eV/Ang
#MD.MaxStressTol       1.0 GPa       # Default: 1.0 GPa
# Geometry Constraints
#%block GeometryConstraints
#	position from 1 to 44
#%endblock GeometryConstraints
BandLinesScale   pi/a
%block BandLines
 1   0.00000000  0.00000000  0.00000000
50   0.00000000  0.07809418  0.00000000
50   0.04509075  0.07809242  0.00000000
20   0.00000000  0.00000000  0.00000000
%endblock BandLines
************************** End of input data file *****************************

reinit: -----------------------------------------------------------------------
reinit: System Name: GRP_doping
reinit: -----------------------------------------------------------------------
reinit: System Label: GRP_doping                                                  
reinit: -----------------------------------------------------------------------

initatom: Reading input for the pseudopotentials and atomic orbitals ----------
 Species number:            1  Label: B Atomic number:           5
 Species number:            2  Label: C Atomic number:           6
Ground state valence configuration:   2s02  2p01
Reading pseudopotential information in formatted form from B.psf

Valence configuration for pseudopotential generation:
2s( 2.00) rc: 1.74
2p( 1.00) rc: 1.74
3d( 0.00) rc: 1.74
4f( 0.00) rc: 1.74
Ground state valence configuration:   2s02  2p02
Reading pseudopotential information in formatted form from C.psf

Valence configuration for pseudopotential generation:
2s( 2.00) rc: 1.54
2p( 2.00) rc: 1.54
3d( 0.00) rc: 1.54
4f( 0.00) rc: 1.54
For B, standard SIESTA heuristics set lmxkb to 3
 (one more than the basis l, including polarization orbitals).
Use PS.lmax or PS.KBprojectors blocks to override.
For C, standard SIESTA heuristics set lmxkb to 3
 (one more than the basis l, including polarization orbitals).
Use PS.lmax or PS.KBprojectors blocks to override.

<basis_specs>
===============================================================================
B                    Z=   5    Mass=  10.810        Charge= 0.17977+309
Lmxo=1 Lmxkb= 3    BasisType=split      Semic=F
L=0  Nsemic=0  Cnfigmx=2
          n=1  nzeta=2  polorb=0
            splnorm:   0.15000    
               vcte:    0.0000    
               rinn:    0.0000    
                rcs:    0.0000      0.0000    
            lambdas:    1.0000      1.0000    
L=1  Nsemic=0  Cnfigmx=2
          n=1  nzeta=2  polorb=1
            splnorm:   0.15000    
               vcte:    0.0000    
               rinn:    0.0000    
                rcs:    0.0000      0.0000    
            lambdas:    1.0000      1.0000    
-------------------------------------------------------------------------------
L=0  Nkbl=1  erefs: 0.17977+309
L=1  Nkbl=1  erefs: 0.17977+309
L=2  Nkbl=1  erefs: 0.17977+309
L=3  Nkbl=1  erefs: 0.17977+309
===============================================================================
</basis_specs>

atom: Called for B                     (Z =   5)

read_vps: Pseudopotential generation method:
read_vps: ATM3      Troullier-Martins                       
Total valence charge:    3.00000

read_vps: Pseudopotential includes a core correction:
read_vps: Pseudo-core for xc-correction

xc_check: Exchange-correlation functional:
xc_check: GGA Perdew, Burke & Ernzerhof 1996
V l=0 = -2*Zval/r beyond r=  1.7165
V l=1 = -2*Zval/r beyond r=  1.7165
V l=2 = -2*Zval/r beyond r=  1.7165
V l=3 = -2*Zval/r beyond r=  1.6951
All V_l potentials equal beyond r=  1.7165
This should be close to max(r_c) in ps generation
All pots = -2*Zval/r beyond r=  1.7165

VLOCAL1: 99.0% of the norm of Vloc inside     14.733 Ry
VLOCAL1: 99.9% of the norm of Vloc inside     33.577 Ry
atom: Maximum radius for 4*pi*r*r*local-pseudopot. charge    2.04484
atom: Maximum radius for r*vlocal+2*Zval:    1.75994
GHOST: No ghost state for L =  0
GHOST: No ghost state for L =  1
GHOST: No ghost state for L =  2
GHOST: No ghost state for L =  3

KBgen: Kleinman-Bylander projectors: 
   l= 0   rc=  1.897051   el= -0.693730   Ekb=  4.595746   kbcos=  0.286105
   l= 1   rc=  1.920920   el= -0.265236   Ekb= -2.350715   kbcos= -0.315747
   l= 2   rc=  2.044840   el=  0.002055   Ekb= -0.690767   kbcos= -0.013822
   l= 3   rc=  2.149707   el=  0.003188   Ekb= -0.315358   kbcos= -0.002055

KBgen: Total number of  Kleinman-Bylander projectors:   16
atom: -------------------------------------------------------------------------

atom: SANKEY-TYPE ORBITALS:
atom: Selected multiple-zeta basis: split     

SPLIT: Orbitals with angular momentum L= 0

SPLIT: Basis orbitals for state 2s

SPLIT: PAO cut-off radius determined from an
SPLIT: energy shift=  0.007350 Ry

   izeta = 1
                 lambda =    1.000000
                     rc =    5.422032
                 energy =   -0.686029
                kinetic =    0.576707
    potential(screened) =   -1.262736
       potential(ionic) =   -3.271094

   izeta = 2
                 rmatch =    4.222573
              splitnorm =    0.150000
                 energy =   -0.602132
                kinetic =    0.858975
    potential(screened) =   -1.461107
       potential(ionic) =   -3.582536

SPLIT: Orbitals with angular momentum L= 1

SPLIT: Basis orbitals for state 2p

SPLIT: PAO cut-off radius determined from an
SPLIT: energy shift=  0.007350 Ry

   izeta = 1
                 lambda =    1.000000
                     rc =    6.790259
                 energy =   -0.258578
                kinetic =    1.481412
    potential(screened) =   -1.739989
       potential(ionic) =   -3.657461

   izeta = 2
                 rmatch =    4.608740
              splitnorm =    0.150000
                 energy =   -0.173757
                kinetic =    2.186690
    potential(screened) =   -2.360447
       potential(ionic) =   -4.464260

POLgen: Perturbative polarization orbital with L=  2

POLgen: Polarization orbital for state 2p

   izeta = 1
                     rc =    6.790259
                 energy =    0.684082
                kinetic =    1.471481
    potential(screened) =   -0.787399
       potential(ionic) =   -2.406985
atom: Total number of Sankey-type orbitals: 13

atm_pop: Valence configuration (for local Pseudopot. screening):
 2s( 2.00)                                                            
 2p( 1.00)                                                            
Vna: chval, zval:    3.00000   3.00000

Vna:  Cut-off radius for the neutral-atom potential:   6.790259
comcore: Pseudo-core radius Rcore=  2.122997

atom: _________________________________________________________________________

<basis_specs>
===============================================================================
C                    Z=   6    Mass=  12.010        Charge= 0.17977+309
Lmxo=1 Lmxkb= 3    BasisType=split      Semic=F
L=0  Nsemic=0  Cnfigmx=2
          n=1  nzeta=2  polorb=0
            splnorm:   0.15000    
               vcte:    0.0000    
               rinn:    0.0000    
                rcs:    0.0000      0.0000    
            lambdas:    1.0000      1.0000    
L=1  Nsemic=0  Cnfigmx=2
          n=1  nzeta=2  polorb=1
            splnorm:   0.15000    
               vcte:    0.0000    
               rinn:    0.0000    
                rcs:    0.0000      0.0000    
            lambdas:    1.0000      1.0000    
-------------------------------------------------------------------------------
L=0  Nkbl=1  erefs: 0.17977+309
L=1  Nkbl=1  erefs: 0.17977+309
L=2  Nkbl=1  erefs: 0.17977+309
L=3  Nkbl=1  erefs: 0.17977+309
===============================================================================
</basis_specs>

atom: Called for C                     (Z =   6)

read_vps: Pseudopotential generation method:
read_vps: ATM3      Troullier-Martins                       
Total valence charge:    4.00000

read_vps: Pseudopotential includes a core correction:
read_vps: Pseudo-core for xc-correction

xc_check: Exchange-correlation functional:
xc_check: GGA Perdew, Burke & Ernzerhof 1996
V l=0 = -2*Zval/r beyond r=  1.5227
V l=1 = -2*Zval/r beyond r=  1.5227
V l=2 = -2*Zval/r beyond r=  1.5227
V l=3 = -2*Zval/r beyond r=  1.5038
All V_l potentials equal beyond r=  1.5227
This should be close to max(r_c) in ps generation
All pots = -2*Zval/r beyond r=  1.5227

VLOCAL1: 99.0% of the norm of Vloc inside     18.722 Ry
VLOCAL1: 99.9% of the norm of Vloc inside     42.668 Ry
atom: Maximum radius for 4*pi*r*r*local-pseudopot. charge    1.83678
atom: Maximum radius for r*vlocal+2*Zval:    1.58088
GHOST: No ghost state for L =  0
GHOST: No ghost state for L =  1
GHOST: No ghost state for L =  2
GHOST: No ghost state for L =  3

KBgen: Kleinman-Bylander projectors: 
   l= 0   rc=  1.704034   el= -1.009801   Ekb=  5.335044   kbcos=  0.316824
   l= 1   rc=  1.704034   el= -0.388707   Ekb= -3.785862   kbcos= -0.366464
   l= 2   rc=  1.791422   el=  0.001971   Ekb= -0.970471   kbcos= -0.009212
   l= 3   rc=  1.859892   el=  0.003065   Ekb= -0.399525   kbcos= -0.001223

KBgen: Total number of  Kleinman-Bylander projectors:   16
atom: -------------------------------------------------------------------------

atom: SANKEY-TYPE ORBITALS:
atom: Selected multiple-zeta basis: split     

SPLIT: Orbitals with angular momentum L= 0

SPLIT: Basis orbitals for state 2s

SPLIT: PAO cut-off radius determined from an
SPLIT: energy shift=  0.007350 Ry

   izeta = 1
                 lambda =    1.000000
                     rc =    4.632753
                 energy =   -1.002270
                kinetic =    0.855760
    potential(screened) =   -1.858031
       potential(ionic) =   -5.417575

   izeta = 2
                 rmatch =    3.431921
              splitnorm =    0.150000
                 energy =   -0.867111
                kinetic =    1.300804
    potential(screened) =   -2.167915
       potential(ionic) =   -5.962684

SPLIT: Orbitals with angular momentum L= 1

SPLIT: Basis orbitals for state 2p

SPLIT: PAO cut-off radius determined from an
SPLIT: energy shift=  0.007350 Ry

   izeta = 1
                 lambda =    1.000000
                     rc =    5.658549
                 energy =   -0.381140
                kinetic =    2.399701
    potential(screened) =   -2.780841
       potential(ionic) =   -6.206085

   izeta = 2
                 rmatch =    3.653288
              splitnorm =    0.150000
                 energy =   -0.249149
                kinetic =    3.542762
    potential(screened) =   -3.791911
       potential(ionic) =   -7.581078

POLgen: Perturbative polarization orbital with L=  2

POLgen: Polarization orbital for state 2p

   izeta = 1
                     rc =    5.658549
                 energy =    1.109913
                kinetic =    2.304789
    potential(screened) =   -1.194876
       potential(ionic) =   -4.013592
atom: Total number of Sankey-type orbitals: 13

atm_pop: Valence configuration (for local Pseudopot. screening):
 2s( 2.00)                                                            
 2p( 2.00)                                                            
Vna: chval, zval:    4.00000   4.00000

Vna:  Cut-off radius for the neutral-atom potential:   5.658549
comcore: Pseudo-core radius Rcore=  1.791422

atom: _________________________________________________________________________

prinput: Basis input ----------------------------------------------------------

PAO.BasisType split     

%block ChemicalSpeciesLabel
    1    5 B                       # Species index, atomic number, species label
    2    6 C                       # Species index, atomic number, species label
%endblock ChemicalSpeciesLabel

%block PAO.Basis                 # Define Basis set
B                     2                    # Species label, number of l-shells
 n=2   0   2                         # n, l, Nzeta 
   5.422      4.223   
   1.000      1.000   
 n=2   1   2 P   1                   # n, l, Nzeta, Polarization, NzetaPol
   6.790      4.609   
   1.000      1.000   
C                     2                    # Species label, number of l-shells
 n=2   0   2                         # n, l, Nzeta 
   4.633      3.432   
   1.000      1.000   
 n=2   1   2 P   1                   # n, l, Nzeta, Polarization, NzetaPol
   5.659      3.653   
   1.000      1.000   
%endblock PAO.Basis

prinput: ----------------------------------------------------------------------

coor:   Atomic-coordinates input format  =     Fractional

siesta: Atomic coordinates (Bohr) and species
siesta:     -2.35420  38.89134   0.00000  1        1
siesta:      2.30256  38.89134   0.00000  1        2
siesta:      9.28770  29.48119   0.00000  1        3
siesta:      2.30256   6.62836   0.00000  1        4
siesta:      4.63094  13.34970   0.00000  1        5
siesta:      9.28770  21.41544   0.00000  1        6
siesta:     -2.35420   6.62836   0.00000  1        7
siesta:     -0.02582  13.34970   0.00000  1        8
siesta:      4.63094  21.41544   0.00000  1        9
siesta:     -4.68258  13.34970   0.00000  1       10
siesta:     -0.02582  21.41544   0.00000  1       11
siesta:     -4.68258  21.41544   0.00000  1       12
siesta:     -9.33934  21.41544   0.00000  1       13
siesta:     -9.33934  29.48119   0.00000  1       14
siesta:      4.63094  29.48119   0.00000  1       15
siesta:     -0.02582  29.48119   0.00000  1       16
siesta:     -4.68258  29.48119   0.00000  1       17
siesta:     -0.02582   2.59549   0.00000  2       18
siesta:     -0.02582   5.28395   0.00000  2       19
siesta:     -2.35420  41.57980   0.00000  2       20
siesta:      2.30256  41.57980   0.00000  2       21
siesta:      4.63094  34.85847   0.00000  2       22
siesta:      4.63094  37.54693   0.00000  2       23
siesta:      6.95932  30.82560   0.00000  2       24
siesta:      6.95932  33.51406   0.00000  2       25
siesta:      9.28770  26.79272   0.00000  2       26
siesta:     -4.68258  34.85847   0.00000  2       27
siesta:     -4.68258  37.54693   0.00000  2       28
siesta:      2.30256   9.31683   0.00000  2       29
siesta:      4.63094  10.66124   0.00000  2       30
siesta:      6.95932  14.69411   0.00000  2       31
siesta:      6.95932  17.38257   0.00000  2       32
siesta:      9.28770  18.72698   0.00000  2       33
siesta:     11.61608  22.75985   0.00000  2       34
siesta:     11.61608  25.44831   0.00000  2       35
siesta:     -2.35420   9.31683   0.00000  2       36
siesta:     -0.02582  10.66124   0.00000  2       37
siesta:      2.30256  14.69411   0.00000  2       38
siesta:      2.30256  17.38257   0.00000  2       39
siesta:      4.63094  18.72698   0.00000  2       40
siesta:      6.95932  22.75985   0.00000  2       41
siesta:      6.95932  25.44831   0.00000  2       42
siesta:     -4.68258  10.66124   0.00000  2       43
siesta:     -2.35420  14.69411   0.00000  2       44
siesta:     -2.35420  17.38257   0.00000  2       45
siesta:     -0.02582  18.72698   0.00000  2       46
siesta:      2.30256  22.75985   0.00000  2       47
siesta:      2.30256  25.44831   0.00000  2       48
siesta:     -7.01096  14.69411   0.00000  2       49
siesta:     -7.01096  17.38257   0.00000  2       50
siesta:     -4.68258  18.72698   0.00000  2       51
siesta:     -2.35420  22.75985   0.00000  2       52
siesta:     -2.35420  25.44831   0.00000  2       53
siesta:     -9.33934  18.72698   0.00000  2       54
siesta:     -7.01096  22.75985   0.00000  2       55
siesta:     -7.01096  25.44831   0.00000  2       56
siesta:    -11.66772  22.75985   0.00000  2       57
siesta:    -11.66772  25.44831   0.00000  2       58
siesta:     -9.33934  26.79272   0.00000  2       59
siesta:      4.63094  26.79272   0.00000  2       60
siesta:     -0.02582  26.79272   0.00000  2       61
siesta:     -4.68258  26.79272   0.00000  2       62
siesta:      2.30256  30.82560   0.00000  2       63
siesta:      2.30256  33.51406   0.00000  2       64
siesta:     -2.35420  30.82560   0.00000  2       65
siesta:     -2.35420  33.51406   0.00000  2       66
siesta:     -7.01096  30.82560   0.00000  2       67
siesta:     -7.01096  33.51406   0.00000  2       68
siesta:     -0.02582  34.85847   0.00000  2       69
siesta:     -0.02582  37.54693   0.00000  2       70
siesta:     -0.02582  42.92421   0.00000  2       71
siesta:     -0.02582  45.61267   0.00000  2       72

siesta: System type = slab      

initatomlists: Number of atoms, orbitals, and projectors:     72   936  1152

siesta: ******************** Simulation parameters ****************************
siesta:
siesta: The following are some of the parameters of the simulation.
siesta: A complete list of the parameters used, including default values,
siesta: can be found in file out.fdf
siesta:
redata: Non-Collinear-spin run           =     F
redata: SpinPolarized (Up/Down) run      =     F
redata: Number of spin components        =     1
redata: Long output                      =     F
redata: Number of Atomic Species         =        2
redata: Charge density info will appear in .RHO file
redata: Write Mulliken Pop.              =     NO
redata: Mesh Cutoff                      =   200.0000  Ry
redata: Net charge of the system         =     0.0000 |e|
redata: Max. number of SCF Iter          =      500
redata: SCF convergence failure will abort job
redata: Performing Pulay mixing using    =    10 iterations
redata: Mix DM in first SCF step ?       =     F
redata: Write Pulay info on disk?        =     F
redata: Discard 1st Pulay DM after  kick =     F
redata: New DM Mixing Weight             =     0.0500
redata: New DM Occupancy tolerance       = 0.000000000001
redata: No kicks to SCF
redata: DM Mixing Weight for Kicks       =     0.5000
redata: DM Tolerance for SCF             =     0.000100
redata: Require Energy convergence for SCF =     F
redata: DM Energy tolerance for SCF      =     0.000100 eV
redata: Require Harris convergence for SCF =     F
redata: DM Harris energy tolerance for SCF =     0.000100 eV
redata: Using Saved Data (generic)   =     F
redata: Use continuation files for DM    =     T
redata: Neglect nonoverlap interactions  =     F
redata: Method of Calculation            =     Diagonalization
redata: Divide and Conquer               =     T
redata: Electronic Temperature           =     0.0019  Ry
redata: Fix the spin of the system       =     F
redata: Dynamics option                  =     Verlet MD run
redata: Initial MD time step             =        1
redata:   Final MD time step             =        1
redata: Length of MD time step           =     1.0000  fs
redata: Initial Temperature of MD run    =     0.0000  K
redata: Perform a MD quench              =     F
redata: ***********************************************************************
Total number of electrons:   271.000000
Total ionic charge:   271.000000

* ProcessorY, Blocksize:    3  24

k-point displ. along   1 input, could be:     0.50    0.00
k-point displ. along   2 input, could be:     0.50    0.00
 Kpoints in:          231 . Kpoints trimmed:          231

siesta: k-grid: Number of k-points =   231
siesta: k-grid: Cutoff (effective) =     5.000 Ang
siesta: k-grid: Supercell and displacements
siesta: k-grid:   21   0   0      0.500
siesta: k-grid:    0  21   0      0.500
siesta: k-grid:    0   0   1      0.000
Naive supercell factors:     2    2    2

superc: Internal auxiliary supercell:     2 x     2 x     2  =       8
superc: Number of atoms, orbitals, and projectors:    576   7488   9216

* Maximum dynamic memory allocated =     4 MB

siesta:                 ==============================
                            Begin MD step =      1
                        ==============================

superc: Internal auxiliary supercell:     2 x     2 x     2  =       8
superc: Number of atoms, orbitals, and projectors:    576   7488   9216

outcell: Unit cell vectors (Ang):
       12.804619    7.392750    0.000000
        0.000000   14.785500    0.000000
        0.000000    0.000000   10.000000

outcell: Cell vector modules (Ang)   :   14.785500   14.785500   10.000000
outcell: Cell angles (23,13,12) (deg):     90.0000     90.0000     60.0000
outcell: Cell volume (Ang**3)        :   1893.2269
New_DM. Step:     1
Initializing Density Matrix...

InitMesh: MESH =   120 x   120 x    90 =     1296000
InitMesh: Mesh cutoff (required, used) =   200.000   223.865 Ry

* Maximum dynamic memory allocated =   158 MB

stepf: Fermi-Dirac step function

siesta: Program's energy decomposition (eV):
siesta: Ebs     =     -5618.309082
siesta: Eions   =     16226.046981
siesta: Ena     =      4321.308115
siesta: Ekin    =      5481.631332
siesta: Enl     =       785.356964
siesta: DEna    =        -0.000009
siesta: DUscf   =         0.000000
siesta: DUext   =         0.000000
siesta: Exc     =     -4190.051749
siesta: eta*DQ  =         0.000000
siesta: Emadel  =         0.000000
siesta: Emeta   =         0.000000
siesta: Emolmec =         0.000000
siesta: Ekinion =         0.000000
siesta: Eharris =     -9615.072350
siesta: Etot    =     -9827.802330
siesta: FreeEng =     -9827.802330

siesta: iscf   Eharris(eV)      E_KS(eV)   FreeEng(eV)   dDmax  Ef(eV)
siesta:    1    -9615.0723    -9827.8023    -9827.8023  6.9414 -8.3586
timer: Routine,Calls,Time,% = IterSCF        1    3053.827  99.59
elaps: Routine,Calls,Wall,% = IterSCF        1     255.091  99.59
siesta:    2   -13407.9800    -8938.4667    -8938.5245 19.2028 -2.9348
siesta:    3    -9598.8335    -9654.3963    -9654.4402  2.1717 -5.9800
siesta:    4    -9545.3211    -9569.5894    -9569.6415  1.4111 -5.5770
siesta:    5    -9483.1749    -9473.9417    -9474.0038  0.7602 -5.0515
siesta:    6    -9473.9791    -9462.2093    -9462.2416  0.7212 -5.1584
siesta:    7    -9468.1475    -9462.2509    -9462.3088  0.9042 -5.2583
siesta:    8    -9465.9944    -9461.1587    -9461.2324  0.6754 -5.3049
siesta:    9    -9459.9967    -9447.7026    -9447.7610  0.5125 -4.8872
siesta:   10    -9461.2368    -9443.8128    -9443.9022  0.4636 -4.8202
siesta:   11    -9457.5785    -9441.7946    -9441.8563  0.8755 -5.1302
siesta:   12    -9457.6588    -9439.4757    -9439.5344  0.7712 -5.1280
siesta:   13    -9456.8951    -9437.7588    -9437.8222  0.5269 -5.1800
siesta:   14    -9456.7213    -9437.2111    -9437.2980  0.5018 -5.2146
siesta:   15    -9456.0655    -9435.9457    -9436.0350  0.4786 -5.2668
siesta:   16    -9455.6671    -9435.2657    -9435.3679  0.2466 -5.2494
siesta:   17    -9455.5396    -9435.8635    -9435.9169  0.5694 -5.2552
siesta:   18    -9455.1145    -9437.6453    -9437.7207  0.3194 -5.2242
siesta:   19    -9455.0304    -9438.9215    -9438.9884  0.3678 -5.2043
siesta:   20    -9454.9537    -9440.6575    -9440.7126  0.1910 -5.2104
siesta:   21    -9454.8558    -9446.7570    -9446.8122  0.1735 -5.2370
siesta:   22    -9454.8000    -9447.7401    -9447.8490  0.1076 -5.2234
siesta:   23    -9454.8680    -9449.0062    -9449.1239  0.2226 -5.2287
siesta:   24    -9454.8155    -9449.4146    -9449.5064  0.1145 -5.2236
siesta:   25    -9454.8107    -9451.2621    -9451.3771  0.1302 -5.2291
siesta:   26    -9454.7960    -9452.6124    -9452.7214  0.0950 -5.2384
siesta:   27    -9454.7951    -9452.6388    -9452.7455  0.0691 -5.2440
siesta:   28    -9454.7735    -9453.3818    -9453.4853  0.0474 -5.2442
siesta:   29    -9454.7620    -9453.4064    -9453.5119  0.0504 -5.2481
siesta:   30    -9454.7502    -9453.9986    -9454.1020  0.0435 -5.2565
siesta:   31    -9454.7433    -9455.4300    -9455.5347  0.0288 -5.2568
siesta:   32    -9454.7402    -9456.0955    -9456.1985  0.0354 -5.2500
siesta:   33    -9454.7422    -9456.3624    -9456.4687  0.0199 -5.2493
siesta:   34    -9454.7408    -9455.6092    -9455.7143  0.0183 -5.2408
siesta:   35    -9454.7406    -9455.1717    -9455.2780  0.0174 -5.2397
siesta:   36    -9454.7408    -9455.0255    -9455.1305  0.0143 -5.2385
siesta:   37    -9454.7387    -9454.8931    -9454.9970  0.0155 -5.2393
siesta:   38    -9454.7384    -9454.9161    -9455.0213  0.0093 -5.2410
siesta:   39    -9454.7380    -9454.8761    -9454.9811  0.0055 -5.2402
siesta:   40    -9454.7374    -9454.8849    -9454.9899  0.0034 -5.2392
siesta:   41    -9454.7374    -9454.8627    -9454.9682  0.0028 -5.2393
siesta:   42    -9454.7373    -9454.8306    -9454.9360  0.0026 -5.2393
siesta:   43    -9454.7374    -9454.7720    -9454.8774  0.0027 -5.2392
siesta:   44    -9454.7373    -9454.7717    -9454.8771  0.0025 -5.2392
siesta:   45    -9454.7373    -9454.7439    -9454.8493  0.0025 -5.2394
siesta:   46    -9454.7372    -9454.7525    -9454.8579  0.0015 -5.2396
siesta:   47    -9454.7371    -9454.7579    -9454.8635  0.0018 -5.2392
siesta:   48    -9454.7372    -9454.7331    -9454.8387  0.0017 -5.2390
siesta:   49    -9454.7371    -9454.7344    -9454.8399  0.0009 -5.2391
siesta:   50    -9454.7372    -9454.7218    -9454.8274  0.0004 -5.2390
siesta:   51    -9454.7372    -9454.7216    -9454.8271  0.0004 -5.2390
siesta:   52    -9454.7372    -9454.7260    -9454.8315  0.0003 -5.2389
siesta:   53    -9454.7372    -9454.7266    -9454.8322  0.0002 -5.2389
siesta:   54    -9454.7371    -9454.7263    -9454.8319  0.0001 -5.2390
siesta:   55    -9454.7372    -9454.7259    -9454.8315  0.0001 -5.2390

siesta: E_KS(eV) =            -9454.7264

siesta: E_KS - E_eggbox =     -9454.7264

siesta: Atomic forces (eV/Ang):
----------------------------------------
   Tot   -0.134864   -0.002965    0.000000
----------------------------------------
   Max  559.923948
   Res  148.302857    sqrt( Sum f_i^2 / 3N )
----------------------------------------
   Max  559.923948    constrained

Stress-tensor-Voigt (kbar):     -759.92    -2658.98       -0.51       -0.48        0.00        0.00
(Free)E + p*V (eV/cell)    -8107.9859
Target enthalpy (eV/cell)    -9454.8320

siesta: Stress tensor (static) (eV/Ang**3):
        -0.474302   -0.000302    0.000000
        -0.000302   -1.659586    0.000000
         0.000000    0.000000   -0.000319

siesta: Pressure (static):       1139.80456687  kBar

siesta: Stress tensor (total) (eV/Ang**3):
        -0.474302   -0.000302    0.000000
        -0.000302   -1.659586    0.000000
         0.000000    0.000000   -0.000319

siesta: Pressure (total):       1139.80456687  kBar

siesta: Temp_ion =       0.000 K

* Maximum dynamic memory allocated =   172 MB
Computing bands...

siesta: Program's energy decomposition (eV):
siesta: Ebs     =     -4191.645587
siesta: Eions   =     16226.046981
siesta: Ena     =      4321.308115
siesta: Ekin    =      8358.930827
siesta: Enl     =      -849.213436
siesta: DEna    =      -803.567068
siesta: DUscf   =       110.120886
siesta: DUext   =         0.000000
siesta: Exc     =     -4366.258779
siesta: eta*DQ  =         0.000000
siesta: Emadel  =         0.000000
siesta: Emeta   =         0.000000
siesta: Emolmec =         0.000000
siesta: Ekinion =         0.000000
siesta: Eharris =     -9454.737152
siesta: Etot    =     -9454.726436
siesta: FreeEng =     -9454.831995

siesta: Final energy (eV):
siesta:  Band Struct. =   -4191.645587
siesta:       Kinetic =    8358.930827
siesta:       Hartree =   26949.917116
siesta:    Ext. field =       0.000000
siesta:   Exch.-corr. =   -4366.258779
siesta:  Ion-electron =  -61929.413280
siesta:       Ion-ion =   21532.097681
siesta:       Ekinion =       0.000000
siesta:         Total =   -9454.726436

siesta: Atomic forces (eV/Ang):
siesta:      1   -0.518643  114.317286    0.000000
siesta:      2    0.411455  114.312130    0.000000
siesta:      3    0.154765    0.832219    0.000000
siesta:      4    9.389406  402.704181    0.000000
siesta:      5   20.510500   -1.478460    0.000000
siesta:      6    2.929324   -1.566383    0.000000
siesta:      7   -9.419105  402.768061    0.000000
siesta:      8    0.013045 -117.771380    0.000000
siesta:      9   -0.330292    1.162215    0.000000
siesta:     10  -20.518719   -1.454652    0.000000
siesta:     11    0.003743    2.119591    0.000000
siesta:     12    0.342363    1.162053    0.000000
siesta:     13   -2.919523   -1.557776    0.000000
siesta:     14   -0.144898    0.817126    0.000000
siesta:     15   -0.989681   -0.068935    0.000000
siesta:     16    0.009507 -418.463435    0.000000
siesta:     17    1.010488   -0.053265    0.000000
siesta:     18   -0.018365  412.206024    0.000000
siesta:     19    0.015185 -108.299590    0.000000
siesta:     20  -14.884371 -544.412174    0.000000
siesta:     21   14.880616 -544.368213    0.000000
siesta:     22   25.709143    0.889076    0.000000
siesta:     23   28.407906 -548.696415    0.000000
siesta:     24    3.452925    5.699708    0.000000
siesta:     25   -2.044395    1.435104    0.000000
siesta:     26    3.841797   -1.285007    0.000000
siesta:     27  -25.706751    0.889091    0.000000
siesta:     28  -28.392272 -548.684006    0.000000
siesta:     29    3.399043 -125.303326    0.000000
siesta:     30   32.435034  547.526803    0.000000
siesta:     31   -0.662228   -0.617222    0.000000
siesta:     32    2.835206   -1.078088    0.000000
siesta:     33   -1.721657   -4.128411    0.000000
siesta:     34    2.963287    8.255613    0.000000
siesta:     35   -0.071432   -5.564743    0.000000
siesta:     36   -3.440825 -125.319909    0.000000
siesta:     37    0.016305  548.757493    0.000000
siesta:     38   27.415573  550.855642    0.000000
siesta:     39   21.938487   -5.538821    0.000000
siesta:     40   -1.412247   -2.600360    0.000000
siesta:     41    0.296150    4.276129    0.000000
siesta:     42   -0.945565   -1.554438    0.000000
siesta:     43  -32.435226  547.518491    0.000000
siesta:     44  -27.397483  550.874646    0.000000
siesta:     45  -21.992760   -5.522281    0.000000
siesta:     46    0.006217  559.923948    0.000000
siesta:     47   -0.208585    2.119144    0.000000
siesta:     48   -0.270346   -0.329290    0.000000
siesta:     49    0.671328   -0.650782    0.000000
siesta:     50   -2.834053   -1.073387    0.000000
siesta:     51    1.413643   -2.570337    0.000000
siesta:     52    0.214640    2.110771    0.000000
siesta:     53    0.275745   -0.305681    0.000000
siesta:     54    1.722841   -4.121503    0.000000
siesta:     55   -0.293370    4.272055    0.000000
siesta:     56    0.926783   -1.573245    0.000000
siesta:     57   -2.947886    8.254479    0.000000
siesta:     58    0.079172   -5.573186    0.000000
siesta:     59   -3.841691   -1.292416    0.000000
siesta:     60   -0.055587   -3.446520    0.000000
siesta:     61   -0.012835   -1.802520    0.000000
siesta:     62    0.063361   -3.437618    0.000000
siesta:     63   18.419882    0.552089    0.000000
siesta:     64   34.440744 -407.726749    0.000000
siesta:     65  -18.432221    0.548003    0.000000
siesta:     66  -34.436140 -407.759276    0.000000
siesta:     67   -3.437167    5.693740    0.000000
siesta:     68    2.039102    1.441198    0.000000
siesta:     69   -0.024086  122.058473    0.000000
siesta:     70   -0.022780 -546.205872    0.000000
siesta:     71    0.003510  130.666441    0.000000
siesta:     72   -0.009900 -553.766313    0.000000
siesta: ----------------------------------------
siesta:    Tot   -0.134864   -0.002965    0.000000

siesta: Stress tensor (static) (eV/Ang**3):
siesta:    -0.474302   -0.000302    0.000000
siesta:    -0.000302   -1.659586    0.000000
siesta:     0.000000    0.000000   -0.000319

siesta: Cell volume =       1893.226884 Ang**3

siesta: Pressure (static):
siesta:                Solid            Molecule  Units
siesta:           0.00774808          0.11447885  Ry/Bohr**3
siesta:           0.71140237         10.51105834  eV/Ang**3
siesta:        1139.80456687      16840.75410355  kBar
(Free)E+ p_basis*V_orbitals  =       -9418.723170
(Free)Eharris+ p_basis*V_orbitals  =       -9418.734375

siesta: Electric dipole (a.u.)  =    0.000000    0.000000    0.000000
siesta: Electric dipole (Debye) =    0.000000    0.000000    0.000000

* Maximum dynamic memory allocated : Node    0 =   172 MB
* Maximum dynamic memory allocated : Node    1 =    69 MB
* Maximum dynamic memory allocated : Node    2 =    71 MB
* Maximum dynamic memory allocated : Node    3 =   158 MB
* Maximum dynamic memory allocated : Node    4 =   169 MB
* Maximum dynamic memory allocated : Node    5 =    63 MB
* Maximum dynamic memory allocated : Node    6 =    63 MB
* Maximum dynamic memory allocated : Node    7 =   159 MB
* Maximum dynamic memory allocated : Node    8 =   154 MB
* Maximum dynamic memory allocated : Node    9 =    62 MB
* Maximum dynamic memory allocated : Node   10 =    63 MB
* Maximum dynamic memory allocated : Node   11 =   145 MB

* Maximum memory occured during matrixMtoO                    

timer: CPU execution times:
timer:  Routine       Calls   Time/call    Tot.time        %
timer:  siesta            1  162738.728  162738.728   100.00
timer:  Setup             1       3.347       3.347     0.00
timer:  bands             3     225.642     676.925     0.42
timer:  writewave         1       0.023       0.023     0.00
timer:  KSV_init          1       0.003       0.003     0.00
timer:  IterMD            1  162051.540  162051.540    99.58
timer:  hsparse           1       0.283       0.283     0.00
timer:  overlap           1       7.616       7.616     0.00
timer:  IterSCF          55    2943.487  161891.784    99.48
timer:  kinefsm           2       3.879       7.757     0.00
timer:  nlefsm            2      20.319      40.637     0.02
timer:  DHSCF            56      81.361    4556.240     2.80
timer:  DHSCF1            1       1.191       1.191     0.00
timer:  DHSCF2            1      33.131      33.131     0.02
timer:  REORD           450       0.002       1.020     0.00
timer:  POISON           57       0.453      25.817     0.02
timer:  DHSCF3           56      80.233    4493.064     2.76
timer:  rhoofd           56      17.429     976.044     0.60
timer:  cellXC           56       2.448     137.092     0.08
timer:  vmat             56      38.129    2135.228     1.31
timer:  MolMec            2       0.000       0.000     0.00
timer:  diagon           55    2861.136  157362.467    96.70
timer:  c-eigval      12826       5.580   71570.020    43.98
timer:  c-buildHS     12826       0.036     465.934     0.29
timer:  cdiag         25531       5.674  144858.203    89.01
timer:  cdiag1        25531       0.259    6622.611     4.07
timer:  cdiag2        25531       1.833   46785.895    28.75
timer:  cdiag3        25531       3.377   86228.838    52.99
timer:  cdiag4        25531       0.086    2196.057     1.35
timer:  c-eigvec      12705       5.836   74142.261    45.56
timer:  c-buildD      12705       0.965   12256.526     7.53
timer:  DHSCF4            1      28.519      28.519     0.02
timer:  dfscf             1      26.404      26.404     0.02
timer:  overfsm           1       0.327       0.327     0.00
timer:  optical           1       6.312       6.312     0.00
  

elaps: ELAPSED times:
elaps:  Routine       Calls   Time/call    Tot.time        %
elaps:  siesta            1   13593.446   13593.446   100.00
elaps:  Setup             1       0.280       0.280     0.00
elaps:  bands             3      18.864      56.591     0.42
elaps:  writewave         1       0.002       0.002     0.00
elaps:  KSV_init          1       0.000       0.000     0.00
elaps:  IterMD            1   13536.045   13536.045    99.58
elaps:  hsparse           1       0.028       0.028     0.00
elaps:  overlap           1       0.721       0.721     0.01
elaps:  IterSCF          55     245.867   13522.701    99.48
elaps:  kinefsm           2       0.368       0.736     0.01
elaps:  nlefsm            2       1.769       3.538     0.03
elaps:  DHSCF            56       6.837     382.888     2.82
elaps:  DHSCF1            1       0.101       0.101     0.00
elaps:  DHSCF2            1       2.766       2.766     0.02
elaps:  REORD           450       0.000       0.133     0.00
elaps:  POISON           57       0.038       2.167     0.02
elaps:  DHSCF3           56       6.703     375.372     2.76
elaps:  rhoofd           56       3.081     172.517     1.27
elaps:  cellXC           56       0.204      11.424     0.08
elaps:  vmat             56       3.186     178.422     1.31
elaps:  MolMec            2       0.000       0.000     0.00
elaps:  diagon           55     238.994   13144.695    96.70
elaps:  c-eigval      12826       0.466    5978.101    43.98
elaps:  c-buildHS     12826       0.004      49.473     0.36
elaps:  cdiag         25531       0.469   11979.782    88.13
elaps:  cdiag1        25531       0.021     542.261     3.99
elaps:  cdiag2        25531       0.153    3911.540    28.78
elaps:  cdiag3        25531       0.283    7212.848    53.06
elaps:  cdiag4        25531       0.007     177.137     1.30
elaps:  c-eigvec      12705       0.480    6092.894    44.82
elaps:  c-buildD      12705       0.088    1123.652     8.27
elaps:  DHSCF4            1       4.592       4.592     0.03
elaps:  dfscf             1       4.331       4.331     0.03
elaps:  overfsm           1       0.035       0.035     0.00
elaps:  optical           1       0.000       0.000     0.00
  
>> End of run:   1-MAY-2016  16:46:26
