Siesta Version:                                        siesta-3.2-pl-3
Architecture  : x86_64-unknown-linux-gnu--unknown
Compiler flags: mpiifort -g -O2 -fPIC -xSSE4.1 -fp-model source -shared-intel 
PARALLEL version

* Running on    8 nodes in parallel
>> Start of run:  24-APR-2016   0:50:23

                           ***********************       
                           *  WELCOME TO SIESTA  *       
                           ***********************       

reinit: Reading from standard input
************************** Dump of input data file ****************************
#(1) General system descriptors
SystemName            GRP_doping    # Descriptive name of the system
SystemLabel           GRP_doping    # Short name for naming files
%include STRUCT.fdf
%include KPT.fdf
%include BASIS.fdf
#%include TS.fdf # for transiesta calculation
#(4) DFT, Grid, SCF
XC.functional         GGA           # LDA or GGA (default = LDA)
XC.authors            PBE           # CA (Ceperley-Aldr) = PZ
                                    #    (Perdew-Zunger) - LDA - Default
                                    # PW92 (Perdew-Wang-92) - LDA
                                    # PBE (Perdew-Burke-Ernzerhof) - GGA
MeshCutoff            200.000000    Ry      # Default: 50.0 Ry ~ 0.444 Bohr
                                    #         100.0 Ry ~ 0.314 Bohr
MaxSCFIterations      500           # Default: 50
DM.MixingWeight       0.05          # Default: 0.25
DM.NumberPulay        10            # Default: 0
DM.PulayOnFile        F             # SystemLabel.P1, SystemLabel.P2
DM.Tolerance          1.d-4         # Default: 1.d-4
DM.UseSaveDM          .true.        # because of the bug
SCFMustConverge       .true.
NeglNonOverlapInt     F             # Default: F
#(5) Eigenvalue problem: order-N or diagonalization
SolutionMethod        Diagon        # or Transiesta
ElectronicTemperature 300.0 K       # Default: 300.0 K
#(6) Molecular dynamics and relaxations
#MD.TypeOfRun          CG            # Type of dynamics:
#MD.VariableCell       F
#MD.NumCGsteps         0           # 0 for single-point / 100 for gopt
#MD.MaxCGDispl         0.2 Bohr      # Default: 0.2 Bohr
#MD.MaxForceTol        0.02 eV/Ang   # Default: 0.04 eV/Ang
#MD.MaxStressTol       1.0 GPa       # Default: 1.0 GPa
# Geometry Constraints
#%block GeometryConstraints
#	position from 1 to 44
#%endblock GeometryConstraints
BandLinesScale   pi/a
%block BandLines
 1   0.00000000  0.00000000  0.00000000
50   0.00000000  0.07809418  0.00000000
50   0.04509075  0.07809242  0.00000000
20   0.00000000  0.00000000  0.00000000
%endblock BandLines
************************** End of input data file *****************************

reinit: -----------------------------------------------------------------------
reinit: System Name: GRP_doping
reinit: -----------------------------------------------------------------------
reinit: System Label: GRP_doping                                                  
reinit: -----------------------------------------------------------------------

initatom: Reading input for the pseudopotentials and atomic orbitals ----------
 Species number:            1  Label: N Atomic number:           7
 Species number:            2  Label: C Atomic number:           6
Ground state valence configuration:   2s02  2p03
Reading pseudopotential information in formatted form from N.psf

Valence configuration for pseudopotential generation:
2s( 2.00) rc: 1.48
2p( 3.00) rc: 1.48
3d( 0.00) rc: 1.48
4f( 0.00) rc: 1.48
Ground state valence configuration:   2s02  2p02
Reading pseudopotential information in formatted form from C.psf

Valence configuration for pseudopotential generation:
2s( 2.00) rc: 1.54
2p( 2.00) rc: 1.54
3d( 0.00) rc: 1.54
4f( 0.00) rc: 1.54
For N, standard SIESTA heuristics set lmxkb to 3
 (one more than the basis l, including polarization orbitals).
Use PS.lmax or PS.KBprojectors blocks to override.
For C, standard SIESTA heuristics set lmxkb to 3
 (one more than the basis l, including polarization orbitals).
Use PS.lmax or PS.KBprojectors blocks to override.

<basis_specs>
===============================================================================
N                    Z=   7    Mass=  14.010        Charge= 0.17977+309
Lmxo=1 Lmxkb= 3    BasisType=split      Semic=F
L=0  Nsemic=0  Cnfigmx=2
          n=1  nzeta=2  polorb=0
            splnorm:   0.15000    
               vcte:    0.0000    
               rinn:    0.0000    
                rcs:    0.0000      0.0000    
            lambdas:    1.0000      1.0000    
L=1  Nsemic=0  Cnfigmx=2
          n=1  nzeta=2  polorb=1
            splnorm:   0.15000    
               vcte:    0.0000    
               rinn:    0.0000    
                rcs:    0.0000      0.0000    
            lambdas:    1.0000      1.0000    
-------------------------------------------------------------------------------
L=0  Nkbl=1  erefs: 0.17977+309
L=1  Nkbl=1  erefs: 0.17977+309
L=2  Nkbl=1  erefs: 0.17977+309
L=3  Nkbl=1  erefs: 0.17977+309
===============================================================================
</basis_specs>

atom: Called for N                     (Z =   7)

read_vps: Pseudopotential generation method:
read_vps: ATM3      Troullier-Martins                       
Total valence charge:    5.00000

read_vps: Pseudopotential includes a core correction:
read_vps: Pseudo-core for xc-correction

xc_check: Exchange-correlation functional:
xc_check: GGA Perdew, Burke & Ernzerhof 1996
V l=0 = -2*Zval/r beyond r=  1.4606
V l=1 = -2*Zval/r beyond r=  1.4606
V l=2 = -2*Zval/r beyond r=  1.4606
V l=3 = -2*Zval/r beyond r=  1.4606
All V_l potentials equal beyond r=  1.4606
This should be close to max(r_c) in ps generation
All pots = -2*Zval/r beyond r=  1.4606

VLOCAL1: 99.0% of the norm of Vloc inside     20.347 Ry
VLOCAL1: 99.9% of the norm of Vloc inside     46.372 Ry
atom: Maximum radius for 4*pi*r*r*local-pseudopot. charge    1.76189
atom: Maximum radius for r*vlocal+2*Zval:    1.53550
GHOST: No ghost state for L =  0
GHOST: No ghost state for L =  1
GHOST: No ghost state for L =  2
GHOST: No ghost state for L =  3

KBgen: Kleinman-Bylander projectors: 
   l= 0   rc=  1.634559   el= -1.363963   Ekb=  5.296955   kbcos=  0.335621
   l= 1   rc=  1.614250   el= -0.521451   Ekb= -5.259161   kbcos= -0.433408
   l= 2   rc=  1.718383   el=  0.001991   Ekb= -1.271464   kbcos= -0.007566
   l= 3   rc=  1.761893   el=  0.003093   Ekb= -0.494769   kbcos= -0.001015

KBgen: Total number of  Kleinman-Bylander projectors:   16
atom: -------------------------------------------------------------------------

atom: SANKEY-TYPE ORBITALS:
atom: Selected multiple-zeta basis: split     

SPLIT: Orbitals with angular momentum L= 0

SPLIT: Basis orbitals for state 2s

SPLIT: PAO cut-off radius determined from an
SPLIT: energy shift=  0.007350 Ry

   izeta = 1
                 lambda =    1.000000
                     rc =    4.071465
                 energy =   -1.356470
                kinetic =    1.176977
    potential(screened) =   -2.533447
       potential(ionic) =   -8.057990

   izeta = 2
                 rmatch =    2.905100
              splitnorm =    0.150000
                 energy =   -1.158343
                kinetic =    1.813009
    potential(screened) =   -2.971352
       potential(ionic) =   -8.901931

SPLIT: Orbitals with angular momentum L= 1

SPLIT: Basis orbitals for state 2p

SPLIT: PAO cut-off radius determined from an
SPLIT: energy shift=  0.007350 Ry

   izeta = 1
                 lambda =    1.000000
                     rc =    4.972977
                 energy =   -0.513884
                kinetic =    3.441732
    potential(screened) =   -3.955616
       potential(ionic) =   -9.287901

   izeta = 2
                 rmatch =    3.054066
              splitnorm =    0.150000
                 energy =   -0.318226
                kinetic =    5.125348
    potential(screened) =   -5.443573
       potential(ionic) =  -11.380999

POLgen: Perturbative polarization orbital with L=  2

POLgen: Polarization orbital for state 2p

   izeta = 1
                     rc =    4.972977
                 energy =    1.607437
                kinetic =    3.268125
    potential(screened) =   -1.660688
       potential(ionic) =   -5.973652
atom: Total number of Sankey-type orbitals: 13

atm_pop: Valence configuration (for local Pseudopot. screening):
 2s( 2.00)                                                            
 2p( 3.00)                                                            
Vna: chval, zval:    5.00000   5.00000

Vna:  Cut-off radius for the neutral-atom potential:   4.972977
comcore: Pseudo-core radius Rcore=  1.554824

atom: _________________________________________________________________________

<basis_specs>
===============================================================================
C                    Z=   6    Mass=  12.010        Charge= 0.17977+309
Lmxo=1 Lmxkb= 3    BasisType=split      Semic=F
L=0  Nsemic=0  Cnfigmx=2
          n=1  nzeta=2  polorb=0
            splnorm:   0.15000    
               vcte:    0.0000    
               rinn:    0.0000    
                rcs:    0.0000      0.0000    
            lambdas:    1.0000      1.0000    
L=1  Nsemic=0  Cnfigmx=2
          n=1  nzeta=2  polorb=1
            splnorm:   0.15000    
               vcte:    0.0000    
               rinn:    0.0000    
                rcs:    0.0000      0.0000    
            lambdas:    1.0000      1.0000    
-------------------------------------------------------------------------------
L=0  Nkbl=1  erefs: 0.17977+309
L=1  Nkbl=1  erefs: 0.17977+309
L=2  Nkbl=1  erefs: 0.17977+309
L=3  Nkbl=1  erefs: 0.17977+309
===============================================================================
</basis_specs>

atom: Called for C                     (Z =   6)

read_vps: Pseudopotential generation method:
read_vps: ATM3      Troullier-Martins                       
Total valence charge:    4.00000

read_vps: Pseudopotential includes a core correction:
read_vps: Pseudo-core for xc-correction

xc_check: Exchange-correlation functional:
xc_check: GGA Perdew, Burke & Ernzerhof 1996
V l=0 = -2*Zval/r beyond r=  1.5227
V l=1 = -2*Zval/r beyond r=  1.5227
V l=2 = -2*Zval/r beyond r=  1.5227
V l=3 = -2*Zval/r beyond r=  1.5038
All V_l potentials equal beyond r=  1.5227
This should be close to max(r_c) in ps generation
All pots = -2*Zval/r beyond r=  1.5227

VLOCAL1: 99.0% of the norm of Vloc inside     18.722 Ry
VLOCAL1: 99.9% of the norm of Vloc inside     42.668 Ry
atom: Maximum radius for 4*pi*r*r*local-pseudopot. charge    1.83678
atom: Maximum radius for r*vlocal+2*Zval:    1.58088
GHOST: No ghost state for L =  0
GHOST: No ghost state for L =  1
GHOST: No ghost state for L =  2
GHOST: No ghost state for L =  3

KBgen: Kleinman-Bylander projectors: 
   l= 0   rc=  1.704034   el= -1.009801   Ekb=  5.335044   kbcos=  0.316824
   l= 1   rc=  1.704034   el= -0.388707   Ekb= -3.785862   kbcos= -0.366464
   l= 2   rc=  1.791422   el=  0.001971   Ekb= -0.970471   kbcos= -0.009212
   l= 3   rc=  1.859892   el=  0.003065   Ekb= -0.399525   kbcos= -0.001223

KBgen: Total number of  Kleinman-Bylander projectors:   16
atom: -------------------------------------------------------------------------

atom: SANKEY-TYPE ORBITALS:
atom: Selected multiple-zeta basis: split     

SPLIT: Orbitals with angular momentum L= 0

SPLIT: Basis orbitals for state 2s

SPLIT: PAO cut-off radius determined from an
SPLIT: energy shift=  0.007350 Ry

   izeta = 1
                 lambda =    1.000000
                     rc =    4.632753
                 energy =   -1.002270
                kinetic =    0.855760
    potential(screened) =   -1.858031
       potential(ionic) =   -5.417575

   izeta = 2
                 rmatch =    3.431921
              splitnorm =    0.150000
                 energy =   -0.867111
                kinetic =    1.300804
    potential(screened) =   -2.167915
       potential(ionic) =   -5.962684

SPLIT: Orbitals with angular momentum L= 1

SPLIT: Basis orbitals for state 2p

SPLIT: PAO cut-off radius determined from an
SPLIT: energy shift=  0.007350 Ry

   izeta = 1
                 lambda =    1.000000
                     rc =    5.658549
                 energy =   -0.381140
                kinetic =    2.399701
    potential(screened) =   -2.780841
       potential(ionic) =   -6.206085

   izeta = 2
                 rmatch =    3.653288
              splitnorm =    0.150000
                 energy =   -0.249149
                kinetic =    3.542762
    potential(screened) =   -3.791911
       potential(ionic) =   -7.581078

POLgen: Perturbative polarization orbital with L=  2

POLgen: Polarization orbital for state 2p

   izeta = 1
                     rc =    5.658549
                 energy =    1.109913
                kinetic =    2.304789
    potential(screened) =   -1.194876
       potential(ionic) =   -4.013592
atom: Total number of Sankey-type orbitals: 13

atm_pop: Valence configuration (for local Pseudopot. screening):
 2s( 2.00)                                                            
 2p( 2.00)                                                            
Vna: chval, zval:    4.00000   4.00000

Vna:  Cut-off radius for the neutral-atom potential:   5.658549
comcore: Pseudo-core radius Rcore=  1.791422

atom: _________________________________________________________________________

prinput: Basis input ----------------------------------------------------------

PAO.BasisType split     

%block ChemicalSpeciesLabel
    1    7 N                       # Species index, atomic number, species label
    2    6 C                       # Species index, atomic number, species label
%endblock ChemicalSpeciesLabel

%block PAO.Basis                 # Define Basis set
N                     2                    # Species label, number of l-shells
 n=2   0   2                         # n, l, Nzeta 
   4.071      2.905   
   1.000      1.000   
 n=2   1   2 P   1                   # n, l, Nzeta, Polarization, NzetaPol
   4.973      3.054   
   1.000      1.000   
C                     2                    # Species label, number of l-shells
 n=2   0   2                         # n, l, Nzeta 
   4.633      3.432   
   1.000      1.000   
 n=2   1   2 P   1                   # n, l, Nzeta, Polarization, NzetaPol
   5.659      3.653   
   1.000      1.000   
%endblock PAO.Basis

prinput: ----------------------------------------------------------------------

coor:   Atomic-coordinates input format  =     Fractional

siesta: Atomic coordinates (Bohr) and species
siesta:     -2.35420  38.89134   0.00000  1        1
siesta:     -2.35420  41.57980   0.00000  1        2
siesta:      2.30256  38.89134   0.00000  1        3
siesta:      2.30256  41.57980   0.00000  1        4
siesta:     -4.68258  34.85847   0.00000  1        5
siesta:     -4.68258  37.54693   0.00000  1        6
siesta:     -9.33934  18.72698   0.00000  1        7
siesta:     -9.33934  21.41544   0.00000  1        8
siesta:     -7.01096  22.75985   0.00000  1        9
siesta:     -7.01096  25.44831   0.00000  1       10
siesta:    -11.66772  22.75985   0.00000  1       11
siesta:    -11.66772  25.44831   0.00000  1       12
siesta:     -9.33934  26.79272   0.00000  1       13
siesta:     -9.33934  29.48119   0.00000  1       14
siesta:     -4.68258  26.79272   0.00000  1       15
siesta:     -4.68258  29.48119   0.00000  1       16
siesta:     -2.35420  30.82560   0.00000  1       17
siesta:     -2.35420  33.51406   0.00000  1       18
siesta:     -7.01096  30.82560   0.00000  1       19
siesta:     -7.01096  33.51406   0.00000  1       20
siesta:     -0.02582  34.85847   0.00000  1       21
siesta:     -0.02582  37.54693   0.00000  1       22
siesta:     -0.02582  42.92421   0.00000  1       23
siesta:     -0.02582  45.61267   0.00000  1       24
siesta:     -0.02582   2.59549   0.00000  2       25
siesta:     -0.02582   5.28395   0.00000  2       26
siesta:      4.63094  34.85847   0.00000  2       27
siesta:      4.63094  37.54693   0.00000  2       28
siesta:      6.95932  30.82560   0.00000  2       29
siesta:      6.95932  33.51406   0.00000  2       30
siesta:      9.28770  26.79272   0.00000  2       31
siesta:      9.28770  29.48119   0.00000  2       32
siesta:      2.30256   6.62836   0.00000  2       33
siesta:      2.30256   9.31683   0.00000  2       34
siesta:      4.63094  10.66124   0.00000  2       35
siesta:      4.63094  13.34970   0.00000  2       36
siesta:      6.95932  14.69411   0.00000  2       37
siesta:      6.95932  17.38257   0.00000  2       38
siesta:      9.28770  18.72698   0.00000  2       39
siesta:      9.28770  21.41544   0.00000  2       40
siesta:     11.61608  22.75985   0.00000  2       41
siesta:     11.61608  25.44831   0.00000  2       42
siesta:     -2.35420   6.62836   0.00000  2       43
siesta:     -2.35420   9.31683   0.00000  2       44
siesta:     -0.02582  10.66124   0.00000  2       45
siesta:     -0.02582  13.34970   0.00000  2       46
siesta:      2.30256  14.69411   0.00000  2       47
siesta:      2.30256  17.38257   0.00000  2       48
siesta:      4.63094  18.72698   0.00000  2       49
siesta:      4.63094  21.41544   0.00000  2       50
siesta:      6.95932  22.75985   0.00000  2       51
siesta:      6.95932  25.44831   0.00000  2       52
siesta:     -4.68258  10.66124   0.00000  2       53
siesta:     -4.68258  13.34970   0.00000  2       54
siesta:     -2.35420  14.69411   0.00000  2       55
siesta:     -2.35420  17.38257   0.00000  2       56
siesta:     -0.02582  18.72698   0.00000  2       57
siesta:     -0.02582  21.41544   0.00000  2       58
siesta:      2.30256  22.75985   0.00000  2       59
siesta:      2.30256  25.44831   0.00000  2       60
siesta:     -7.01096  14.69411   0.00000  2       61
siesta:     -7.01096  17.38257   0.00000  2       62
siesta:     -4.68258  18.72698   0.00000  2       63
siesta:     -4.68258  21.41544   0.00000  2       64
siesta:     -2.35420  22.75985   0.00000  2       65
siesta:     -2.35420  25.44831   0.00000  2       66
siesta:      4.63094  26.79272   0.00000  2       67
siesta:      4.63094  29.48119   0.00000  2       68
siesta:     -0.02582  26.79272   0.00000  2       69
siesta:     -0.02582  29.48119   0.00000  2       70
siesta:      2.30256  30.82560   0.00000  2       71
siesta:      2.30256  33.51406   0.00000  2       72

siesta: System type = slab      

initatomlists: Number of atoms, orbitals, and projectors:     72   936  1152

siesta: ******************** Simulation parameters ****************************
siesta:
siesta: The following are some of the parameters of the simulation.
siesta: A complete list of the parameters used, including default values,
siesta: can be found in file out.fdf
siesta:
redata: Non-Collinear-spin run           =     F
redata: SpinPolarized (Up/Down) run      =     F
redata: Number of spin components        =     1
redata: Long output                      =     F
redata: Number of Atomic Species         =        2
redata: Charge density info will appear in .RHO file
redata: Write Mulliken Pop.              =     NO
redata: Mesh Cutoff                      =   200.0000  Ry
redata: Net charge of the system         =     0.0000 |e|
redata: Max. number of SCF Iter          =      500
redata: SCF convergence failure will abort job
redata: Performing Pulay mixing using    =    10 iterations
redata: Mix DM in first SCF step ?       =     F
redata: Write Pulay info on disk?        =     F
redata: Discard 1st Pulay DM after  kick =     F
redata: New DM Mixing Weight             =     0.0500
redata: New DM Occupancy tolerance       = 0.000000000001
redata: No kicks to SCF
redata: DM Mixing Weight for Kicks       =     0.5000
redata: DM Tolerance for SCF             =     0.000100
redata: Require Energy convergence for SCF =     F
redata: DM Energy tolerance for SCF      =     0.000100 eV
redata: Require Harris convergence for SCF =     F
redata: DM Harris energy tolerance for SCF =     0.000100 eV
redata: Using Saved Data (generic)   =     F
redata: Use continuation files for DM    =     T
redata: Neglect nonoverlap interactions  =     F
redata: Method of Calculation            =     Diagonalization
redata: Divide and Conquer               =     T
redata: Electronic Temperature           =     0.0019  Ry
redata: Fix the spin of the system       =     F
redata: Dynamics option                  =     Verlet MD run
redata: Initial MD time step             =        1
redata:   Final MD time step             =        1
redata: Length of MD time step           =     1.0000  fs
redata: Initial Temperature of MD run    =     0.0000  K
redata: Perform a MD quench              =     F
redata: ***********************************************************************
Total number of electrons:   312.000000
Total ionic charge:   312.000000

* ProcessorY, Blocksize:    2  24

k-point displ. along   1 input, could be:     0.50    0.00
k-point displ. along   2 input, could be:     0.50    0.00
 Kpoints in:          231 . Kpoints trimmed:          231

siesta: k-grid: Number of k-points =   231
siesta: k-grid: Cutoff (effective) =     5.000 Ang
siesta: k-grid: Supercell and displacements
siesta: k-grid:   21   0   0      0.500
siesta: k-grid:    0  21   0      0.500
siesta: k-grid:    0   0   1      0.000
Naive supercell factors:     2    2    2

superc: Internal auxiliary supercell:     2 x     2 x     2  =       8
superc: Number of atoms, orbitals, and projectors:    576   7488   9216

* Maximum dynamic memory allocated =     4 MB

siesta:                 ==============================
                            Begin MD step =      1
                        ==============================

superc: Internal auxiliary supercell:     2 x     2 x     2  =       8
superc: Number of atoms, orbitals, and projectors:    576   7488   9216

outcell: Unit cell vectors (Ang):
       12.804619    7.392750    0.000000
        0.000000   14.785500    0.000000
        0.000000    0.000000   10.000000

outcell: Cell vector modules (Ang)   :   14.785500   14.785500   10.000000
outcell: Cell angles (23,13,12) (deg):     90.0000     90.0000     60.0000
outcell: Cell volume (Ang**3)        :   1893.2269
New_DM. Step:     1
Initializing Density Matrix...

InitMesh: MESH =   120 x   120 x    90 =     1296000
InitMesh: Mesh cutoff (required, used) =   200.000   223.865 Ry

* Maximum dynamic memory allocated =   177 MB

stepf: Fermi-Dirac step function

siesta: Program's energy decomposition (eV):
siesta: Ebs     =     -6389.969535
siesta: Eions   =     22260.935331
siesta: Ena     =      4976.530804
siesta: Ekin    =      8392.322035
siesta: Enl     =       -73.720105
siesta: DEna    =        -0.000015
siesta: DUscf   =         0.000000
siesta: DUext   =         0.000000
siesta: Exc     =     -4780.407403
siesta: eta*DQ  =         0.000000
siesta: Emadel  =         0.000000
siesta: Emeta   =         0.000000
siesta: Emolmec =         0.000000
siesta: Ekinion =         0.000000
siesta: Eharris =    -13349.759067
siesta: Etot    =    -13746.210015
siesta: FreeEng =    -13746.210015

siesta: iscf   Eharris(eV)      E_KS(eV)   FreeEng(eV)   dDmax  Ef(eV)
siesta:    1   -13349.7591   -13746.2100   -13746.2100  5.9262 -6.4137
timer: Routine,Calls,Time,% = IterSCF        1    3366.027  99.69
elaps: Routine,Calls,Wall,% = IterSCF        1     421.578  99.69
siesta:    2   -16619.6449   -12832.4968   -12832.4969 14.9736 -2.3253
siesta:    3   -13240.6297   -13524.6798   -13524.7224  2.1855 -4.8705
siesta:    4   -13216.0181   -13372.9247   -13372.9870  0.9947 -4.0466
siesta:    5   -13194.9701   -13312.3457   -13312.3821  0.9510 -4.0377
siesta:    6   -13192.4153   -13299.5716   -13299.6363  0.8570 -4.0191
siesta:    7   -13190.6950   -13283.1255   -13283.1859  0.8352 -3.9963
siesta:    8   -13188.5123   -13252.9300   -13252.9914  0.6081 -4.0002
siesta:    9   -13188.4914   -13233.8217   -13233.9097  0.5745 -3.9496
siesta:   10   -13188.8657   -13220.6315   -13220.7027  0.4044 -3.9925
siesta:   11   -13188.2706   -13201.3465   -13201.4049  0.3437 -3.8896
siesta:   12   -13188.1016   -13187.8680   -13187.9295  0.2826 -3.8608
siesta:   13   -13187.8089   -13179.9696   -13180.0448  0.5195 -3.8719
siesta:   14   -13187.6572   -13179.6024   -13179.6586  0.3816 -3.8427
siesta:   15   -13187.3732   -13180.2013   -13180.2740  0.2103 -3.8907
siesta:   16   -13187.2614   -13181.9572   -13182.0278  0.2638 -3.8977
siesta:   17   -13187.2077   -13181.8414   -13181.9227  0.0739 -3.9116
siesta:   18   -13187.1710   -13181.3924   -13181.4767  0.0724 -3.9108
siesta:   19   -13187.1627   -13181.8012   -13181.8894  0.0702 -3.9121
siesta:   20   -13187.1525   -13184.0263   -13184.1141  0.0842 -3.9225
siesta:   21   -13187.1472   -13185.5321   -13185.6168  0.0494 -3.9231
siesta:   22   -13187.1473   -13186.6322   -13186.7187  0.0506 -3.9252
siesta:   23   -13187.1449   -13186.7674   -13186.8542  0.0115 -3.9269
siesta:   24   -13187.1429   -13187.1934   -13187.2791  0.0154 -3.9240
siesta:   25   -13187.1423   -13187.2021   -13187.2886  0.0176 -3.9227
siesta:   26   -13187.1418   -13187.3166   -13187.4035  0.0053 -3.9215
siesta:   27   -13187.1417   -13187.3195   -13187.4064  0.0054 -3.9212
siesta:   28   -13187.1417   -13187.2034   -13187.2902  0.0033 -3.9213
siesta:   29   -13187.1418   -13187.1701   -13187.2567  0.0027 -3.9215
siesta:   30   -13187.1418   -13187.0801   -13187.1666  0.0012 -3.9214
siesta:   31   -13187.1418   -13187.0987   -13187.1851  0.0011 -3.9215
siesta:   32   -13187.1418   -13187.1010   -13187.1875  0.0009 -3.9214
siesta:   33   -13187.1417   -13187.0598   -13187.1462  0.0011 -3.9212
siesta:   34   -13187.1418   -13187.1097   -13187.1963  0.0014 -3.9214
siesta:   35   -13187.1417   -13187.1401   -13187.2266  0.0004 -3.9215
siesta:   36   -13187.1417   -13187.1396   -13187.2261  0.0003 -3.9215
siesta:   37   -13187.1418   -13187.1389   -13187.2254  0.0002 -3.9215
siesta:   38   -13187.1418   -13187.1379   -13187.2244  0.0001 -3.9215

siesta: E_KS(eV) =           -13187.1383

siesta: E_KS - E_eggbox =    -13187.1383

siesta: Atomic forces (eV/Ang):
----------------------------------------
   Tot   -0.342919   -0.065781    0.000000
----------------------------------------
   Max  686.600505
   Res  184.055902    sqrt( Sum f_i^2 / 3N )
----------------------------------------
   Max  686.600505    constrained

Stress-tensor-Voigt (kbar):     -614.90    -3364.25       -0.02       12.01        0.00        0.00
(Free)E + p*V (eV/cell)   -11619.9002
Target enthalpy (eV/cell)   -13187.2248

siesta: Stress tensor (static) (eV/Ang**3):
        -0.383789    0.007499    0.000000
         0.007499   -2.099775    0.000000
         0.000000    0.000000   -0.000012

siesta: Pressure (static):       1326.39040269  kBar

siesta: Stress tensor (total) (eV/Ang**3):
        -0.383789    0.007499    0.000000
         0.007499   -2.099775    0.000000
         0.000000    0.000000   -0.000012

siesta: Pressure (total):       1326.39040269  kBar

siesta: Temp_ion =       0.000 K

* Maximum dynamic memory allocated =   194 MB
Computing bands...

siesta: Program's energy decomposition (eV):
siesta: Ebs     =     -5103.712495
siesta: Eions   =     22260.935331
siesta: Ena     =      4976.530804
siesta: Ekin    =     11604.493233
siesta: Enl     =     -1819.517283
siesta: DEna    =      -838.937101
siesta: DUscf   =       117.092466
siesta: DUext   =         0.000000
siesta: Exc     =     -4965.865129
siesta: eta*DQ  =         0.000000
siesta: Emadel  =         0.000000
siesta: Emeta   =         0.000000
siesta: Emolmec =         0.000000
siesta: Ekinion =         0.000000
siesta: Eharris =    -13187.141766
siesta: Etot    =    -13187.138342
siesta: FreeEng =    -13187.224799

siesta: Final energy (eV):
siesta:  Band Struct. =   -5103.712495
siesta:       Kinetic =   11604.493233
siesta:       Hartree =   37405.029116
siesta:    Ext. field =       0.000000
siesta:   Exch.-corr. =   -4965.865129
siesta:  Ion-electron =  -85863.650698
siesta:       Ion-ion =   28632.855136
siesta:       Ekinion =       0.000000
siesta:         Total =  -13187.138342

siesta: Atomic forces (eV/Ang):
siesta:      1    0.633530  107.645113    0.000000
siesta:      2  -26.740528 -658.295484    0.000000
siesta:      3    4.245225  104.729192    0.000000
siesta:      4   24.745241 -657.571449    0.000000
siesta:      5  -30.288184    7.926488    0.000000
siesta:      6  -25.942997 -657.321770    0.000000
siesta:      7    0.323824    1.848856    0.000000
siesta:      8   -0.010765   -1.176306    0.000000
siesta:      9    0.564065   -0.514355    0.000000
siesta:     10   -0.868995    0.431480    0.000000
siesta:     11    1.479349    1.796875    0.000000
siesta:     12    1.526651   -1.699300    0.000000
siesta:     13    1.083426   -0.105196    0.000000
siesta:     14    0.033679    0.360985    0.000000
siesta:     15    0.274658   -0.901479    0.000000
siesta:     16   -3.640630   -3.817009    0.000000
siesta:     17  -26.960271    7.273421    0.000000
siesta:     18    1.914989 -677.937529    0.000000
siesta:     19   -0.790073   -0.987948    0.000000
siesta:     20   -1.253805   -3.436210    0.000000
siesta:     21    2.956959  106.521241    0.000000
siesta:     22   -1.145310 -664.995285    0.000000
siesta:     23   -1.455137  108.566642    0.000000
siesta:     24   -0.593610 -645.311604    0.000000
siesta:     25  -13.309502  549.130842    0.000000
siesta:     26   -1.633140 -121.738587    0.000000
siesta:     27   27.498224    4.000377    0.000000
siesta:     28   32.461460 -554.638941    0.000000
siesta:     29    1.790383    0.084792    0.000000
siesta:     30   -3.002998    1.620089    0.000000
siesta:     31    2.063556    2.534670    0.000000
siesta:     32   -1.648591   -0.040121    0.000000
siesta:     33   -3.828055  547.456563    0.000000
siesta:     34   -1.346336 -121.747922    0.000000
siesta:     35   19.101125  551.486286    0.000000
siesta:     36   26.076369   -3.481524    0.000000
siesta:     37   -3.338437   -1.919020    0.000000
siesta:     38    1.593799    0.195318    0.000000
siesta:     39   -1.549926    0.134943    0.000000
siesta:     40    1.819679   -2.475940    0.000000
siesta:     41    0.064690    7.625163    0.000000
siesta:     42   -0.283195   -7.707997    0.000000
siesta:     43  -24.147404  655.122603    0.000000
siesta:     44    1.961280 -116.003570    0.000000
siesta:     45   -4.941032  674.636942    0.000000
siesta:     46    0.009455 -115.192514    0.000000
siesta:     47   -0.424499  684.383818    0.000000
siesta:     48   24.703396   -3.646659    0.000000
siesta:     49   -1.362706    3.480411    0.000000
siesta:     50    0.714741   -0.163840    0.000000
siesta:     51   -0.285389    0.618639    0.000000
siesta:     52   -0.141672   -0.633223    0.000000
siesta:     53  -21.567408  659.054222    0.000000
siesta:     54  -25.967789   -4.140867    0.000000
siesta:     55    3.209401  686.600505    0.000000
siesta:     56  -24.118444   -4.758733    0.000000
siesta:     57    0.480514  685.431215    0.000000
siesta:     58    0.272998    0.981067    0.000000
siesta:     59   -0.022036   -0.194405    0.000000
siesta:     60   -0.211978   -0.454198    0.000000
siesta:     61    1.627045   -0.136282    0.000000
siesta:     62   -1.329965    0.895042    0.000000
siesta:     63    0.819732    4.035609    0.000000
siesta:     64   -0.687518    0.236680    0.000000
siesta:     65   -1.448799   -0.362952    0.000000
siesta:     66   -0.226489    1.541583    0.000000
siesta:     67    0.390177    0.362344    0.000000
siesta:     68   -1.327418   -2.552079    0.000000
siesta:     69   -0.714099   -0.684620    0.000000
siesta:     70   19.764158 -575.029017    0.000000
siesta:     71   23.869704    4.477820    0.000000
siesta:     72   28.138725 -561.519676    0.000000
siesta: ----------------------------------------
siesta:    Tot   -0.342919   -0.065781    0.000000

siesta: Stress tensor (static) (eV/Ang**3):
siesta:    -0.383789    0.007499    0.000000
siesta:     0.007499   -2.099775    0.000000
siesta:     0.000000    0.000000   -0.000012

siesta: Cell volume =       1893.226884 Ang**3

siesta: Pressure (static):
siesta:                Solid            Molecule  Units
siesta:           0.00901644          0.14765347  Ry/Bohr**3
siesta:           0.82785883         13.55703994  eV/Ang**3
siesta:        1326.39040269      21721.00739673  kBar
(Free)E+ p_basis*V_orbitals  =      -13159.918308
(Free)Eharris+ p_basis*V_orbitals  =      -13159.922135

siesta: Electric dipole (a.u.)  =    0.000000    0.000000    0.000000
siesta: Electric dipole (Debye) =    0.000000    0.000000    0.000000

* Maximum dynamic memory allocated : Node    0 =   194 MB
* Maximum dynamic memory allocated : Node    1 =    71 MB
* Maximum dynamic memory allocated : Node    2 =    73 MB
* Maximum dynamic memory allocated : Node    3 =   183 MB
* Maximum dynamic memory allocated : Node    4 =   188 MB
* Maximum dynamic memory allocated : Node    5 =    70 MB
* Maximum dynamic memory allocated : Node    6 =    72 MB
* Maximum dynamic memory allocated : Node    7 =   174 MB

* Maximum memory occured during matrixMtoO                    

timer: CPU execution times:
timer:  Routine       Calls   Time/call    Tot.time        %
timer:  siesta            1  126818.827  126818.827   100.00
timer:  Setup             1       2.707       2.707     0.00
timer:  bands             3     243.864     731.592     0.58
timer:  writewave         1       0.017       0.017     0.00
timer:  KSV_init          1       0.000       0.000     0.00
timer:  IterMD            1  126079.242  126079.242    99.42
timer:  hsparse           1       0.286       0.286     0.00
timer:  overlap           1       7.120       7.120     0.01
timer:  IterSCF          38    3314.142  125937.399    99.30
timer:  kinefsm           2       3.667       7.334     0.01
timer:  nlefsm            2      17.233      34.467     0.03
timer:  DHSCF            39      69.399    2706.579     2.13
timer:  DHSCF1            1       0.746       0.746     0.00
timer:  DHSCF2            1      29.634      29.634     0.02
timer:  REORD           314       0.005       1.581     0.00
timer:  POISON           40       0.873      34.921     0.03
timer:  DHSCF3           39      67.900    2648.084     2.09
timer:  rhoofd           39      14.945     582.848     0.46
timer:  cellXC           39       3.274     127.699     0.10
timer:  vmat             39      31.409    1224.969     0.97
timer:  MolMec            2       0.000       0.001     0.00
timer:  diagon           38    3243.990  123271.638    97.20
timer:  c-eigval       8899       6.022   53586.582    42.25
timer:  c-buildHS      8899       0.046     407.333     0.32
timer:  cdiag         17677       6.162  108931.000    85.89
timer:  cdiag1        17677       0.386    6818.862     5.38
timer:  cdiag2        17677       1.767   31231.467    24.63
timer:  cdiag3        17677       3.731   65959.793    52.01
timer:  cdiag4        17677       0.153    2702.275     2.13
timer:  c-eigvec       8778       6.389   56083.878    44.22
timer:  c-buildD       8778       1.628   14287.543    11.27
timer:  DHSCF4            1      27.381      27.381     0.02
timer:  dfscf             1      25.533      25.533     0.02
timer:  overfsm           1       0.373       0.373     0.00
timer:  optical           1       4.616       4.616     0.00
  

elaps: ELAPSED times:
elaps:  Routine       Calls   Time/call    Tot.time        %
elaps:  siesta            1   15882.845   15882.845   100.00
elaps:  Setup             1       0.339       0.339     0.00
elaps:  bands             3      30.558      91.675     0.58
elaps:  writewave         1       0.002       0.002     0.00
elaps:  KSV_init          1       0.000       0.000     0.00
elaps:  IterMD            1   15790.221   15790.221    99.42
elaps:  hsparse           1       0.037       0.037     0.00
elaps:  overlap           1       0.894       0.894     0.01
elaps:  IterSCF          38     415.065   15772.459    99.30
elaps:  kinefsm           2       0.463       0.926     0.01
elaps:  nlefsm            2       2.180       4.360     0.03
elaps:  DHSCF            39       8.780     342.401     2.16
elaps:  DHSCF1            1       0.096       0.096     0.00
elaps:  DHSCF2            1       3.710       3.710     0.02
elaps:  REORD           314       0.001       0.207     0.00
elaps:  POISON           40       0.110       4.383     0.03
elaps:  DHSCF3           39       8.504     331.670     2.09
elaps:  rhoofd           39       4.000     155.994     0.98
elaps:  cellXC           39       0.410      15.983     0.10
elaps:  vmat             39       3.934     153.432     0.97
elaps:  MolMec            2       0.000       0.000     0.00
elaps:  diagon           38     406.285   15438.829    97.20
elaps:  c-eigval       8899       0.754    6711.058    42.25
elaps:  c-buildHS      8899       0.006      56.630     0.36
elaps:  cdiag         17677       0.768   13574.726    85.47
elaps:  cdiag1        17677       0.048     854.802     5.38
elaps:  cdiag2        17677       0.221    3912.291    24.63
elaps:  cdiag3        17677       0.468    8271.351    52.08
elaps:  cdiag4        17677       0.019     336.330     2.12
elaps:  c-eigvec       8778       0.793    6964.607    43.85
elaps:  c-buildD       8778       0.210    1846.687    11.63
elaps:  DHSCF4            1       6.831       6.831     0.04
elaps:  dfscf             1       6.445       6.445     0.04
elaps:  overfsm           1       0.049       0.049     0.00
elaps:  optical           1       0.000       0.000     0.00
  
>> End of run:  24-APR-2016   5:15:06
