Siesta Version:                                        siesta-3.2-pl-3
Architecture  : x86_64-unknown-linux-gnu--unknown
Compiler flags: mpiifort -g -O2 -fPIC -xSSE4.1 -fp-model source -shared-intel 
PARALLEL version

* Running on   12 nodes in parallel
>> Start of run:   3-MAY-2016  13:59:04

                           ***********************       
                           *  WELCOME TO SIESTA  *       
                           ***********************       

reinit: Reading from standard input
************************** Dump of input data file ****************************
#(1) General system descriptors
SystemName            GRP_doping    # Descriptive name of the system
SystemLabel           GRP_doping    # Short name for naming files
%include STRUCT.fdf
%include KPT.fdf
%include BASIS.fdf
#%include TS.fdf # for transiesta calculation
#(4) DFT, Grid, SCF
XC.functional         GGA           # LDA or GGA (default = LDA)
XC.authors            PBE           # CA (Ceperley-Aldr) = PZ
                                    #    (Perdew-Zunger) - LDA - Default
                                    # PW92 (Perdew-Wang-92) - LDA
                                    # PBE (Perdew-Burke-Ernzerhof) - GGA
MeshCutoff            200.000000    Ry      # Default: 50.0 Ry ~ 0.444 Bohr
                                    #         100.0 Ry ~ 0.314 Bohr
MaxSCFIterations      500           # Default: 50
DM.MixingWeight       0.05          # Default: 0.25
DM.NumberPulay        10            # Default: 0
DM.PulayOnFile        F             # SystemLabel.P1, SystemLabel.P2
DM.Tolerance          1.d-4         # Default: 1.d-4
DM.UseSaveDM          .true.        # because of the bug
SCFMustConverge       .true.
NeglNonOverlapInt     F             # Default: F
#(5) Eigenvalue problem: order-N or diagonalization
SolutionMethod        Diagon        # or Transiesta
ElectronicTemperature 300.0 K       # Default: 300.0 K
#(6) Molecular dynamics and relaxations
#MD.TypeOfRun          CG            # Type of dynamics:
#MD.VariableCell       F
#MD.NumCGsteps         0           # 0 for single-point / 100 for gopt
#MD.MaxCGDispl         0.2 Bohr      # Default: 0.2 Bohr
#MD.MaxForceTol        0.02 eV/Ang   # Default: 0.04 eV/Ang
#MD.MaxStressTol       1.0 GPa       # Default: 1.0 GPa
# Geometry Constraints
#%block GeometryConstraints
#	position from 1 to 44
#%endblock GeometryConstraints
BandLinesScale   pi/a
%block BandLines
 1   0.00000000  0.00000000  0.00000000
50   0.00000000  0.07809418  0.00000000
50   0.04509075  0.07809242  0.00000000
20   0.00000000  0.00000000  0.00000000
%endblock BandLines
************************** End of input data file *****************************

reinit: -----------------------------------------------------------------------
reinit: System Name: GRP_doping
reinit: -----------------------------------------------------------------------
reinit: System Label: GRP_doping                                                  
reinit: -----------------------------------------------------------------------

initatom: Reading input for the pseudopotentials and atomic orbitals ----------
 Species number:            1  Label: B Atomic number:           5
 Species number:            2  Label: C Atomic number:           6
Ground state valence configuration:   2s02  2p01
Reading pseudopotential information in formatted form from B.psf

Valence configuration for pseudopotential generation:
2s( 2.00) rc: 1.74
2p( 1.00) rc: 1.74
3d( 0.00) rc: 1.74
4f( 0.00) rc: 1.74
Ground state valence configuration:   2s02  2p02
Reading pseudopotential information in formatted form from C.psf

Valence configuration for pseudopotential generation:
2s( 2.00) rc: 1.54
2p( 2.00) rc: 1.54
3d( 0.00) rc: 1.54
4f( 0.00) rc: 1.54
For B, standard SIESTA heuristics set lmxkb to 3
 (one more than the basis l, including polarization orbitals).
Use PS.lmax or PS.KBprojectors blocks to override.
For C, standard SIESTA heuristics set lmxkb to 3
 (one more than the basis l, including polarization orbitals).
Use PS.lmax or PS.KBprojectors blocks to override.

<basis_specs>
===============================================================================
B                    Z=   5    Mass=  10.810        Charge= 0.17977+309
Lmxo=1 Lmxkb= 3    BasisType=split      Semic=F
L=0  Nsemic=0  Cnfigmx=2
          n=1  nzeta=2  polorb=0
            splnorm:   0.15000    
               vcte:    0.0000    
               rinn:    0.0000    
                rcs:    0.0000      0.0000    
            lambdas:    1.0000      1.0000    
L=1  Nsemic=0  Cnfigmx=2
          n=1  nzeta=2  polorb=1
            splnorm:   0.15000    
               vcte:    0.0000    
               rinn:    0.0000    
                rcs:    0.0000      0.0000    
            lambdas:    1.0000      1.0000    
-------------------------------------------------------------------------------
L=0  Nkbl=1  erefs: 0.17977+309
L=1  Nkbl=1  erefs: 0.17977+309
L=2  Nkbl=1  erefs: 0.17977+309
L=3  Nkbl=1  erefs: 0.17977+309
===============================================================================
</basis_specs>

atom: Called for B                     (Z =   5)

read_vps: Pseudopotential generation method:
read_vps: ATM3      Troullier-Martins                       
Total valence charge:    3.00000

read_vps: Pseudopotential includes a core correction:
read_vps: Pseudo-core for xc-correction

xc_check: Exchange-correlation functional:
xc_check: GGA Perdew, Burke & Ernzerhof 1996
V l=0 = -2*Zval/r beyond r=  1.7165
V l=1 = -2*Zval/r beyond r=  1.7165
V l=2 = -2*Zval/r beyond r=  1.7165
V l=3 = -2*Zval/r beyond r=  1.6951
All V_l potentials equal beyond r=  1.7165
This should be close to max(r_c) in ps generation
All pots = -2*Zval/r beyond r=  1.7165

VLOCAL1: 99.0% of the norm of Vloc inside     14.733 Ry
VLOCAL1: 99.9% of the norm of Vloc inside     33.577 Ry
atom: Maximum radius for 4*pi*r*r*local-pseudopot. charge    2.04484
atom: Maximum radius for r*vlocal+2*Zval:    1.75994
GHOST: No ghost state for L =  0
GHOST: No ghost state for L =  1
GHOST: No ghost state for L =  2
GHOST: No ghost state for L =  3

KBgen: Kleinman-Bylander projectors: 
   l= 0   rc=  1.897051   el= -0.693730   Ekb=  4.595746   kbcos=  0.286105
   l= 1   rc=  1.920920   el= -0.265236   Ekb= -2.350715   kbcos= -0.315747
   l= 2   rc=  2.044840   el=  0.002055   Ekb= -0.690767   kbcos= -0.013822
   l= 3   rc=  2.149707   el=  0.003188   Ekb= -0.315358   kbcos= -0.002055

KBgen: Total number of  Kleinman-Bylander projectors:   16
atom: -------------------------------------------------------------------------

atom: SANKEY-TYPE ORBITALS:
atom: Selected multiple-zeta basis: split     

SPLIT: Orbitals with angular momentum L= 0

SPLIT: Basis orbitals for state 2s

SPLIT: PAO cut-off radius determined from an
SPLIT: energy shift=  0.007350 Ry

   izeta = 1
                 lambda =    1.000000
                     rc =    5.422032
                 energy =   -0.686029
                kinetic =    0.576707
    potential(screened) =   -1.262736
       potential(ionic) =   -3.271094

   izeta = 2
                 rmatch =    4.222573
              splitnorm =    0.150000
                 energy =   -0.602132
                kinetic =    0.858975
    potential(screened) =   -1.461107
       potential(ionic) =   -3.582536

SPLIT: Orbitals with angular momentum L= 1

SPLIT: Basis orbitals for state 2p

SPLIT: PAO cut-off radius determined from an
SPLIT: energy shift=  0.007350 Ry

   izeta = 1
                 lambda =    1.000000
                     rc =    6.790259
                 energy =   -0.258578
                kinetic =    1.481412
    potential(screened) =   -1.739989
       potential(ionic) =   -3.657461

   izeta = 2
                 rmatch =    4.608740
              splitnorm =    0.150000
                 energy =   -0.173757
                kinetic =    2.186690
    potential(screened) =   -2.360447
       potential(ionic) =   -4.464260

POLgen: Perturbative polarization orbital with L=  2

POLgen: Polarization orbital for state 2p

   izeta = 1
                     rc =    6.790259
                 energy =    0.684082
                kinetic =    1.471481
    potential(screened) =   -0.787399
       potential(ionic) =   -2.406985
atom: Total number of Sankey-type orbitals: 13

atm_pop: Valence configuration (for local Pseudopot. screening):
 2s( 2.00)                                                            
 2p( 1.00)                                                            
Vna: chval, zval:    3.00000   3.00000

Vna:  Cut-off radius for the neutral-atom potential:   6.790259
comcore: Pseudo-core radius Rcore=  2.122997

atom: _________________________________________________________________________

<basis_specs>
===============================================================================
C                    Z=   6    Mass=  12.010        Charge= 0.17977+309
Lmxo=1 Lmxkb= 3    BasisType=split      Semic=F
L=0  Nsemic=0  Cnfigmx=2
          n=1  nzeta=2  polorb=0
            splnorm:   0.15000    
               vcte:    0.0000    
               rinn:    0.0000    
                rcs:    0.0000      0.0000    
            lambdas:    1.0000      1.0000    
L=1  Nsemic=0  Cnfigmx=2
          n=1  nzeta=2  polorb=1
            splnorm:   0.15000    
               vcte:    0.0000    
               rinn:    0.0000    
                rcs:    0.0000      0.0000    
            lambdas:    1.0000      1.0000    
-------------------------------------------------------------------------------
L=0  Nkbl=1  erefs: 0.17977+309
L=1  Nkbl=1  erefs: 0.17977+309
L=2  Nkbl=1  erefs: 0.17977+309
L=3  Nkbl=1  erefs: 0.17977+309
===============================================================================
</basis_specs>

atom: Called for C                     (Z =   6)

read_vps: Pseudopotential generation method:
read_vps: ATM3      Troullier-Martins                       
Total valence charge:    4.00000

read_vps: Pseudopotential includes a core correction:
read_vps: Pseudo-core for xc-correction

xc_check: Exchange-correlation functional:
xc_check: GGA Perdew, Burke & Ernzerhof 1996
V l=0 = -2*Zval/r beyond r=  1.5227
V l=1 = -2*Zval/r beyond r=  1.5227
V l=2 = -2*Zval/r beyond r=  1.5227
V l=3 = -2*Zval/r beyond r=  1.5038
All V_l potentials equal beyond r=  1.5227
This should be close to max(r_c) in ps generation
All pots = -2*Zval/r beyond r=  1.5227

VLOCAL1: 99.0% of the norm of Vloc inside     18.722 Ry
VLOCAL1: 99.9% of the norm of Vloc inside     42.668 Ry
atom: Maximum radius for 4*pi*r*r*local-pseudopot. charge    1.83678
atom: Maximum radius for r*vlocal+2*Zval:    1.58088
GHOST: No ghost state for L =  0
GHOST: No ghost state for L =  1
GHOST: No ghost state for L =  2
GHOST: No ghost state for L =  3

KBgen: Kleinman-Bylander projectors: 
   l= 0   rc=  1.704034   el= -1.009801   Ekb=  5.335044   kbcos=  0.316824
   l= 1   rc=  1.704034   el= -0.388707   Ekb= -3.785862   kbcos= -0.366464
   l= 2   rc=  1.791422   el=  0.001971   Ekb= -0.970471   kbcos= -0.009212
   l= 3   rc=  1.859892   el=  0.003065   Ekb= -0.399525   kbcos= -0.001223

KBgen: Total number of  Kleinman-Bylander projectors:   16
atom: -------------------------------------------------------------------------

atom: SANKEY-TYPE ORBITALS:
atom: Selected multiple-zeta basis: split     

SPLIT: Orbitals with angular momentum L= 0

SPLIT: Basis orbitals for state 2s

SPLIT: PAO cut-off radius determined from an
SPLIT: energy shift=  0.007350 Ry

   izeta = 1
                 lambda =    1.000000
                     rc =    4.632753
                 energy =   -1.002270
                kinetic =    0.855760
    potential(screened) =   -1.858031
       potential(ionic) =   -5.417575

   izeta = 2
                 rmatch =    3.431921
              splitnorm =    0.150000
                 energy =   -0.867111
                kinetic =    1.300804
    potential(screened) =   -2.167915
       potential(ionic) =   -5.962684

SPLIT: Orbitals with angular momentum L= 1

SPLIT: Basis orbitals for state 2p

SPLIT: PAO cut-off radius determined from an
SPLIT: energy shift=  0.007350 Ry

   izeta = 1
                 lambda =    1.000000
                     rc =    5.658549
                 energy =   -0.381140
                kinetic =    2.399701
    potential(screened) =   -2.780841
       potential(ionic) =   -6.206085

   izeta = 2
                 rmatch =    3.653288
              splitnorm =    0.150000
                 energy =   -0.249149
                kinetic =    3.542762
    potential(screened) =   -3.791911
       potential(ionic) =   -7.581078

POLgen: Perturbative polarization orbital with L=  2

POLgen: Polarization orbital for state 2p

   izeta = 1
                     rc =    5.658549
                 energy =    1.109913
                kinetic =    2.304789
    potential(screened) =   -1.194876
       potential(ionic) =   -4.013592
atom: Total number of Sankey-type orbitals: 13

atm_pop: Valence configuration (for local Pseudopot. screening):
 2s( 2.00)                                                            
 2p( 2.00)                                                            
Vna: chval, zval:    4.00000   4.00000

Vna:  Cut-off radius for the neutral-atom potential:   5.658549
comcore: Pseudo-core radius Rcore=  1.791422

atom: _________________________________________________________________________

prinput: Basis input ----------------------------------------------------------

PAO.BasisType split     

%block ChemicalSpeciesLabel
    1    5 B                       # Species index, atomic number, species label
    2    6 C                       # Species index, atomic number, species label
%endblock ChemicalSpeciesLabel

%block PAO.Basis                 # Define Basis set
B                     2                    # Species label, number of l-shells
 n=2   0   2                         # n, l, Nzeta 
   5.422      4.223   
   1.000      1.000   
 n=2   1   2 P   1                   # n, l, Nzeta, Polarization, NzetaPol
   6.790      4.609   
   1.000      1.000   
C                     2                    # Species label, number of l-shells
 n=2   0   2                         # n, l, Nzeta 
   4.633      3.432   
   1.000      1.000   
 n=2   1   2 P   1                   # n, l, Nzeta, Polarization, NzetaPol
   5.659      3.653   
   1.000      1.000   
%endblock PAO.Basis

prinput: ----------------------------------------------------------------------

coor:   Atomic-coordinates input format  =     Fractional

siesta: Atomic coordinates (Bohr) and species
siesta:     -0.02582   5.28395   0.00000  1        1
siesta:     -4.68258  34.85847   0.00000  1        2
siesta:      2.30256  17.38257   0.00000  1        3
siesta:      4.63094  18.72698   0.00000  1        4
siesta:     -4.68258  13.34970   0.00000  1        5
siesta:     -0.02582  18.72698   0.00000  1        6
siesta:     -0.02582  21.41544   0.00000  1        7
siesta:     -7.01096  17.38257   0.00000  1        8
siesta:     -9.33934  21.41544   0.00000  1        9
siesta:      4.63094  29.48119   0.00000  1       10
siesta:     -4.68258  29.48119   0.00000  1       11
siesta:      2.30256  33.51406   0.00000  1       12
siesta:     -2.35420  33.51406   0.00000  1       13
siesta:     -0.02582  34.85847   0.00000  1       14
siesta:     -0.02582  42.92421   0.00000  1       15
siesta:     -0.02582   2.59549   0.00000  2       16
siesta:     -2.35420  38.89134   0.00000  2       17
siesta:     -2.35420  41.57980   0.00000  2       18
siesta:      2.30256  38.89134   0.00000  2       19
siesta:      2.30256  41.57980   0.00000  2       20
siesta:      4.63094  34.85847   0.00000  2       21
siesta:      4.63094  37.54693   0.00000  2       22
siesta:      6.95932  30.82560   0.00000  2       23
siesta:      6.95932  33.51406   0.00000  2       24
siesta:      9.28770  26.79272   0.00000  2       25
siesta:      9.28770  29.48119   0.00000  2       26
siesta:     -4.68258  37.54693   0.00000  2       27
siesta:      2.30256   6.62836   0.00000  2       28
siesta:      2.30256   9.31683   0.00000  2       29
siesta:      4.63094  10.66124   0.00000  2       30
siesta:      4.63094  13.34970   0.00000  2       31
siesta:      6.95932  14.69411   0.00000  2       32
siesta:      6.95932  17.38257   0.00000  2       33
siesta:      9.28770  18.72698   0.00000  2       34
siesta:      9.28770  21.41544   0.00000  2       35
siesta:     11.61608  22.75985   0.00000  2       36
siesta:     11.61608  25.44831   0.00000  2       37
siesta:     -2.35420   6.62836   0.00000  2       38
siesta:     -2.35420   9.31683   0.00000  2       39
siesta:     -0.02582  10.66124   0.00000  2       40
siesta:     -0.02582  13.34970   0.00000  2       41
siesta:      2.30256  14.69411   0.00000  2       42
siesta:      4.63094  21.41544   0.00000  2       43
siesta:      6.95932  22.75985   0.00000  2       44
siesta:      6.95932  25.44831   0.00000  2       45
siesta:     -4.68258  10.66124   0.00000  2       46
siesta:     -2.35420  14.69411   0.00000  2       47
siesta:     -2.35420  17.38257   0.00000  2       48
siesta:      2.30256  22.75985   0.00000  2       49
siesta:      2.30256  25.44831   0.00000  2       50
siesta:     -7.01096  14.69411   0.00000  2       51
siesta:     -4.68258  18.72698   0.00000  2       52
siesta:     -4.68258  21.41544   0.00000  2       53
siesta:     -2.35420  22.75985   0.00000  2       54
siesta:     -2.35420  25.44831   0.00000  2       55
siesta:     -9.33934  18.72698   0.00000  2       56
siesta:     -7.01096  22.75985   0.00000  2       57
siesta:     -7.01096  25.44831   0.00000  2       58
siesta:    -11.66772  22.75985   0.00000  2       59
siesta:    -11.66772  25.44831   0.00000  2       60
siesta:     -9.33934  26.79272   0.00000  2       61
siesta:     -9.33934  29.48119   0.00000  2       62
siesta:      4.63094  26.79272   0.00000  2       63
siesta:     -0.02582  26.79272   0.00000  2       64
siesta:     -0.02582  29.48119   0.00000  2       65
siesta:     -4.68258  26.79272   0.00000  2       66
siesta:      2.30256  30.82560   0.00000  2       67
siesta:     -2.35420  30.82560   0.00000  2       68
siesta:     -7.01096  30.82560   0.00000  2       69
siesta:     -7.01096  33.51406   0.00000  2       70
siesta:     -0.02582  37.54693   0.00000  2       71
siesta:     -0.02582  45.61267   0.00000  2       72

siesta: System type = slab      

initatomlists: Number of atoms, orbitals, and projectors:     72   936  1152

siesta: ******************** Simulation parameters ****************************
siesta:
siesta: The following are some of the parameters of the simulation.
siesta: A complete list of the parameters used, including default values,
siesta: can be found in file out.fdf
siesta:
redata: Non-Collinear-spin run           =     F
redata: SpinPolarized (Up/Down) run      =     F
redata: Number of spin components        =     1
redata: Long output                      =     F
redata: Number of Atomic Species         =        2
redata: Charge density info will appear in .RHO file
redata: Write Mulliken Pop.              =     NO
redata: Mesh Cutoff                      =   200.0000  Ry
redata: Net charge of the system         =     0.0000 |e|
redata: Max. number of SCF Iter          =      500
redata: SCF convergence failure will abort job
redata: Performing Pulay mixing using    =    10 iterations
redata: Mix DM in first SCF step ?       =     F
redata: Write Pulay info on disk?        =     F
redata: Discard 1st Pulay DM after  kick =     F
redata: New DM Mixing Weight             =     0.0500
redata: New DM Occupancy tolerance       = 0.000000000001
redata: No kicks to SCF
redata: DM Mixing Weight for Kicks       =     0.5000
redata: DM Tolerance for SCF             =     0.000100
redata: Require Energy convergence for SCF =     F
redata: DM Energy tolerance for SCF      =     0.000100 eV
redata: Require Harris convergence for SCF =     F
redata: DM Harris energy tolerance for SCF =     0.000100 eV
redata: Using Saved Data (generic)   =     F
redata: Use continuation files for DM    =     T
redata: Neglect nonoverlap interactions  =     F
redata: Method of Calculation            =     Diagonalization
redata: Divide and Conquer               =     T
redata: Electronic Temperature           =     0.0019  Ry
redata: Fix the spin of the system       =     F
redata: Dynamics option                  =     Verlet MD run
redata: Initial MD time step             =        1
redata:   Final MD time step             =        1
redata: Length of MD time step           =     1.0000  fs
redata: Initial Temperature of MD run    =     0.0000  K
redata: Perform a MD quench              =     F
redata: ***********************************************************************
Total number of electrons:   273.000000
Total ionic charge:   273.000000

* ProcessorY, Blocksize:    3  24

k-point displ. along   1 input, could be:     0.50    0.00
k-point displ. along   2 input, could be:     0.50    0.00
 Kpoints in:          231 . Kpoints trimmed:          231

siesta: k-grid: Number of k-points =   231
siesta: k-grid: Cutoff (effective) =     5.000 Ang
siesta: k-grid: Supercell and displacements
siesta: k-grid:   21   0   0      0.500
siesta: k-grid:    0  21   0      0.500
siesta: k-grid:    0   0   1      0.000
Naive supercell factors:     2    2    2

superc: Internal auxiliary supercell:     2 x     2 x     2  =       8
superc: Number of atoms, orbitals, and projectors:    576   7488   9216

* Maximum dynamic memory allocated =     4 MB

siesta:                 ==============================
                            Begin MD step =      1
                        ==============================

superc: Internal auxiliary supercell:     2 x     2 x     2  =       8
superc: Number of atoms, orbitals, and projectors:    576   7488   9216

outcell: Unit cell vectors (Ang):
       12.804619    7.392750    0.000000
        0.000000   14.785500    0.000000
        0.000000    0.000000   10.000000

outcell: Cell vector modules (Ang)   :   14.785500   14.785500   10.000000
outcell: Cell angles (23,13,12) (deg):     90.0000     90.0000     60.0000
outcell: Cell volume (Ang**3)        :   1893.2269
New_DM. Step:     1
Initializing Density Matrix...

InitMesh: MESH =   120 x   120 x    90 =     1296000
InitMesh: Mesh cutoff (required, used) =   200.000   223.865 Ry

* Maximum dynamic memory allocated =   155 MB

stepf: Fermi-Dirac step function

siesta: Program's energy decomposition (eV):
siesta: Ebs     =     -5630.721404
siesta: Eions   =     16482.160403
siesta: Ena     =      4366.588289
siesta: Ekin    =      5587.107004
siesta: Enl     =       768.701858
siesta: DEna    =        -0.000010
siesta: DUscf   =         0.000000
siesta: DUext   =         0.000000
siesta: Exc     =     -4185.996442
siesta: eta*DQ  =         0.000000
siesta: Emadel  =         0.000000
siesta: Emeta   =         0.000000
siesta: Emolmec =         0.000000
siesta: Ekinion =         0.000000
siesta: Eharris =     -9725.497107
siesta: Etot    =     -9945.759705
siesta: FreeEng =     -9945.759705

siesta: iscf   Eharris(eV)      E_KS(eV)   FreeEng(eV)   dDmax  Ef(eV)
siesta:    1    -9725.4971    -9945.7597    -9945.7597  8.1493 -8.1626
timer: Routine,Calls,Time,% = IterSCF        1    3054.952  99.59
elaps: Routine,Calls,Wall,% = IterSCF        1     255.185  99.59
siesta:    2   -13923.5393    -9036.9247    -9036.9574 14.2446 -3.6183
siesta:    3    -9705.6662    -9772.3858    -9772.4341  2.2214 -6.0621
siesta:    4    -9660.4726    -9691.7593    -9691.7932  1.3724 -5.8897
siesta:    5    -9596.3858    -9611.3638    -9611.4153  0.8686 -5.3036
siesta:    6    -9589.5773    -9590.6065    -9590.6400  0.8168 -5.1775
siesta:    7    -9579.5413    -9576.1562    -9576.2228  0.7192 -5.1152
siesta:    8    -9576.7297    -9570.0440    -9570.1001  0.6346 -5.0329
siesta:    9    -9577.7374    -9558.9212    -9558.9687  0.4672 -4.8944
siesta:   10    -9575.7398    -9557.0531    -9557.0979  0.4030 -4.8833
siesta:   11    -9575.4469    -9553.0807    -9553.1282  0.2499 -4.8876
siesta:   12    -9575.5160    -9552.4305    -9552.4965  0.1830 -4.9113
siesta:   13    -9574.8409    -9555.1991    -9555.2532  0.1541 -4.9600
siesta:   14    -9574.8607    -9558.4964    -9558.5482  0.1629 -4.9843
siesta:   15    -9574.4822    -9562.2206    -9562.2763  0.1330 -5.0125
siesta:   16    -9574.3228    -9568.2381    -9568.2908  0.0637 -5.0493
siesta:   17    -9574.2769    -9569.5611    -9569.6196  0.0473 -5.0505
siesta:   18    -9574.2520    -9571.3791    -9571.4366  0.0569 -5.0493
siesta:   19    -9574.2341    -9572.6302    -9572.6831  0.0427 -5.0510
siesta:   20    -9574.2286    -9574.5376    -9574.5914  0.0401 -5.0516
siesta:   21    -9574.2231    -9575.1155    -9575.1724  0.0258 -5.0440
siesta:   22    -9574.2214    -9575.0754    -9575.1316  0.0165 -5.0366
siesta:   23    -9574.2199    -9575.0122    -9575.0682  0.0098 -5.0344
siesta:   24    -9574.2186    -9574.9508    -9575.0054  0.0103 -5.0335
siesta:   25    -9574.2175    -9574.7152    -9574.7699  0.0052 -5.0312
siesta:   26    -9574.2173    -9574.5772    -9574.6319  0.0043 -5.0311
siesta:   27    -9574.2173    -9574.5884    -9574.6429  0.0038 -5.0309
siesta:   28    -9574.2172    -9574.5880    -9574.6425  0.0034 -5.0318
siesta:   29    -9574.2172    -9574.4685    -9574.5229  0.0027 -5.0320
siesta:   30    -9574.2172    -9574.3737    -9574.4281  0.0012 -5.0320
siesta:   31    -9574.2172    -9574.2926    -9574.3470  0.0006 -5.0319
siesta:   32    -9574.2172    -9574.2477    -9574.3020  0.0005 -5.0319
siesta:   33    -9574.2172    -9574.2385    -9574.2929  0.0002 -5.0318
siesta:   34    -9574.2172    -9574.2343    -9574.2887  0.0001 -5.0318
siesta:   35    -9574.2172    -9574.2295    -9574.2839  0.0001 -5.0319
siesta:   36    -9574.2172    -9574.2269    -9574.2813  0.0001 -5.0319
siesta:   37    -9574.2172    -9574.2230    -9574.2774  0.0001 -5.0319

siesta: E_KS(eV) =            -9574.2211

siesta: E_KS - E_eggbox =     -9574.2211

siesta: Atomic forces (eV/Ang):
----------------------------------------
   Tot    0.049072    0.030451    0.000000
----------------------------------------
   Max  567.760464
   Res  148.987287    sqrt( Sum f_i^2 / 3N )
----------------------------------------
   Max  567.760464    constrained

Stress-tensor-Voigt (kbar):     -718.29    -2644.07       -0.52        6.02        0.00        0.00
(Free)E + p*V (eV/cell)    -8249.6948
Target enthalpy (eV/cell)    -9574.2755

siesta: Stress tensor (static) (eV/Ang**3):
        -0.448315    0.003757    0.000000
         0.003757   -1.650284    0.000000
         0.000000    0.000000   -0.000327

siesta: Pressure (static):       1120.96191777  kBar

siesta: Stress tensor (total) (eV/Ang**3):
        -0.448315    0.003757    0.000000
         0.003757   -1.650284    0.000000
         0.000000    0.000000   -0.000327

siesta: Pressure (total):       1120.96191777  kBar

siesta: Temp_ion =       0.000 K

* Maximum dynamic memory allocated =   168 MB
Computing bands...

siesta: Program's energy decomposition (eV):
siesta: Ebs     =     -4266.109019
siesta: Eions   =     16482.160403
siesta: Ena     =      4366.588289
siesta: Ekin    =      8439.173763
siesta: Enl     =      -869.413860
siesta: DEna    =      -776.895598
siesta: DUscf   =       103.883470
siesta: DUext   =         0.000000
siesta: Exc     =     -4355.396800
siesta: eta*DQ  =         0.000000
siesta: Emadel  =         0.000000
siesta: Emeta   =         0.000000
siesta: Emolmec =         0.000000
siesta: Ekinion =         0.000000
siesta: Eharris =     -9574.217184
siesta: Etot    =     -9574.221138
siesta: FreeEng =     -9574.275547

siesta: Final energy (eV):
siesta:  Band Struct. =   -4266.109019
siesta:       Kinetic =    8439.173763
siesta:       Hartree =   27060.081567
siesta:    Ext. field =       0.000000
siesta:   Exch.-corr. =   -4355.396800
siesta:  Ion-electron =  -62267.552266
siesta:       Ion-ion =   21549.472598
siesta:       Ekinion =       0.000000
siesta:         Total =   -9574.221138

siesta: Atomic forces (eV/Ang):
siesta:      1    0.115530 -107.808414    0.000000
siesta:      2  -21.373989    0.925299    0.000000
siesta:      3   13.763452   -3.316120    0.000000
siesta:      4    2.186996    1.831651    0.000000
siesta:      5  -21.859271   -2.002305    0.000000
siesta:      6   -0.437710  421.502938    0.000000
siesta:      7   -0.411278    3.459167    0.000000
siesta:      8   -4.422265   -2.612938    0.000000
siesta:      9   -3.894997   -2.784885    0.000000
siesta:     10   -0.862669   -0.894085    0.000000
siesta:     11    1.327204   -0.828565    0.000000
siesta:     12   19.628009 -402.283094    0.000000
siesta:     13  -18.147706 -402.883669    0.000000
siesta:     14   -0.819134  103.750706    0.000000
siesta:     15    0.035960  112.615591    0.000000
siesta:     16    0.323487  554.778620    0.000000
siesta:     17   -2.796310  128.485182    0.000000
siesta:     18   -7.626038 -540.961995    0.000000
siesta:     19    0.187521  126.816921    0.000000
siesta:     20   14.095151 -549.773141    0.000000
siesta:     21   26.093494   -0.301599    0.000000
siesta:     22   29.108337 -550.982292    0.000000
siesta:     23    5.969681    2.056238    0.000000
siesta:     24   -2.633788    2.042335    0.000000
siesta:     25    2.477974    1.763230    0.000000
siesta:     26   -1.366144    0.442669    0.000000
siesta:     27  -29.513270 -556.113560    0.000000
siesta:     28    5.272397  399.827150    0.000000
siesta:     29   -1.974276 -128.263054    0.000000
siesta:     30   33.040772  551.960385    0.000000
siesta:     31   27.005194   -2.804145    0.000000
siesta:     32   -3.088366   -1.936473    0.000000
siesta:     33    7.044021   -2.203215    0.000000
siesta:     34   -1.853093   -0.563384    0.000000
siesta:     35    2.642832   -1.486787    0.000000
siesta:     36   -0.151960    5.864073    0.000000
siesta:     37   -0.088262   -5.960415    0.000000
siesta:     38   -5.354141  398.009102    0.000000
siesta:     39   -1.742829 -129.047797    0.000000
siesta:     40    0.711336  553.455885    0.000000
siesta:     41    1.266143 -130.797053    0.000000
siesta:     42   30.296033  555.276133    0.000000
siesta:     43    0.188333    3.859498    0.000000
siesta:     44   -0.581949    0.818972    0.000000
siesta:     45   -0.913415   -0.762460    0.000000
siesta:     46  -31.489923  556.093448    0.000000
siesta:     47  -36.743344  555.228858    0.000000
siesta:     48  -19.145474   -2.039777    0.000000
siesta:     49    2.188487    1.392687    0.000000
siesta:     50    0.120171    0.401606    0.000000
siesta:     51    1.069102   -3.449402    0.000000
siesta:     52    4.404383    2.725088    0.000000
siesta:     53    0.093973    1.195377    0.000000
siesta:     54   -1.761485    1.155766    0.000000
siesta:     55   -0.272001    0.392166    0.000000
siesta:     56   -0.420761   -0.592893    0.000000
siesta:     57    3.338436    2.197667    0.000000
siesta:     58    1.695015   -1.389256    0.000000
siesta:     59   -3.016655    9.966768    0.000000
siesta:     60    0.187195   -7.238450    0.000000
siesta:     61   -2.758859    2.260458    0.000000
siesta:     62    0.935098   -0.528180    0.000000
siesta:     63    0.363459   -3.406329    0.000000
siesta:     64    0.014699   -1.201816    0.000000
siesta:     65   -0.389925 -567.760464    0.000000
siesta:     66   -0.386978   -3.388947    0.000000
siesta:     67   17.702433    7.480210    0.000000
siesta:     68  -17.641162    6.982117    0.000000
siesta:     69   -6.471099    3.508947    0.000000
siesta:     70   -0.113502   -0.725492    0.000000
siesta:     71   -0.320411 -545.490647    0.000000
siesta:     72   -1.998796 -415.909361    0.000000
siesta: ----------------------------------------
siesta:    Tot    0.049072    0.030451    0.000000

siesta: Stress tensor (static) (eV/Ang**3):
siesta:    -0.448315    0.003757    0.000000
siesta:     0.003757   -1.650284    0.000000
siesta:     0.000000    0.000000   -0.000327

siesta: Cell volume =       1893.226884 Ang**3

siesta: Pressure (static):
siesta:                Solid            Molecule  Units
siesta:           0.00761999          0.11479901  Ry/Bohr**3
siesta:           0.69964184         10.54045466  eV/Ang**3
siesta:        1120.96191777      16887.85271056  kBar
(Free)E+ p_basis*V_orbitals  =       -9538.798629
(Free)Eharris+ p_basis*V_orbitals  =       -9538.792790

siesta: Electric dipole (a.u.)  =    0.000000    0.000000    0.000000
siesta: Electric dipole (Debye) =    0.000000    0.000000    0.000000

* Maximum dynamic memory allocated : Node    0 =   168 MB
* Maximum dynamic memory allocated : Node    1 =    66 MB
* Maximum dynamic memory allocated : Node    2 =    69 MB
* Maximum dynamic memory allocated : Node    3 =   155 MB
* Maximum dynamic memory allocated : Node    4 =   166 MB
* Maximum dynamic memory allocated : Node    5 =    61 MB
* Maximum dynamic memory allocated : Node    6 =    62 MB
* Maximum dynamic memory allocated : Node    7 =   156 MB
* Maximum dynamic memory allocated : Node    8 =   149 MB
* Maximum dynamic memory allocated : Node    9 =    59 MB
* Maximum dynamic memory allocated : Node   10 =    62 MB
* Maximum dynamic memory allocated : Node   11 =   142 MB

* Maximum memory occured during matrixMtoO                    

timer: CPU execution times:
timer:  Routine       Calls   Time/call    Tot.time        %
timer:  siesta            1  109979.983  109979.983   100.00
timer:  Setup             1       3.331       3.331     0.00
timer:  bands             3     225.239     675.717     0.61
timer:  writewave         1       0.023       0.023     0.00
timer:  KSV_init          1       0.006       0.006     0.00
timer:  IterMD            1  109293.989  109293.989    99.38
timer:  hsparse           1       0.284       0.284     0.00
timer:  overlap           1       7.207       7.207     0.01
timer:  IterSCF          37    2949.650  109137.057    99.23
timer:  kinefsm           2       3.669       7.337     0.01
timer:  nlefsm            2      20.150      40.300     0.04
timer:  DHSCF            38      82.267    3126.156     2.84
timer:  DHSCF1            1       1.190       1.190     0.00
timer:  DHSCF2            1      33.009      33.009     0.03
timer:  REORD           306       0.002       0.703     0.00
timer:  POISON           39       0.446      17.393     0.02
timer:  DHSCF3           38      80.632    3064.019     2.79
timer:  rhoofd           38      17.020     646.776     0.59
timer:  cellXC           38       2.516      95.589     0.09
timer:  vmat             38      39.154    1487.862     1.35
timer:  MolMec            2       0.000       0.000     0.00
timer:  diagon           37    2866.188  106048.940    96.43
timer:  c-eigval       8668       5.573   48305.118    43.92
timer:  c-buildHS      8668       0.036     311.101     0.28
timer:  cdiag         17215       5.674   97672.173    88.81
timer:  cdiag1        17215       0.259    4460.774     4.06
timer:  cdiag2        17215       1.832   31537.194    28.68
timer:  cdiag3        17215       3.370   58013.325    52.75
timer:  cdiag4        17215       0.086    1473.422     1.34
timer:  c-eigvec       8547       5.843   49938.784    45.41
timer:  c-buildD       8547       0.987    8434.256     7.67
timer:  DHSCF4            1      27.704      27.704     0.03
timer:  dfscf             1      25.600      25.600     0.02
timer:  overfsm           1       0.327       0.327     0.00
timer:  optical           1       6.336       6.336     0.01
  

elaps: ELAPSED times:
elaps:  Routine       Calls   Time/call    Tot.time        %
elaps:  siesta            1    9186.526    9186.526   100.00
elaps:  Setup             1       0.278       0.278     0.00
elaps:  bands             3      18.829      56.487     0.61
elaps:  writewave         1       0.002       0.002     0.00
elaps:  KSV_init          1       0.000       0.000     0.00
elaps:  IterMD            1    9129.226    9129.226    99.38
elaps:  hsparse           1       0.028       0.028     0.00
elaps:  overlap           1       0.714       0.714     0.01
elaps:  IterSCF          37     246.382    9116.119    99.23
elaps:  kinefsm           2       0.367       0.734     0.01
elaps:  nlefsm            2       1.802       3.605     0.04
elaps:  DHSCF            38       6.930     263.326     2.87
elaps:  DHSCF1            1       0.101       0.101     0.00
elaps:  DHSCF2            1       2.756       2.756     0.03
elaps:  REORD           306       0.000       0.093     0.00
elaps:  POISON           39       0.038       1.470     0.02
elaps:  DHSCF3           38       6.736     255.978     2.79
elaps:  rhoofd           38       2.967     112.759     1.23
elaps:  cellXC           38       0.210       7.966     0.09
elaps:  vmat             38       3.271     124.316     1.35
elaps:  MolMec            2       0.000       0.000     0.00
elaps:  diagon           37     239.417    8858.434    96.43
elaps:  c-eigval       8668       0.465    4034.823    43.92
elaps:  c-buildHS      8668       0.004      33.336     0.36
elaps:  cdiag         17215       0.469    8068.157    87.83
elaps:  cdiag1        17215       0.021     365.113     3.97
elaps:  cdiag2        17215       0.153    2636.586    28.70
elaps:  cdiag3        17215       0.282    4852.674    52.82
elaps:  cdiag4        17215       0.007     118.387     1.29
elaps:  c-eigvec       8547       0.479    4094.742    44.57
elaps:  c-buildD       8547       0.091     780.938     8.50
elaps:  DHSCF4            1       4.451       4.451     0.05
elaps:  dfscf             1       4.193       4.193     0.05
elaps:  overfsm           1       0.035       0.035     0.00
elaps:  optical           1       0.000       0.000     0.00
  
>> End of run:   3-MAY-2016  16:32:11
