Siesta Version:                                        siesta-3.2-pl-3
Architecture  : x86_64-unknown-linux-gnu--unknown
Compiler flags: mpiifort -g -O2 -fPIC -xSSE4.1 -fp-model source -shared-intel 
PARALLEL version

* Running on   12 nodes in parallel
>> Start of run:  30-APR-2016   3:12:26

                           ***********************       
                           *  WELCOME TO SIESTA  *       
                           ***********************       

reinit: Reading from standard input
************************** Dump of input data file ****************************
#(1) General system descriptors
SystemName            GRP_doping    # Descriptive name of the system
SystemLabel           GRP_doping    # Short name for naming files
%include STRUCT.fdf
%include KPT.fdf
%include BASIS.fdf
#%include TS.fdf # for transiesta calculation
#(4) DFT, Grid, SCF
XC.functional         GGA           # LDA or GGA (default = LDA)
XC.authors            PBE           # CA (Ceperley-Aldr) = PZ
                                    #    (Perdew-Zunger) - LDA - Default
                                    # PW92 (Perdew-Wang-92) - LDA
                                    # PBE (Perdew-Burke-Ernzerhof) - GGA
MeshCutoff            200.000000    Ry      # Default: 50.0 Ry ~ 0.444 Bohr
                                    #         100.0 Ry ~ 0.314 Bohr
MaxSCFIterations      500           # Default: 50
DM.MixingWeight       0.05          # Default: 0.25
DM.NumberPulay        10            # Default: 0
DM.PulayOnFile        F             # SystemLabel.P1, SystemLabel.P2
DM.Tolerance          1.d-4         # Default: 1.d-4
DM.UseSaveDM          .true.        # because of the bug
SCFMustConverge       .true.
NeglNonOverlapInt     F             # Default: F
#(5) Eigenvalue problem: order-N or diagonalization
SolutionMethod        Diagon        # or Transiesta
ElectronicTemperature 300.0 K       # Default: 300.0 K
#(6) Molecular dynamics and relaxations
#MD.TypeOfRun          CG            # Type of dynamics:
#MD.VariableCell       F
#MD.NumCGsteps         0           # 0 for single-point / 100 for gopt
#MD.MaxCGDispl         0.2 Bohr      # Default: 0.2 Bohr
#MD.MaxForceTol        0.02 eV/Ang   # Default: 0.04 eV/Ang
#MD.MaxStressTol       1.0 GPa       # Default: 1.0 GPa
# Geometry Constraints
#%block GeometryConstraints
#	position from 1 to 44
#%endblock GeometryConstraints
BandLinesScale   pi/a
%block BandLines
 1   0.00000000  0.00000000  0.00000000
50   0.00000000  0.07809418  0.00000000
50   0.04509075  0.07809242  0.00000000
20   0.00000000  0.00000000  0.00000000
%endblock BandLines
************************** End of input data file *****************************

reinit: -----------------------------------------------------------------------
reinit: System Name: GRP_doping
reinit: -----------------------------------------------------------------------
reinit: System Label: GRP_doping                                                  
reinit: -----------------------------------------------------------------------

initatom: Reading input for the pseudopotentials and atomic orbitals ----------
 Species number:            1  Label: N Atomic number:           7
 Species number:            2  Label: C Atomic number:           6
Ground state valence configuration:   2s02  2p03
Reading pseudopotential information in formatted form from N.psf

Valence configuration for pseudopotential generation:
2s( 2.00) rc: 1.48
2p( 3.00) rc: 1.48
3d( 0.00) rc: 1.48
4f( 0.00) rc: 1.48
Ground state valence configuration:   2s02  2p02
Reading pseudopotential information in formatted form from C.psf

Valence configuration for pseudopotential generation:
2s( 2.00) rc: 1.54
2p( 2.00) rc: 1.54
3d( 0.00) rc: 1.54
4f( 0.00) rc: 1.54
For N, standard SIESTA heuristics set lmxkb to 3
 (one more than the basis l, including polarization orbitals).
Use PS.lmax or PS.KBprojectors blocks to override.
For C, standard SIESTA heuristics set lmxkb to 3
 (one more than the basis l, including polarization orbitals).
Use PS.lmax or PS.KBprojectors blocks to override.

<basis_specs>
===============================================================================
N                    Z=   7    Mass=  14.010        Charge= 0.17977+309
Lmxo=1 Lmxkb= 3    BasisType=split      Semic=F
L=0  Nsemic=0  Cnfigmx=2
          n=1  nzeta=2  polorb=0
            splnorm:   0.15000    
               vcte:    0.0000    
               rinn:    0.0000    
                rcs:    0.0000      0.0000    
            lambdas:    1.0000      1.0000    
L=1  Nsemic=0  Cnfigmx=2
          n=1  nzeta=2  polorb=1
            splnorm:   0.15000    
               vcte:    0.0000    
               rinn:    0.0000    
                rcs:    0.0000      0.0000    
            lambdas:    1.0000      1.0000    
-------------------------------------------------------------------------------
L=0  Nkbl=1  erefs: 0.17977+309
L=1  Nkbl=1  erefs: 0.17977+309
L=2  Nkbl=1  erefs: 0.17977+309
L=3  Nkbl=1  erefs: 0.17977+309
===============================================================================
</basis_specs>

atom: Called for N                     (Z =   7)

read_vps: Pseudopotential generation method:
read_vps: ATM3      Troullier-Martins                       
Total valence charge:    5.00000

read_vps: Pseudopotential includes a core correction:
read_vps: Pseudo-core for xc-correction

xc_check: Exchange-correlation functional:
xc_check: GGA Perdew, Burke & Ernzerhof 1996
V l=0 = -2*Zval/r beyond r=  1.4606
V l=1 = -2*Zval/r beyond r=  1.4606
V l=2 = -2*Zval/r beyond r=  1.4606
V l=3 = -2*Zval/r beyond r=  1.4606
All V_l potentials equal beyond r=  1.4606
This should be close to max(r_c) in ps generation
All pots = -2*Zval/r beyond r=  1.4606

VLOCAL1: 99.0% of the norm of Vloc inside     20.347 Ry
VLOCAL1: 99.9% of the norm of Vloc inside     46.372 Ry
atom: Maximum radius for 4*pi*r*r*local-pseudopot. charge    1.76189
atom: Maximum radius for r*vlocal+2*Zval:    1.53550
GHOST: No ghost state for L =  0
GHOST: No ghost state for L =  1
GHOST: No ghost state for L =  2
GHOST: No ghost state for L =  3

KBgen: Kleinman-Bylander projectors: 
   l= 0   rc=  1.634559   el= -1.363963   Ekb=  5.296955   kbcos=  0.335621
   l= 1   rc=  1.614250   el= -0.521451   Ekb= -5.259161   kbcos= -0.433408
   l= 2   rc=  1.718383   el=  0.001991   Ekb= -1.271464   kbcos= -0.007566
   l= 3   rc=  1.761893   el=  0.003093   Ekb= -0.494769   kbcos= -0.001015

KBgen: Total number of  Kleinman-Bylander projectors:   16
atom: -------------------------------------------------------------------------

atom: SANKEY-TYPE ORBITALS:
atom: Selected multiple-zeta basis: split     

SPLIT: Orbitals with angular momentum L= 0

SPLIT: Basis orbitals for state 2s

SPLIT: PAO cut-off radius determined from an
SPLIT: energy shift=  0.007350 Ry

   izeta = 1
                 lambda =    1.000000
                     rc =    4.071465
                 energy =   -1.356470
                kinetic =    1.176977
    potential(screened) =   -2.533447
       potential(ionic) =   -8.057990

   izeta = 2
                 rmatch =    2.905100
              splitnorm =    0.150000
                 energy =   -1.158343
                kinetic =    1.813009
    potential(screened) =   -2.971352
       potential(ionic) =   -8.901931

SPLIT: Orbitals with angular momentum L= 1

SPLIT: Basis orbitals for state 2p

SPLIT: PAO cut-off radius determined from an
SPLIT: energy shift=  0.007350 Ry

   izeta = 1
                 lambda =    1.000000
                     rc =    4.972977
                 energy =   -0.513884
                kinetic =    3.441732
    potential(screened) =   -3.955616
       potential(ionic) =   -9.287901

   izeta = 2
                 rmatch =    3.054066
              splitnorm =    0.150000
                 energy =   -0.318226
                kinetic =    5.125348
    potential(screened) =   -5.443573
       potential(ionic) =  -11.380999

POLgen: Perturbative polarization orbital with L=  2

POLgen: Polarization orbital for state 2p

   izeta = 1
                     rc =    4.972977
                 energy =    1.607437
                kinetic =    3.268125
    potential(screened) =   -1.660688
       potential(ionic) =   -5.973652
atom: Total number of Sankey-type orbitals: 13

atm_pop: Valence configuration (for local Pseudopot. screening):
 2s( 2.00)                                                            
 2p( 3.00)                                                            
Vna: chval, zval:    5.00000   5.00000

Vna:  Cut-off radius for the neutral-atom potential:   4.972977
comcore: Pseudo-core radius Rcore=  1.554824

atom: _________________________________________________________________________

<basis_specs>
===============================================================================
C                    Z=   6    Mass=  12.010        Charge= 0.17977+309
Lmxo=1 Lmxkb= 3    BasisType=split      Semic=F
L=0  Nsemic=0  Cnfigmx=2
          n=1  nzeta=2  polorb=0
            splnorm:   0.15000    
               vcte:    0.0000    
               rinn:    0.0000    
                rcs:    0.0000      0.0000    
            lambdas:    1.0000      1.0000    
L=1  Nsemic=0  Cnfigmx=2
          n=1  nzeta=2  polorb=1
            splnorm:   0.15000    
               vcte:    0.0000    
               rinn:    0.0000    
                rcs:    0.0000      0.0000    
            lambdas:    1.0000      1.0000    
-------------------------------------------------------------------------------
L=0  Nkbl=1  erefs: 0.17977+309
L=1  Nkbl=1  erefs: 0.17977+309
L=2  Nkbl=1  erefs: 0.17977+309
L=3  Nkbl=1  erefs: 0.17977+309
===============================================================================
</basis_specs>

atom: Called for C                     (Z =   6)

read_vps: Pseudopotential generation method:
read_vps: ATM3      Troullier-Martins                       
Total valence charge:    4.00000

read_vps: Pseudopotential includes a core correction:
read_vps: Pseudo-core for xc-correction

xc_check: Exchange-correlation functional:
xc_check: GGA Perdew, Burke & Ernzerhof 1996
V l=0 = -2*Zval/r beyond r=  1.5227
V l=1 = -2*Zval/r beyond r=  1.5227
V l=2 = -2*Zval/r beyond r=  1.5227
V l=3 = -2*Zval/r beyond r=  1.5038
All V_l potentials equal beyond r=  1.5227
This should be close to max(r_c) in ps generation
All pots = -2*Zval/r beyond r=  1.5227

VLOCAL1: 99.0% of the norm of Vloc inside     18.722 Ry
VLOCAL1: 99.9% of the norm of Vloc inside     42.668 Ry
atom: Maximum radius for 4*pi*r*r*local-pseudopot. charge    1.83678
atom: Maximum radius for r*vlocal+2*Zval:    1.58088
GHOST: No ghost state for L =  0
GHOST: No ghost state for L =  1
GHOST: No ghost state for L =  2
GHOST: No ghost state for L =  3

KBgen: Kleinman-Bylander projectors: 
   l= 0   rc=  1.704034   el= -1.009801   Ekb=  5.335044   kbcos=  0.316824
   l= 1   rc=  1.704034   el= -0.388707   Ekb= -3.785862   kbcos= -0.366464
   l= 2   rc=  1.791422   el=  0.001971   Ekb= -0.970471   kbcos= -0.009212
   l= 3   rc=  1.859892   el=  0.003065   Ekb= -0.399525   kbcos= -0.001223

KBgen: Total number of  Kleinman-Bylander projectors:   16
atom: -------------------------------------------------------------------------

atom: SANKEY-TYPE ORBITALS:
atom: Selected multiple-zeta basis: split     

SPLIT: Orbitals with angular momentum L= 0

SPLIT: Basis orbitals for state 2s

SPLIT: PAO cut-off radius determined from an
SPLIT: energy shift=  0.007350 Ry

   izeta = 1
                 lambda =    1.000000
                     rc =    4.632753
                 energy =   -1.002270
                kinetic =    0.855760
    potential(screened) =   -1.858031
       potential(ionic) =   -5.417575

   izeta = 2
                 rmatch =    3.431921
              splitnorm =    0.150000
                 energy =   -0.867111
                kinetic =    1.300804
    potential(screened) =   -2.167915
       potential(ionic) =   -5.962684

SPLIT: Orbitals with angular momentum L= 1

SPLIT: Basis orbitals for state 2p

SPLIT: PAO cut-off radius determined from an
SPLIT: energy shift=  0.007350 Ry

   izeta = 1
                 lambda =    1.000000
                     rc =    5.658549
                 energy =   -0.381140
                kinetic =    2.399701
    potential(screened) =   -2.780841
       potential(ionic) =   -6.206085

   izeta = 2
                 rmatch =    3.653288
              splitnorm =    0.150000
                 energy =   -0.249149
                kinetic =    3.542762
    potential(screened) =   -3.791911
       potential(ionic) =   -7.581078

POLgen: Perturbative polarization orbital with L=  2

POLgen: Polarization orbital for state 2p

   izeta = 1
                     rc =    5.658549
                 energy =    1.109913
                kinetic =    2.304789
    potential(screened) =   -1.194876
       potential(ionic) =   -4.013592
atom: Total number of Sankey-type orbitals: 13

atm_pop: Valence configuration (for local Pseudopot. screening):
 2s( 2.00)                                                            
 2p( 2.00)                                                            
Vna: chval, zval:    4.00000   4.00000

Vna:  Cut-off radius for the neutral-atom potential:   5.658549
comcore: Pseudo-core radius Rcore=  1.791422

atom: _________________________________________________________________________

prinput: Basis input ----------------------------------------------------------

PAO.BasisType split     

%block ChemicalSpeciesLabel
    1    7 N                       # Species index, atomic number, species label
    2    6 C                       # Species index, atomic number, species label
%endblock ChemicalSpeciesLabel

%block PAO.Basis                 # Define Basis set
N                     2                    # Species label, number of l-shells
 n=2   0   2                         # n, l, Nzeta 
   4.071      2.905   
   1.000      1.000   
 n=2   1   2 P   1                   # n, l, Nzeta, Polarization, NzetaPol
   4.973      3.054   
   1.000      1.000   
C                     2                    # Species label, number of l-shells
 n=2   0   2                         # n, l, Nzeta 
   4.633      3.432   
   1.000      1.000   
 n=2   1   2 P   1                   # n, l, Nzeta, Polarization, NzetaPol
   5.659      3.653   
   1.000      1.000   
%endblock PAO.Basis

prinput: ----------------------------------------------------------------------

coor:   Atomic-coordinates input format  =     Fractional

siesta: Atomic coordinates (Bohr) and species
siesta:     -0.02582  13.34970   0.00000  1        1
siesta:      2.30256  17.38257   0.00000  1        2
siesta:     -4.68258  13.34970   0.00000  1        3
siesta:     -2.35420  14.69411   0.00000  1        4
siesta:     -0.02582  18.72698   0.00000  1        5
siesta:     -0.02582  21.41544   0.00000  1        6
siesta:     -7.01096  14.69411   0.00000  1        7
siesta:     -7.01096  17.38257   0.00000  1        8
siesta:     -4.68258  21.41544   0.00000  1        9
siesta:     -2.35420  22.75985   0.00000  1       10
siesta:     -9.33934  18.72698   0.00000  1       11
siesta:     -7.01096  22.75985   0.00000  1       12
siesta:     -4.68258  26.79272   0.00000  1       13
siesta:     -4.68258  29.48119   0.00000  1       14
siesta:     -2.35420  30.82560   0.00000  1       15
siesta:     -2.35420  33.51406   0.00000  1       16
siesta:     -0.02582  34.85847   0.00000  1       17
siesta:     -0.02582   2.59549   0.00000  2       18
siesta:     -0.02582   5.28395   0.00000  2       19
siesta:     -2.35420  38.89134   0.00000  2       20
siesta:     -2.35420  41.57980   0.00000  2       21
siesta:      2.30256  38.89134   0.00000  2       22
siesta:      2.30256  41.57980   0.00000  2       23
siesta:      4.63094  34.85847   0.00000  2       24
siesta:      4.63094  37.54693   0.00000  2       25
siesta:      6.95932  30.82560   0.00000  2       26
siesta:      6.95932  33.51406   0.00000  2       27
siesta:      9.28770  26.79272   0.00000  2       28
siesta:      9.28770  29.48119   0.00000  2       29
siesta:     -4.68258  34.85847   0.00000  2       30
siesta:     -4.68258  37.54693   0.00000  2       31
siesta:      2.30256   6.62836   0.00000  2       32
siesta:      2.30256   9.31683   0.00000  2       33
siesta:      4.63094  10.66124   0.00000  2       34
siesta:      4.63094  13.34970   0.00000  2       35
siesta:      6.95932  14.69411   0.00000  2       36
siesta:      6.95932  17.38257   0.00000  2       37
siesta:      9.28770  18.72698   0.00000  2       38
siesta:      9.28770  21.41544   0.00000  2       39
siesta:     11.61608  22.75985   0.00000  2       40
siesta:     11.61608  25.44831   0.00000  2       41
siesta:     -2.35420   6.62836   0.00000  2       42
siesta:     -2.35420   9.31683   0.00000  2       43
siesta:     -0.02582  10.66124   0.00000  2       44
siesta:      2.30256  14.69411   0.00000  2       45
siesta:      4.63094  18.72698   0.00000  2       46
siesta:      4.63094  21.41544   0.00000  2       47
siesta:      6.95932  22.75985   0.00000  2       48
siesta:      6.95932  25.44831   0.00000  2       49
siesta:     -4.68258  10.66124   0.00000  2       50
siesta:     -2.35420  17.38257   0.00000  2       51
siesta:      2.30256  22.75985   0.00000  2       52
siesta:      2.30256  25.44831   0.00000  2       53
siesta:     -4.68258  18.72698   0.00000  2       54
siesta:     -2.35420  25.44831   0.00000  2       55
siesta:     -9.33934  21.41544   0.00000  2       56
siesta:     -7.01096  25.44831   0.00000  2       57
siesta:    -11.66772  22.75985   0.00000  2       58
siesta:    -11.66772  25.44831   0.00000  2       59
siesta:     -9.33934  26.79272   0.00000  2       60
siesta:     -9.33934  29.48119   0.00000  2       61
siesta:      4.63094  26.79272   0.00000  2       62
siesta:      4.63094  29.48119   0.00000  2       63
siesta:     -0.02582  26.79272   0.00000  2       64
siesta:     -0.02582  29.48119   0.00000  2       65
siesta:      2.30256  30.82560   0.00000  2       66
siesta:      2.30256  33.51406   0.00000  2       67
siesta:     -7.01096  30.82560   0.00000  2       68
siesta:     -7.01096  33.51406   0.00000  2       69
siesta:     -0.02582  37.54693   0.00000  2       70
siesta:     -0.02582  42.92421   0.00000  2       71
siesta:     -0.02582  45.61267   0.00000  2       72

siesta: System type = slab      

initatomlists: Number of atoms, orbitals, and projectors:     72   936  1152

siesta: ******************** Simulation parameters ****************************
siesta:
siesta: The following are some of the parameters of the simulation.
siesta: A complete list of the parameters used, including default values,
siesta: can be found in file out.fdf
siesta:
redata: Non-Collinear-spin run           =     F
redata: SpinPolarized (Up/Down) run      =     F
redata: Number of spin components        =     1
redata: Long output                      =     F
redata: Number of Atomic Species         =        2
redata: Charge density info will appear in .RHO file
redata: Write Mulliken Pop.              =     NO
redata: Mesh Cutoff                      =   200.0000  Ry
redata: Net charge of the system         =     0.0000 |e|
redata: Max. number of SCF Iter          =      500
redata: SCF convergence failure will abort job
redata: Performing Pulay mixing using    =    10 iterations
redata: Mix DM in first SCF step ?       =     F
redata: Write Pulay info on disk?        =     F
redata: Discard 1st Pulay DM after  kick =     F
redata: New DM Mixing Weight             =     0.0500
redata: New DM Occupancy tolerance       = 0.000000000001
redata: No kicks to SCF
redata: DM Mixing Weight for Kicks       =     0.5000
redata: DM Tolerance for SCF             =     0.000100
redata: Require Energy convergence for SCF =     F
redata: DM Energy tolerance for SCF      =     0.000100 eV
redata: Require Harris convergence for SCF =     F
redata: DM Harris energy tolerance for SCF =     0.000100 eV
redata: Using Saved Data (generic)   =     F
redata: Use continuation files for DM    =     T
redata: Neglect nonoverlap interactions  =     F
redata: Method of Calculation            =     Diagonalization
redata: Divide and Conquer               =     T
redata: Electronic Temperature           =     0.0019  Ry
redata: Fix the spin of the system       =     F
redata: Dynamics option                  =     Verlet MD run
redata: Initial MD time step             =        1
redata:   Final MD time step             =        1
redata: Length of MD time step           =     1.0000  fs
redata: Initial Temperature of MD run    =     0.0000  K
redata: Perform a MD quench              =     F
redata: ***********************************************************************
Total number of electrons:   305.000000
Total ionic charge:   305.000000

* ProcessorY, Blocksize:    3  24

k-point displ. along   1 input, could be:     0.50    0.00
k-point displ. along   2 input, could be:     0.50    0.00
 Kpoints in:          231 . Kpoints trimmed:          231

siesta: k-grid: Number of k-points =   231
siesta: k-grid: Cutoff (effective) =     5.000 Ang
siesta: k-grid: Supercell and displacements
siesta: k-grid:   21   0   0      0.500
siesta: k-grid:    0  21   0      0.500
siesta: k-grid:    0   0   1      0.000
Naive supercell factors:     2    2    2

superc: Internal auxiliary supercell:     2 x     2 x     2  =       8
superc: Number of atoms, orbitals, and projectors:    576   7488   9216

* Maximum dynamic memory allocated =     4 MB

siesta:                 ==============================
                            Begin MD step =      1
                        ==============================

superc: Internal auxiliary supercell:     2 x     2 x     2  =       8
superc: Number of atoms, orbitals, and projectors:    576   7488   9216

outcell: Unit cell vectors (Ang):
       12.804619    7.392750    0.000000
        0.000000   14.785500    0.000000
        0.000000    0.000000   10.000000

outcell: Cell vector modules (Ang)   :   14.785500   14.785500   10.000000
outcell: Cell angles (23,13,12) (deg):     90.0000     90.0000     60.0000
outcell: Cell volume (Ang**3)        :   1893.2269
New_DM. Step:     1
Initializing Density Matrix...

InitMesh: MESH =   120 x   120 x    90 =     1296000
InitMesh: Mesh cutoff (required, used) =   200.000   223.865 Ry

* Maximum dynamic memory allocated =   134 MB

stepf: Fermi-Dirac step function

siesta: Program's energy decomposition (eV):
siesta: Ebs     =     -6204.435968
siesta: Eions   =     21135.707422
siesta: Ena     =      4895.875657
siesta: Ekin    =      7804.862351
siesta: Enl     =       135.128154
siesta: DEna    =        -0.000015
siesta: DUscf   =         0.000000
siesta: DUext   =         0.000000
siesta: Exc     =     -4595.767970
siesta: eta*DQ  =         0.000000
siesta: Emadel  =         0.000000
siesta: Emeta   =         0.000000
siesta: Emolmec =         0.000000
siesta: Ekinion =         0.000000
siesta: Eharris =    -12533.327489
siesta: Etot    =    -12895.609245
siesta: FreeEng =    -12895.609245

siesta: iscf   Eharris(eV)      E_KS(eV)   FreeEng(eV)   dDmax  Ef(eV)
siesta:    1   -12533.3275   -12895.6092   -12895.6092  5.9534 -6.9826
timer: Routine,Calls,Time,% = IterSCF        1    3012.074  99.59
elaps: Routine,Calls,Wall,% = IterSCF        1     251.605  99.59
siesta:    2   -17023.6560   -11881.6764   -11881.7149 19.0010 -3.9130
siesta:    3   -12448.7167   -12704.7368   -12704.7851  2.3537 -5.1813
siesta:    4   -12433.4136   -12548.3770   -12548.4103  1.1624 -4.0382
siesta:    5   -12384.2455   -12506.4746   -12506.5156  0.8708 -3.9062
siesta:    6   -12374.9550   -12451.9788   -12452.0132  0.7718 -3.8681
siesta:    7   -12372.6536   -12440.8295   -12440.8603  0.7623 -3.9794
siesta:    8   -12370.4610   -12432.6520   -12432.6844  0.6730 -3.9979
siesta:    9   -12368.3198   -12416.9792   -12417.0109  0.5590 -3.9424
siesta:   10   -12369.0475   -12377.9004   -12377.9762  0.4067 -3.9294
siesta:   11   -12368.6022   -12365.8981   -12365.9703  0.3424 -3.8763
siesta:   12   -12368.3598   -12354.3854   -12354.4486  0.4403 -3.8160
siesta:   13   -12367.9449   -12348.7586   -12348.8196  0.2107 -3.8649
siesta:   14   -12367.2816   -12350.3284   -12350.4189  0.2177 -3.8837
siesta:   15   -12366.9191   -12347.4914   -12347.5472  0.1445 -3.8949
siesta:   16   -12366.6615   -12351.0256   -12351.0970  0.1377 -3.8867
siesta:   17   -12366.5775   -12350.3226   -12350.3829  0.1454 -3.9007
siesta:   18   -12366.5230   -12351.4031   -12351.4640  0.0957 -3.9014
siesta:   19   -12366.4837   -12355.1124   -12355.1809  0.0693 -3.9149
siesta:   20   -12366.4822   -12361.7894   -12361.8588  0.0876 -3.9390
siesta:   21   -12366.4731   -12363.9337   -12364.0031  0.0348 -3.9420
siesta:   22   -12366.4679   -12364.8243   -12364.8963  0.0394 -3.9408
siesta:   23   -12366.4595   -12366.1698   -12366.2388  0.0157 -3.9352
siesta:   24   -12366.4616   -12366.6091   -12366.6825  0.0102 -3.9310
siesta:   25   -12366.4581   -12366.3337   -12366.4056  0.0114 -3.9291
siesta:   26   -12366.4592   -12366.9033   -12366.9760  0.0107 -3.9285
siesta:   27   -12366.4582   -12366.7767   -12366.8472  0.0069 -3.9292
siesta:   28   -12366.4578   -12366.7150   -12366.7859  0.0047 -3.9295
siesta:   29   -12366.4580   -12366.7533   -12366.8245  0.0046 -3.9300
siesta:   30   -12366.4577   -12366.7236   -12366.7947  0.0019 -3.9306
siesta:   31   -12366.4578   -12366.7205   -12366.7917  0.0016 -3.9308
siesta:   32   -12366.4578   -12366.5877   -12366.6588  0.0012 -3.9305
siesta:   33   -12366.4578   -12366.4846   -12366.5557  0.0007 -3.9306
siesta:   34   -12366.4578   -12366.4731   -12366.5442  0.0005 -3.9307
siesta:   35   -12366.4577   -12366.4792   -12366.5503  0.0003 -3.9307
siesta:   36   -12366.4577   -12366.4814   -12366.5525  0.0002 -3.9307
siesta:   37   -12366.4577   -12366.4779   -12366.5490  0.0002 -3.9307
siesta:   38   -12366.4577   -12366.4734   -12366.5446  0.0002 -3.9307
siesta:   39   -12366.4577   -12366.4676   -12366.5388  0.0002 -3.9307
siesta:   40   -12366.4577   -12366.4613   -12366.5325  0.0001 -3.9307
siesta:   41   -12366.4577   -12366.4595   -12366.5307  0.0001 -3.9307
siesta:   42   -12366.4577   -12366.4595   -12366.5306  0.0001 -3.9307

siesta: E_KS(eV) =           -12366.4592

siesta: E_KS - E_eggbox =    -12366.4592

siesta: Atomic forces (eV/Ang):
----------------------------------------
   Tot    0.134127    0.121884    0.000000
----------------------------------------
   Max  686.353563
   Res  172.832697    sqrt( Sum f_i^2 / 3N )
----------------------------------------
   Max  686.353563    constrained

Stress-tensor-Voigt (kbar):     -681.79    -3074.09       -0.08        6.46        0.00        0.00
(Free)E + p*V (eV/cell)   -10887.1241
Target enthalpy (eV/cell)   -12366.5303

siesta: Stress tensor (static) (eV/Ang**3):
        -0.425533    0.004030    0.000000
         0.004030   -1.918676    0.000000
         0.000000    0.000000   -0.000052

siesta: Pressure (static):       1251.98712311  kBar

siesta: Stress tensor (total) (eV/Ang**3):
        -0.425533    0.004030    0.000000
         0.004030   -1.918676    0.000000
         0.000000    0.000000   -0.000052

siesta: Pressure (total):       1251.98712311  kBar

siesta: Temp_ion =       0.000 K

* Maximum dynamic memory allocated =   147 MB
Computing bands...

siesta: Program's energy decomposition (eV):
siesta: Ebs     =     -4954.026173
siesta: Eions   =     21135.707422
siesta: Ena     =      4895.875657
siesta: Ekin    =     10883.802164
siesta: Enl     =     -1552.973346
siesta: DEna    =      -795.087430
siesta: DUscf   =       108.149038
siesta: DUext   =         0.000000
siesta: Exc     =     -4770.517855
siesta: eta*DQ  =         0.000000
siesta: Emadel  =         0.000000
siesta: Emeta   =         0.000000
siesta: Emolmec =         0.000000
siesta: Ekinion =         0.000000
siesta: Eharris =    -12366.457712
siesta: Etot    =    -12366.459193
siesta: FreeEng =    -12366.530341

siesta: Final energy (eV):
siesta:  Band Struct. =   -4954.026173
siesta:       Kinetic =   10883.802164
siesta:       Hartree =   35382.555428
siesta:    Ext. field =       0.000000
siesta:   Exch.-corr. =   -4770.517855
siesta:  Ion-electron =  -81179.064210
siesta:       Ion-ion =   27316.765280
siesta:       Ekinion =       0.000000
siesta:         Total =  -12366.459193

siesta: Atomic forces (eV/Ang):
siesta:      1    1.666432 -124.450622    0.000000
siesta:      2   36.772245  -13.903341    0.000000
siesta:      3  -29.590430  -13.841909    0.000000
siesta:      4   -5.013782  686.353563    0.000000
siesta:      5  -16.973605  685.323110    0.000000
siesta:      6    0.277237   -4.527767    0.000000
siesta:      7   -1.104803    2.682493    0.000000
siesta:      8    2.738905    0.896199    0.000000
siesta:      9   -0.045791   -1.347981    0.000000
siesta:     10   -2.682959    2.185633    0.000000
siesta:     11    0.031658    1.055933    0.000000
siesta:     12    0.428407    2.993531    0.000000
siesta:     13    0.796349   -3.104006    0.000000
siesta:     14   -1.006736   -3.096075    0.000000
siesta:     15  -26.114966    2.012645    0.000000
siesta:     16   -2.994076 -669.919251    0.000000
siesta:     17    1.772826  124.713129    0.000000
siesta:     18  -15.740145  551.284906    0.000000
siesta:     19    0.708377 -121.431684    0.000000
siesta:     20   -0.266403  115.911993    0.000000
siesta:     21  -22.949004 -653.363864    0.000000
siesta:     22   -2.286277  125.492259    0.000000
siesta:     23    2.831171 -551.950197    0.000000
siesta:     24   27.401943    6.560395    0.000000
siesta:     25   35.462366 -549.285145    0.000000
siesta:     26    1.968005    0.098697    0.000000
siesta:     27   -2.917489    1.807030    0.000000
siesta:     28    2.014367    2.579135    0.000000
siesta:     29   -1.589018   -0.194359    0.000000
siesta:     30  -26.966529    9.999045    0.000000
siesta:     31  -34.311556 -550.419404    0.000000
siesta:     32   -1.328203  547.708404    0.000000
siesta:     33   -0.961484 -124.106389    0.000000
siesta:     34   33.803935  548.812430    0.000000
siesta:     35   26.913700   -5.618040    0.000000
siesta:     36   -2.378959   -1.776930    0.000000
siesta:     37    1.461812   -0.256818    0.000000
siesta:     38   -1.308148    0.129012    0.000000
siesta:     39    2.086669   -2.673657    0.000000
siesta:     40   -0.251505    7.600701    0.000000
siesta:     41   -0.098627   -7.745163    0.000000
siesta:     42  -19.590931  656.324948    0.000000
siesta:     43    0.073289 -120.511794    0.000000
siesta:     44    3.207816  537.706464    0.000000
siesta:     45   20.091940  564.428747    0.000000
siesta:     46   -0.855692    2.312708    0.000000
siesta:     47   -1.019595   -1.042902    0.000000
siesta:     48   -0.015873    1.141411    0.000000
siesta:     49   -0.193169   -0.928973    0.000000
siesta:     50  -26.314123  550.097137    0.000000
siesta:     51  -24.143739   -9.698304    0.000000
siesta:     52    0.882346    1.345305    0.000000
siesta:     53   -0.107282   -1.417622    0.000000
siesta:     54   -1.000573    1.026374    0.000000
siesta:     55   -0.299163    1.244199    0.000000
siesta:     56   -0.465146   -3.933749    0.000000
siesta:     57    0.050202   -0.924700    0.000000
siesta:     58    0.869429    4.731215    0.000000
siesta:     59    0.085760   -6.453142    0.000000
siesta:     60   -0.568937    1.292485    0.000000
siesta:     61    1.474286    0.940521    0.000000
siesta:     62    0.338419    0.129631    0.000000
siesta:     63   -1.514938   -2.520633    0.000000
siesta:     64   -1.437788   -0.763987    0.000000
siesta:     65   15.949246 -575.514854    0.000000
siesta:     66   24.478414    4.198309    0.000000
siesta:     67   23.963115 -563.749917    0.000000
siesta:     68   -1.885522    0.507142    0.000000
siesta:     69    2.315140   -0.238634    0.000000
siesta:     70   -4.725895 -537.897767    0.000000
siesta:     71   -0.255686  114.864487    0.000000
siesta:     72   10.492866 -639.759862    0.000000
siesta: ----------------------------------------
siesta:    Tot    0.134127    0.121884    0.000000

siesta: Stress tensor (static) (eV/Ang**3):
siesta:    -0.425533    0.004030    0.000000
siesta:     0.004030   -1.918676    0.000000
siesta:     0.000000    0.000000   -0.000052

siesta: Cell volume =       1893.226884 Ang**3

siesta: Pressure (static):
siesta:                Solid            Molecule  Units
siesta:           0.00851067          0.13585446  Ry/Bohr**3
siesta:           0.78142045         12.47369417  eV/Ang**3
siesta:        1251.98712311      19985.27735925  kBar
(Free)E+ p_basis*V_orbitals  =      -12338.223104
(Free)Eharris+ p_basis*V_orbitals  =      -12338.221363

siesta: Electric dipole (a.u.)  =    0.000000    0.000000    0.000000
siesta: Electric dipole (Debye) =    0.000000    0.000000    0.000000

* Maximum dynamic memory allocated : Node    0 =   147 MB
* Maximum dynamic memory allocated : Node    1 =    58 MB
* Maximum dynamic memory allocated : Node    2 =    60 MB
* Maximum dynamic memory allocated : Node    3 =   135 MB
* Maximum dynamic memory allocated : Node    4 =   144 MB
* Maximum dynamic memory allocated : Node    5 =    53 MB
* Maximum dynamic memory allocated : Node    6 =    54 MB
* Maximum dynamic memory allocated : Node    7 =   136 MB
* Maximum dynamic memory allocated : Node    8 =   126 MB
* Maximum dynamic memory allocated : Node    9 =    52 MB
* Maximum dynamic memory allocated : Node   10 =    54 MB
* Maximum dynamic memory allocated : Node   11 =   122 MB

* Maximum memory occured during matrixMtoO                    

timer: CPU execution times:
timer:  Routine       Calls   Time/call    Tot.time        %
timer:  siesta            1  123501.491  123501.491   100.00
timer:  Setup             1       3.359       3.359     0.00
timer:  bands             3     226.620     679.861     0.55
timer:  writewave         1       0.022       0.022     0.00
timer:  KSV_init          1       0.003       0.003     0.00
timer:  IterMD            1  122811.289  122811.289    99.44
timer:  hsparse           1       0.168       0.168     0.00
timer:  overlap           1       7.561       7.561     0.01
timer:  IterSCF          42    2921.209  122690.758    99.34
timer:  kinefsm           2       3.825       7.649     0.01
timer:  nlefsm            2      18.305      36.610     0.03
timer:  DHSCF            43      59.501    2558.564     2.07
timer:  DHSCF1            1       0.899       0.899     0.00
timer:  DHSCF2            1      24.344      24.344     0.02
timer:  REORD           346       0.002       0.835     0.00
timer:  POISON           44       0.451      19.824     0.02
timer:  DHSCF3           43      58.430    2512.497     2.03
timer:  rhoofd           43      12.203     524.719     0.42
timer:  cellXC           43       2.399     103.175     0.08
timer:  vmat             43      27.507    1182.811     0.96
timer:  MolMec            2       0.000       0.000     0.00
timer:  diagon           42    2860.581  120144.384    97.28
timer:  c-eigval       9823       5.598   54992.424    44.53
timer:  c-buildHS      9823       0.032     317.905     0.26
timer:  cdiag         19525       5.699  111279.752    90.10
timer:  cdiag1        19525       0.260    5084.903     4.12
timer:  cdiag2        19525       1.835   35838.007    29.02
timer:  cdiag3        19525       3.395   66289.904    53.68
timer:  cdiag4        19525       0.089    1729.916     1.40
timer:  c-eigvec       9702       5.862   56868.677    46.05
timer:  c-buildD       9702       0.918    8909.445     7.21
timer:  DHSCF4            1      20.566      20.566     0.02
timer:  dfscf             1      19.151      19.151     0.02
timer:  overfsm           1       0.284       0.284     0.00
timer:  optical           1       6.367       6.367     0.01
  

elaps: ELAPSED times:
elaps:  Routine       Calls   Time/call    Tot.time        %
elaps:  siesta            1   10316.003   10316.003   100.00
elaps:  Setup             1       0.280       0.280     0.00
elaps:  bands             3      18.945      56.835     0.55
elaps:  writewave         1       0.002       0.002     0.00
elaps:  KSV_init          1       0.000       0.000     0.00
elaps:  IterMD            1   10258.351   10258.351    99.44
elaps:  hsparse           1       0.017       0.017     0.00
elaps:  overlap           1       0.712       0.712     0.01
elaps:  IterSCF          42     244.007   10248.284    99.34
elaps:  kinefsm           2       0.363       0.727     0.01
elaps:  nlefsm            2       1.615       3.230     0.03
elaps:  DHSCF            43       5.012     215.534     2.09
elaps:  DHSCF1            1       0.077       0.077     0.00
elaps:  DHSCF2            1       2.032       2.032     0.02
elaps:  REORD           346       0.000       0.103     0.00
elaps:  POISON           44       0.038       1.679     0.02
elaps:  DHSCF3           43       4.881     209.903     2.03
elaps:  rhoofd           43       2.187      94.033     0.91
elaps:  cellXC           43       0.200       8.598     0.08
elaps:  vmat             43       2.298      98.834     0.96
elaps:  MolMec            2       0.000       0.000     0.00
elaps:  diagon           42     238.949   10035.871    97.28
elaps:  c-eigval       9823       0.468    4593.436    44.53
elaps:  c-buildHS      9823       0.003      34.296     0.33
elaps:  cdiag         19525       0.471    9199.483    89.18
elaps:  cdiag1        19525       0.021     416.218     4.03
elaps:  cdiag2        19525       0.153    2996.208    29.04
elaps:  cdiag3        19525       0.284    5545.269    53.75
elaps:  cdiag4        19525       0.007     138.361     1.34
elaps:  c-eigvec       9702       0.481    4669.767    45.27
elaps:  c-buildD       9702       0.085     824.286     7.99
elaps:  DHSCF4            1       3.480       3.480     0.03
elaps:  dfscf             1       3.291       3.291     0.03
elaps:  overfsm           1       0.031       0.031     0.00
elaps:  optical           1       0.000       0.000     0.00
  
>> End of run:  30-APR-2016   6:04:22
