Siesta Version:                                        siesta-3.2-pl-3
Architecture  : x86_64-unknown-linux-gnu--unknown
Compiler flags: mpiifort -g -O2 -fPIC -xSSE4.1 -fp-model source -shared-intel 
PARALLEL version

* Running on    8 nodes in parallel
>> Start of run:  25-APR-2016   1:27:43

                           ***********************       
                           *  WELCOME TO SIESTA  *       
                           ***********************       

reinit: Reading from standard input
************************** Dump of input data file ****************************
#(1) General system descriptors
SystemName            GRP_doping    # Descriptive name of the system
SystemLabel           GRP_doping    # Short name for naming files
%include STRUCT.fdf
%include KPT.fdf
%include BASIS.fdf
#%include TS.fdf # for transiesta calculation
#(4) DFT, Grid, SCF
XC.functional         GGA           # LDA or GGA (default = LDA)
XC.authors            PBE           # CA (Ceperley-Aldr) = PZ
                                    #    (Perdew-Zunger) - LDA - Default
                                    # PW92 (Perdew-Wang-92) - LDA
                                    # PBE (Perdew-Burke-Ernzerhof) - GGA
MeshCutoff            200.000000    Ry      # Default: 50.0 Ry ~ 0.444 Bohr
                                    #         100.0 Ry ~ 0.314 Bohr
MaxSCFIterations      500           # Default: 50
DM.MixingWeight       0.05          # Default: 0.25
DM.NumberPulay        10            # Default: 0
DM.PulayOnFile        F             # SystemLabel.P1, SystemLabel.P2
DM.Tolerance          1.d-4         # Default: 1.d-4
DM.UseSaveDM          .true.        # because of the bug
SCFMustConverge       .true.
NeglNonOverlapInt     F             # Default: F
#(5) Eigenvalue problem: order-N or diagonalization
SolutionMethod        Diagon        # or Transiesta
ElectronicTemperature 300.0 K       # Default: 300.0 K
#(6) Molecular dynamics and relaxations
#MD.TypeOfRun          CG            # Type of dynamics:
#MD.VariableCell       F
#MD.NumCGsteps         0           # 0 for single-point / 100 for gopt
#MD.MaxCGDispl         0.2 Bohr      # Default: 0.2 Bohr
#MD.MaxForceTol        0.02 eV/Ang   # Default: 0.04 eV/Ang
#MD.MaxStressTol       1.0 GPa       # Default: 1.0 GPa
# Geometry Constraints
#%block GeometryConstraints
#	position from 1 to 44
#%endblock GeometryConstraints
BandLinesScale   pi/a
%block BandLines
 1   0.00000000  0.00000000  0.00000000
50   0.00000000  0.07809418  0.00000000
50   0.04509075  0.07809242  0.00000000
20   0.00000000  0.00000000  0.00000000
%endblock BandLines
************************** End of input data file *****************************

reinit: -----------------------------------------------------------------------
reinit: System Name: GRP_doping
reinit: -----------------------------------------------------------------------
reinit: System Label: GRP_doping                                                  
reinit: -----------------------------------------------------------------------

initatom: Reading input for the pseudopotentials and atomic orbitals ----------
 Species number:            1  Label: B Atomic number:           5
 Species number:            2  Label: C Atomic number:           6
Ground state valence configuration:   2s02  2p01
Reading pseudopotential information in formatted form from B.psf

Valence configuration for pseudopotential generation:
2s( 2.00) rc: 1.74
2p( 1.00) rc: 1.74
3d( 0.00) rc: 1.74
4f( 0.00) rc: 1.74
Ground state valence configuration:   2s02  2p02
Reading pseudopotential information in formatted form from C.psf

Valence configuration for pseudopotential generation:
2s( 2.00) rc: 1.54
2p( 2.00) rc: 1.54
3d( 0.00) rc: 1.54
4f( 0.00) rc: 1.54
For B, standard SIESTA heuristics set lmxkb to 3
 (one more than the basis l, including polarization orbitals).
Use PS.lmax or PS.KBprojectors blocks to override.
For C, standard SIESTA heuristics set lmxkb to 3
 (one more than the basis l, including polarization orbitals).
Use PS.lmax or PS.KBprojectors blocks to override.

<basis_specs>
===============================================================================
B                    Z=   5    Mass=  10.810        Charge= 0.17977+309
Lmxo=1 Lmxkb= 3    BasisType=split      Semic=F
L=0  Nsemic=0  Cnfigmx=2
          n=1  nzeta=2  polorb=0
            splnorm:   0.15000    
               vcte:    0.0000    
               rinn:    0.0000    
                rcs:    0.0000      0.0000    
            lambdas:    1.0000      1.0000    
L=1  Nsemic=0  Cnfigmx=2
          n=1  nzeta=2  polorb=1
            splnorm:   0.15000    
               vcte:    0.0000    
               rinn:    0.0000    
                rcs:    0.0000      0.0000    
            lambdas:    1.0000      1.0000    
-------------------------------------------------------------------------------
L=0  Nkbl=1  erefs: 0.17977+309
L=1  Nkbl=1  erefs: 0.17977+309
L=2  Nkbl=1  erefs: 0.17977+309
L=3  Nkbl=1  erefs: 0.17977+309
===============================================================================
</basis_specs>

atom: Called for B                     (Z =   5)

read_vps: Pseudopotential generation method:
read_vps: ATM3      Troullier-Martins                       
Total valence charge:    3.00000

read_vps: Pseudopotential includes a core correction:
read_vps: Pseudo-core for xc-correction

xc_check: Exchange-correlation functional:
xc_check: GGA Perdew, Burke & Ernzerhof 1996
V l=0 = -2*Zval/r beyond r=  1.7165
V l=1 = -2*Zval/r beyond r=  1.7165
V l=2 = -2*Zval/r beyond r=  1.7165
V l=3 = -2*Zval/r beyond r=  1.6951
All V_l potentials equal beyond r=  1.7165
This should be close to max(r_c) in ps generation
All pots = -2*Zval/r beyond r=  1.7165

VLOCAL1: 99.0% of the norm of Vloc inside     14.733 Ry
VLOCAL1: 99.9% of the norm of Vloc inside     33.577 Ry
atom: Maximum radius for 4*pi*r*r*local-pseudopot. charge    2.04484
atom: Maximum radius for r*vlocal+2*Zval:    1.75994
GHOST: No ghost state for L =  0
GHOST: No ghost state for L =  1
GHOST: No ghost state for L =  2
GHOST: No ghost state for L =  3

KBgen: Kleinman-Bylander projectors: 
   l= 0   rc=  1.897051   el= -0.693730   Ekb=  4.595746   kbcos=  0.286105
   l= 1   rc=  1.920920   el= -0.265236   Ekb= -2.350715   kbcos= -0.315747
   l= 2   rc=  2.044840   el=  0.002055   Ekb= -0.690767   kbcos= -0.013822
   l= 3   rc=  2.149707   el=  0.003188   Ekb= -0.315358   kbcos= -0.002055

KBgen: Total number of  Kleinman-Bylander projectors:   16
atom: -------------------------------------------------------------------------

atom: SANKEY-TYPE ORBITALS:
atom: Selected multiple-zeta basis: split     

SPLIT: Orbitals with angular momentum L= 0

SPLIT: Basis orbitals for state 2s

SPLIT: PAO cut-off radius determined from an
SPLIT: energy shift=  0.007350 Ry

   izeta = 1
                 lambda =    1.000000
                     rc =    5.422032
                 energy =   -0.686029
                kinetic =    0.576707
    potential(screened) =   -1.262736
       potential(ionic) =   -3.271094

   izeta = 2
                 rmatch =    4.222573
              splitnorm =    0.150000
                 energy =   -0.602132
                kinetic =    0.858975
    potential(screened) =   -1.461107
       potential(ionic) =   -3.582536

SPLIT: Orbitals with angular momentum L= 1

SPLIT: Basis orbitals for state 2p

SPLIT: PAO cut-off radius determined from an
SPLIT: energy shift=  0.007350 Ry

   izeta = 1
                 lambda =    1.000000
                     rc =    6.790259
                 energy =   -0.258578
                kinetic =    1.481412
    potential(screened) =   -1.739989
       potential(ionic) =   -3.657461

   izeta = 2
                 rmatch =    4.608740
              splitnorm =    0.150000
                 energy =   -0.173757
                kinetic =    2.186690
    potential(screened) =   -2.360447
       potential(ionic) =   -4.464260

POLgen: Perturbative polarization orbital with L=  2

POLgen: Polarization orbital for state 2p

   izeta = 1
                     rc =    6.790259
                 energy =    0.684082
                kinetic =    1.471481
    potential(screened) =   -0.787399
       potential(ionic) =   -2.406985
atom: Total number of Sankey-type orbitals: 13

atm_pop: Valence configuration (for local Pseudopot. screening):
 2s( 2.00)                                                            
 2p( 1.00)                                                            
Vna: chval, zval:    3.00000   3.00000

Vna:  Cut-off radius for the neutral-atom potential:   6.790259
comcore: Pseudo-core radius Rcore=  2.122997

atom: _________________________________________________________________________

<basis_specs>
===============================================================================
C                    Z=   6    Mass=  12.010        Charge= 0.17977+309
Lmxo=1 Lmxkb= 3    BasisType=split      Semic=F
L=0  Nsemic=0  Cnfigmx=2
          n=1  nzeta=2  polorb=0
            splnorm:   0.15000    
               vcte:    0.0000    
               rinn:    0.0000    
                rcs:    0.0000      0.0000    
            lambdas:    1.0000      1.0000    
L=1  Nsemic=0  Cnfigmx=2
          n=1  nzeta=2  polorb=1
            splnorm:   0.15000    
               vcte:    0.0000    
               rinn:    0.0000    
                rcs:    0.0000      0.0000    
            lambdas:    1.0000      1.0000    
-------------------------------------------------------------------------------
L=0  Nkbl=1  erefs: 0.17977+309
L=1  Nkbl=1  erefs: 0.17977+309
L=2  Nkbl=1  erefs: 0.17977+309
L=3  Nkbl=1  erefs: 0.17977+309
===============================================================================
</basis_specs>

atom: Called for C                     (Z =   6)

read_vps: Pseudopotential generation method:
read_vps: ATM3      Troullier-Martins                       
Total valence charge:    4.00000

read_vps: Pseudopotential includes a core correction:
read_vps: Pseudo-core for xc-correction

xc_check: Exchange-correlation functional:
xc_check: GGA Perdew, Burke & Ernzerhof 1996
V l=0 = -2*Zval/r beyond r=  1.5227
V l=1 = -2*Zval/r beyond r=  1.5227
V l=2 = -2*Zval/r beyond r=  1.5227
V l=3 = -2*Zval/r beyond r=  1.5038
All V_l potentials equal beyond r=  1.5227
This should be close to max(r_c) in ps generation
All pots = -2*Zval/r beyond r=  1.5227

VLOCAL1: 99.0% of the norm of Vloc inside     18.722 Ry
VLOCAL1: 99.9% of the norm of Vloc inside     42.668 Ry
atom: Maximum radius for 4*pi*r*r*local-pseudopot. charge    1.83678
atom: Maximum radius for r*vlocal+2*Zval:    1.58088
GHOST: No ghost state for L =  0
GHOST: No ghost state for L =  1
GHOST: No ghost state for L =  2
GHOST: No ghost state for L =  3

KBgen: Kleinman-Bylander projectors: 
   l= 0   rc=  1.704034   el= -1.009801   Ekb=  5.335044   kbcos=  0.316824
   l= 1   rc=  1.704034   el= -0.388707   Ekb= -3.785862   kbcos= -0.366464
   l= 2   rc=  1.791422   el=  0.001971   Ekb= -0.970471   kbcos= -0.009212
   l= 3   rc=  1.859892   el=  0.003065   Ekb= -0.399525   kbcos= -0.001223

KBgen: Total number of  Kleinman-Bylander projectors:   16
atom: -------------------------------------------------------------------------

atom: SANKEY-TYPE ORBITALS:
atom: Selected multiple-zeta basis: split     

SPLIT: Orbitals with angular momentum L= 0

SPLIT: Basis orbitals for state 2s

SPLIT: PAO cut-off radius determined from an
SPLIT: energy shift=  0.007350 Ry

   izeta = 1
                 lambda =    1.000000
                     rc =    4.632753
                 energy =   -1.002270
                kinetic =    0.855760
    potential(screened) =   -1.858031
       potential(ionic) =   -5.417575

   izeta = 2
                 rmatch =    3.431921
              splitnorm =    0.150000
                 energy =   -0.867111
                kinetic =    1.300804
    potential(screened) =   -2.167915
       potential(ionic) =   -5.962684

SPLIT: Orbitals with angular momentum L= 1

SPLIT: Basis orbitals for state 2p

SPLIT: PAO cut-off radius determined from an
SPLIT: energy shift=  0.007350 Ry

   izeta = 1
                 lambda =    1.000000
                     rc =    5.658549
                 energy =   -0.381140
                kinetic =    2.399701
    potential(screened) =   -2.780841
       potential(ionic) =   -6.206085

   izeta = 2
                 rmatch =    3.653288
              splitnorm =    0.150000
                 energy =   -0.249149
                kinetic =    3.542762
    potential(screened) =   -3.791911
       potential(ionic) =   -7.581078

POLgen: Perturbative polarization orbital with L=  2

POLgen: Polarization orbital for state 2p

   izeta = 1
                     rc =    5.658549
                 energy =    1.109913
                kinetic =    2.304789
    potential(screened) =   -1.194876
       potential(ionic) =   -4.013592
atom: Total number of Sankey-type orbitals: 13

atm_pop: Valence configuration (for local Pseudopot. screening):
 2s( 2.00)                                                            
 2p( 2.00)                                                            
Vna: chval, zval:    4.00000   4.00000

Vna:  Cut-off radius for the neutral-atom potential:   5.658549
comcore: Pseudo-core radius Rcore=  1.791422

atom: _________________________________________________________________________

prinput: Basis input ----------------------------------------------------------

PAO.BasisType split     

%block ChemicalSpeciesLabel
    1    5 B                       # Species index, atomic number, species label
    2    6 C                       # Species index, atomic number, species label
%endblock ChemicalSpeciesLabel

%block PAO.Basis                 # Define Basis set
B                     2                    # Species label, number of l-shells
 n=2   0   2                         # n, l, Nzeta 
   5.422      4.223   
   1.000      1.000   
 n=2   1   2 P   1                   # n, l, Nzeta, Polarization, NzetaPol
   6.790      4.609   
   1.000      1.000   
C                     2                    # Species label, number of l-shells
 n=2   0   2                         # n, l, Nzeta 
   4.633      3.432   
   1.000      1.000   
 n=2   1   2 P   1                   # n, l, Nzeta, Polarization, NzetaPol
   5.659      3.653   
   1.000      1.000   
%endblock PAO.Basis

prinput: ----------------------------------------------------------------------

coor:   Atomic-coordinates input format  =     Fractional

siesta: Atomic coordinates (Bohr) and species
siesta:      4.63094  34.85847   0.00000  1        1
siesta:      6.95932  30.82560   0.00000  1        2
siesta:      6.95932  33.51406   0.00000  1        3
siesta:      4.63094  13.34970   0.00000  1        4
siesta:      6.95932  17.38257   0.00000  1        5
siesta:      2.30256  14.69411   0.00000  1        6
siesta:      2.30256  17.38257   0.00000  1        7
siesta:      4.63094  18.72698   0.00000  1        8
siesta:      4.63094  21.41544   0.00000  1        9
siesta:     -0.02582  18.72698   0.00000  1       10
siesta:     -0.02582  21.41544   0.00000  1       11
siesta:      2.30256  22.75985   0.00000  1       12
siesta:     -4.68258  21.41544   0.00000  1       13
siesta:     -2.35420  22.75985   0.00000  1       14
siesta:     -7.01096  22.75985   0.00000  1       15
siesta:     -7.01096  25.44831   0.00000  1       16
siesta:     -4.68258  26.79272   0.00000  1       17
siesta:     -4.68258  29.48119   0.00000  1       18
siesta:      2.30256  33.51406   0.00000  1       19
siesta:     -2.35420  30.82560   0.00000  1       20
siesta:     -2.35420  33.51406   0.00000  1       21
siesta:     -0.02582  34.85847   0.00000  1       22
siesta:     -0.02582   2.59549   0.00000  2       23
siesta:     -0.02582   5.28395   0.00000  2       24
siesta:     -2.35420  38.89134   0.00000  2       25
siesta:     -2.35420  41.57980   0.00000  2       26
siesta:      2.30256  38.89134   0.00000  2       27
siesta:      2.30256  41.57980   0.00000  2       28
siesta:      4.63094  37.54693   0.00000  2       29
siesta:      9.28770  26.79272   0.00000  2       30
siesta:      9.28770  29.48119   0.00000  2       31
siesta:     -4.68258  34.85847   0.00000  2       32
siesta:     -4.68258  37.54693   0.00000  2       33
siesta:      2.30256   6.62836   0.00000  2       34
siesta:      2.30256   9.31683   0.00000  2       35
siesta:      4.63094  10.66124   0.00000  2       36
siesta:      6.95932  14.69411   0.00000  2       37
siesta:      9.28770  18.72698   0.00000  2       38
siesta:      9.28770  21.41544   0.00000  2       39
siesta:     11.61608  22.75985   0.00000  2       40
siesta:     11.61608  25.44831   0.00000  2       41
siesta:     -2.35420   6.62836   0.00000  2       42
siesta:     -2.35420   9.31683   0.00000  2       43
siesta:     -0.02582  10.66124   0.00000  2       44
siesta:     -0.02582  13.34970   0.00000  2       45
siesta:      6.95932  22.75985   0.00000  2       46
siesta:      6.95932  25.44831   0.00000  2       47
siesta:     -4.68258  10.66124   0.00000  2       48
siesta:     -4.68258  13.34970   0.00000  2       49
siesta:     -2.35420  14.69411   0.00000  2       50
siesta:     -2.35420  17.38257   0.00000  2       51
siesta:      2.30256  25.44831   0.00000  2       52
siesta:     -7.01096  14.69411   0.00000  2       53
siesta:     -7.01096  17.38257   0.00000  2       54
siesta:     -4.68258  18.72698   0.00000  2       55
siesta:     -2.35420  25.44831   0.00000  2       56
siesta:     -9.33934  18.72698   0.00000  2       57
siesta:     -9.33934  21.41544   0.00000  2       58
siesta:    -11.66772  22.75985   0.00000  2       59
siesta:    -11.66772  25.44831   0.00000  2       60
siesta:     -9.33934  26.79272   0.00000  2       61
siesta:     -9.33934  29.48119   0.00000  2       62
siesta:      4.63094  26.79272   0.00000  2       63
siesta:      4.63094  29.48119   0.00000  2       64
siesta:     -0.02582  26.79272   0.00000  2       65
siesta:     -0.02582  29.48119   0.00000  2       66
siesta:      2.30256  30.82560   0.00000  2       67
siesta:     -7.01096  30.82560   0.00000  2       68
siesta:     -7.01096  33.51406   0.00000  2       69
siesta:     -0.02582  37.54693   0.00000  2       70
siesta:     -0.02582  42.92421   0.00000  2       71
siesta:     -0.02582  45.61267   0.00000  2       72

siesta: System type = slab      

initatomlists: Number of atoms, orbitals, and projectors:     72   936  1152

siesta: ******************** Simulation parameters ****************************
siesta:
siesta: The following are some of the parameters of the simulation.
siesta: A complete list of the parameters used, including default values,
siesta: can be found in file out.fdf
siesta:
redata: Non-Collinear-spin run           =     F
redata: SpinPolarized (Up/Down) run      =     F
redata: Number of spin components        =     1
redata: Long output                      =     F
redata: Number of Atomic Species         =        2
redata: Charge density info will appear in .RHO file
redata: Write Mulliken Pop.              =     NO
redata: Mesh Cutoff                      =   200.0000  Ry
redata: Net charge of the system         =     0.0000 |e|
redata: Max. number of SCF Iter          =      500
redata: SCF convergence failure will abort job
redata: Performing Pulay mixing using    =    10 iterations
redata: Mix DM in first SCF step ?       =     F
redata: Write Pulay info on disk?        =     F
redata: Discard 1st Pulay DM after  kick =     F
redata: New DM Mixing Weight             =     0.0500
redata: New DM Occupancy tolerance       = 0.000000000001
redata: No kicks to SCF
redata: DM Mixing Weight for Kicks       =     0.5000
redata: DM Tolerance for SCF             =     0.000100
redata: Require Energy convergence for SCF =     F
redata: DM Energy tolerance for SCF      =     0.000100 eV
redata: Require Harris convergence for SCF =     F
redata: DM Harris energy tolerance for SCF =     0.000100 eV
redata: Using Saved Data (generic)   =     F
redata: Use continuation files for DM    =     T
redata: Neglect nonoverlap interactions  =     F
redata: Method of Calculation            =     Diagonalization
redata: Divide and Conquer               =     T
redata: Electronic Temperature           =     0.0019  Ry
redata: Fix the spin of the system       =     F
redata: Dynamics option                  =     Verlet MD run
redata: Initial MD time step             =        1
redata:   Final MD time step             =        1
redata: Length of MD time step           =     1.0000  fs
redata: Initial Temperature of MD run    =     0.0000  K
redata: Perform a MD quench              =     F
redata: ***********************************************************************
Total number of electrons:   266.000000
Total ionic charge:   266.000000

* ProcessorY, Blocksize:    2  24

k-point displ. along   1 input, could be:     0.50    0.00
k-point displ. along   2 input, could be:     0.50    0.00
 Kpoints in:          231 . Kpoints trimmed:          231

siesta: k-grid: Number of k-points =   231
siesta: k-grid: Cutoff (effective) =     5.000 Ang
siesta: k-grid: Supercell and displacements
siesta: k-grid:   21   0   0      0.500
siesta: k-grid:    0  21   0      0.500
siesta: k-grid:    0   0   1      0.000
Naive supercell factors:     2    2    2

superc: Internal auxiliary supercell:     2 x     2 x     2  =       8
superc: Number of atoms, orbitals, and projectors:    576   7488   9216

* Maximum dynamic memory allocated =     4 MB

siesta:                 ==============================
                            Begin MD step =      1
                        ==============================

superc: Internal auxiliary supercell:     2 x     2 x     2  =       8
superc: Number of atoms, orbitals, and projectors:    576   7488   9216

outcell: Unit cell vectors (Ang):
       12.804619    7.392750    0.000000
        0.000000   14.785500    0.000000
        0.000000    0.000000   10.000000

outcell: Cell vector modules (Ang)   :   14.785500   14.785500   10.000000
outcell: Cell angles (23,13,12) (deg):     90.0000     90.0000     60.0000
outcell: Cell volume (Ang**3)        :   1893.2269
New_DM. Step:     1
Initializing Density Matrix...

InitMesh: MESH =   120 x   120 x    90 =     1296000
InitMesh: Mesh cutoff (required, used) =   200.000   223.865 Ry

* Maximum dynamic memory allocated =   226 MB

stepf: Fermi-Dirac step function

siesta: Program's energy decomposition (eV):
siesta: Ebs     =     -5506.182145
siesta: Eions   =     15585.763425
siesta: Ena     =      4190.647185
siesta: Ekin    =      5217.942150
siesta: Enl     =       825.763905
siesta: DEna    =        -0.000007
siesta: DUscf   =         0.000000
siesta: DUext   =         0.000000
siesta: Exc     =     -4204.276798
siesta: eta*DQ  =         0.000000
siesta: Emadel  =         0.000000
siesta: Emeta   =         0.000000
siesta: Emolmec =         0.000000
siesta: Ekinion =         0.000000
siesta: Eharris =     -9314.275575
siesta: Etot    =     -9555.686990
siesta: FreeEng =     -9555.686990

siesta: iscf   Eharris(eV)      E_KS(eV)   FreeEng(eV)   dDmax  Ef(eV)
siesta:    1    -9314.2756    -9555.6870    -9555.6870  6.9372 -8.4803
timer: Routine,Calls,Time,% = IterSCF        1    3489.298  99.70
elaps: Routine,Calls,Wall,% = IterSCF        1     437.022  99.70
siesta:    2   -14809.5809    -8481.2024    -8481.2311 20.6108 -4.0115
siesta:    3    -9260.9011    -9429.3505    -9429.3956  3.6274 -7.1734
siesta:    4    -9238.5475    -9310.9646    -9311.0035  1.7165 -6.1401
siesta:    5    -9188.1945    -9237.8465    -9237.8849  1.1870 -5.9169
siesta:    6    -9171.0177    -9173.5878    -9173.6418  1.1250 -5.2962
siesta:    7    -9163.2927    -9159.4806    -9159.5228  0.7983 -5.2446
siesta:    8    -9160.5891    -9153.5544    -9153.6169  0.7203 -5.2825
siesta:    9    -9158.3861    -9142.5108    -9142.5762  0.5809 -5.3281
siesta:   10    -9157.3974    -9137.9142    -9137.9815  0.4757 -5.2881
siesta:   11    -9158.0083    -9126.4494    -9126.5167  0.2119 -5.2220
siesta:   12    -9157.5317    -9125.7667    -9125.8381  0.2337 -5.1949
siesta:   13    -9157.1266    -9125.4842    -9125.5427  0.1627 -5.1933
siesta:   14    -9156.4692    -9130.4211    -9130.4941  0.1200 -5.2078
siesta:   15    -9156.0869    -9136.7917    -9136.8706  0.1382 -5.2253
siesta:   16    -9156.0351    -9142.5826    -9142.6565  0.1233 -5.2224
siesta:   17    -9155.9812    -9144.9183    -9144.9923  0.0920 -5.2437
siesta:   18    -9155.9353    -9148.2038    -9148.2770  0.0581 -5.2563
siesta:   19    -9155.9194    -9149.6370    -9149.7155  0.0274 -5.2591
siesta:   20    -9155.9140    -9151.1872    -9151.2653  0.0241 -5.2607
siesta:   21    -9155.9106    -9152.6008    -9152.6799  0.0247 -5.2571
siesta:   22    -9155.9087    -9154.7617    -9154.8400  0.0131 -5.2539
siesta:   23    -9155.9069    -9155.5232    -9155.6029  0.0094 -5.2520
siesta:   24    -9155.9061    -9155.7029    -9155.7818  0.0053 -5.2531
siesta:   25    -9155.9055    -9155.9322    -9156.0114  0.0033 -5.2544
siesta:   26    -9155.9055    -9155.9065    -9155.9857  0.0022 -5.2547
siesta:   27    -9155.9054    -9155.9649    -9156.0440  0.0022 -5.2548
siesta:   28    -9155.9054    -9155.9541    -9156.0333  0.0014 -5.2545
siesta:   29    -9155.9054    -9155.9905    -9156.0697  0.0013 -5.2544
siesta:   30    -9155.9054    -9155.9672    -9156.0464  0.0012 -5.2542
siesta:   31    -9155.9054    -9155.9417    -9156.0208  0.0007 -5.2544
siesta:   32    -9155.9054    -9155.9173    -9155.9965  0.0003 -5.2544
siesta:   33    -9155.9053    -9155.9154    -9155.9946  0.0002 -5.2544
siesta:   34    -9155.9053    -9155.9238    -9156.0030  0.0002 -5.2544
siesta:   35    -9155.9053    -9155.9298    -9156.0090  0.0002 -5.2543
siesta:   36    -9155.9053    -9155.9196    -9155.9988  0.0001 -5.2542

siesta: E_KS(eV) =            -9155.9168

siesta: E_KS - E_eggbox =     -9155.9168

siesta: Atomic forces (eV/Ang):
----------------------------------------
   Tot   -0.028636    0.162277    0.000000
----------------------------------------
   Max  557.874798
   Res  144.168343    sqrt( Sum f_i^2 / 3N )
----------------------------------------
   Max  557.874798    constrained

Stress-tensor-Voigt (kbar):     -788.11    -2657.83       -0.68        7.24        0.00        0.00
(Free)E + p*V (eV/cell)    -7798.4337
Target enthalpy (eV/cell)    -9155.9959

siesta: Stress tensor (static) (eV/Ang**3):
        -0.491896    0.004522    0.000000
         0.004522   -1.658868    0.000000
         0.000000    0.000000   -0.000425

siesta: Pressure (static):       1148.87338818  kBar

siesta: Stress tensor (total) (eV/Ang**3):
        -0.491896    0.004522    0.000000
         0.004522   -1.658868    0.000000
         0.000000    0.000000   -0.000425

siesta: Pressure (total):       1148.87338818  kBar

siesta: Temp_ion =       0.000 K

* Maximum dynamic memory allocated =   243 MB
Computing bands...

siesta: Program's energy decomposition (eV):
siesta: Ebs     =     -4117.124390
siesta: Eions   =     15585.763425
siesta: Ena     =      4190.647185
siesta: Ekin    =      8071.132416
siesta: Enl     =      -776.426590
siesta: DEna    =      -787.774366
siesta: DUscf   =       106.212238
siesta: DUext   =         0.000000
siesta: Exc     =     -4373.944239
siesta: eta*DQ  =         0.000000
siesta: Emadel  =         0.000000
siesta: Emeta   =         0.000000
siesta: Emolmec =         0.000000
siesta: Ekinion =         0.000000
siesta: Eharris =     -9155.905344
siesta: Etot    =     -9155.916782
siesta: FreeEng =     -9155.995947

siesta: Final energy (eV):
siesta:  Band Struct. =   -4117.124390
siesta:       Kinetic =    8071.132416
siesta:       Hartree =   26150.449978
siesta:    Ext. field =       0.000000
siesta:   Exch.-corr. =   -4373.944239
siesta:  Ion-electron =  -60084.988382
siesta:       Ion-ion =   21081.433445
siesta:       Ekinion =       0.000000
siesta:         Total =   -9155.916782

siesta: Atomic forces (eV/Ang):
siesta:      1   16.521708    3.389922    0.000000
siesta:      2    3.608034   -1.966908    0.000000
siesta:      3    3.603654    4.346541    0.000000
siesta:      4   20.710837   -0.693307    0.000000
siesta:      5    8.261714   -5.108747    0.000000
siesta:      6   20.712548  403.693045    0.000000
siesta:      7   14.743795   -0.724104    0.000000
siesta:      8   -2.087867   -1.527136    0.000000
siesta:      9    3.997496    0.861929    0.000000
siesta:     10    0.714628  408.384769    0.000000
siesta:     11   -0.161755   -3.954688    0.000000
siesta:     12   -2.011375    5.637508    0.000000
siesta:     13    0.881718   -6.078967    0.000000
siesta:     14    0.509838    6.677055    0.000000
siesta:     15   -2.127240   -1.186814    0.000000
siesta:     16   -4.014905    2.663242    0.000000
siesta:     17    4.683239   -3.260860    0.000000
siesta:     18   -1.596054    3.810630    0.000000
siesta:     19   18.527632 -401.099776    0.000000
siesta:     20  -15.715030    2.280564    0.000000
siesta:     21  -14.818081 -398.216704    0.000000
siesta:     22   -1.125550  103.271729    0.000000
siesta:     23    4.189973  549.374175    0.000000
siesta:     24   -3.450988 -131.817317    0.000000
siesta:     25   -0.468802  124.758912    0.000000
siesta:     26  -19.270788 -550.931656    0.000000
siesta:     27    3.117985  121.779377    0.000000
siesta:     28   16.351119 -407.695210    0.000000
siesta:     29   30.451956 -556.438638    0.000000
siesta:     30    3.515045    3.108122    0.000000
siesta:     31    1.131348   -2.872588    0.000000
siesta:     32  -25.319254   -0.099417    0.000000
siesta:     33  -30.905530 -551.719094    0.000000
siesta:     34   14.857464  400.734070    0.000000
siesta:     35    1.673732 -123.726826    0.000000
siesta:     36   31.647419  556.536069    0.000000
siesta:     37   -0.943391   -2.240594    0.000000
siesta:     38    1.521756    4.425903    0.000000
siesta:     39    3.227604   -3.214003    0.000000
siesta:     40    0.203054    7.384212    0.000000
siesta:     41    0.141306   -7.551071    0.000000
siesta:     42  -17.899478  407.457675    0.000000
siesta:     43    1.669269 -124.521487    0.000000
siesta:     44    3.770263  551.464059    0.000000
siesta:     45    7.156455 -117.963376    0.000000
siesta:     46    1.474636    3.956219    0.000000
siesta:     47   -0.177944   -1.607633    0.000000
siesta:     48  -32.821677  551.396781    0.000000
siesta:     49  -26.206720   -3.925589    0.000000
siesta:     50  -25.730043  557.874798    0.000000
siesta:     51  -23.642325   -3.207609    0.000000
siesta:     52    0.635117    3.704541    0.000000
siesta:     53    2.331503   -1.648618    0.000000
siesta:     54   -2.255736   -1.302950    0.000000
siesta:     55    1.803287   -2.360639    0.000000
siesta:     56    3.684613    3.697018    0.000000
siesta:     57    1.381125    0.005379    0.000000
siesta:     58   -5.764310   -3.572496    0.000000
siesta:     59   -0.758610    5.034089    0.000000
siesta:     60    0.412425   -5.358532    0.000000
siesta:     61   -6.768141    3.580496    0.000000
siesta:     62    2.372834   -0.023781    0.000000
siesta:     63   -0.458375    0.759836    0.000000
siesta:     64   -4.534816   -3.765319    0.000000
siesta:     65   -0.132697   -1.496023    0.000000
siesta:     66   -3.474692 -557.745045    0.000000
siesta:     67   23.266018    5.066382    0.000000
siesta:     68   -6.926222    2.158523    0.000000
siesta:     69    2.887516    2.051172    0.000000
siesta:     70   -3.119960 -542.014908    0.000000
siesta:     71    5.821552  125.864759    0.000000
siesta:     72   -3.513492 -404.388791    0.000000
siesta: ----------------------------------------
siesta:    Tot   -0.028636    0.162277    0.000000

siesta: Stress tensor (static) (eV/Ang**3):
siesta:    -0.491896    0.004522    0.000000
siesta:     0.004522   -1.658868    0.000000
siesta:     0.000000    0.000000   -0.000425

siesta: Cell volume =       1893.226884 Ang**3

siesta: Pressure (static):
siesta:                Solid            Molecule  Units
siesta:           0.00780973          0.11027035  Ry/Bohr**3
siesta:           0.71706262         10.12464856  eV/Ang**3
siesta:        1148.87338818      16221.65069463  kBar
(Free)E+ p_basis*V_orbitals  =       -9118.307355
(Free)Eharris+ p_basis*V_orbitals  =       -9118.293096

siesta: Electric dipole (a.u.)  =    0.000000    0.000000    0.000000
siesta: Electric dipole (Debye) =    0.000000    0.000000    0.000000

* Maximum dynamic memory allocated : Node    0 =   243 MB
* Maximum dynamic memory allocated : Node    1 =    85 MB
* Maximum dynamic memory allocated : Node    2 =    88 MB
* Maximum dynamic memory allocated : Node    3 =   232 MB
* Maximum dynamic memory allocated : Node    4 =   227 MB
* Maximum dynamic memory allocated : Node    5 =    82 MB
* Maximum dynamic memory allocated : Node    6 =    86 MB
* Maximum dynamic memory allocated : Node    7 =   209 MB

* Maximum memory occured during matrixMtoO                    

timer: CPU execution times:
timer:  Routine       Calls   Time/call    Tot.time        %
timer:  siesta            1  123934.733  123934.733   100.00
timer:  Setup             1       2.690       2.690     0.00
timer:  bands             3     243.779     731.337     0.59
timer:  writewave         1       0.016       0.016     0.00
timer:  KSV_init          1       0.000       0.000     0.00
timer:  IterMD            1  123195.521  123195.521    99.40
timer:  hsparse           1       0.514       0.514     0.00
timer:  overlap           1       7.204       7.204     0.01
timer:  IterSCF          36    3416.200  122983.190    99.23
timer:  kinefsm           2       3.754       7.509     0.01
timer:  nlefsm            2      19.966      39.933     0.03
timer:  DHSCF            37     109.470    4050.395     3.27
timer:  DHSCF1            1       0.990       0.990     0.00
timer:  DHSCF2            1      43.830      43.830     0.04
timer:  REORD           298       0.005       1.517     0.00
timer:  POISON           38       0.872      33.150     0.03
timer:  DHSCF3           37     107.119    3963.393     3.20
timer:  rhoofd           37      24.731     915.047     0.74
timer:  cellXC           37       3.277     121.257     0.10
timer:  vmat             37      50.669    1874.751     1.51
timer:  MolMec            2       0.001       0.001     0.00
timer:  diagon           36    3306.198  119023.120    96.04
timer:  c-eigval       8437       6.027   50850.156    41.03
timer:  c-buildHS      8437       0.053     446.465     0.36
timer:  cdiag         16753       6.166  103303.151    83.35
timer:  cdiag1        16753       0.385    6452.722     5.21
timer:  cdiag2        16753       1.768   29616.022    23.90
timer:  cdiag3        16753       3.731   62499.785    50.43
timer:  cdiag4        16753       0.156    2616.963     2.11
timer:  c-eigvec       8316       6.405   53263.042    42.98
timer:  c-buildD       8316       1.876   15598.687    12.59
timer:  DHSCF4            1      41.514      41.514     0.03
timer:  dfscf             1      38.702      38.702     0.03
timer:  overfsm           1       0.462       0.462     0.00
timer:  optical           1       4.523       4.523     0.00
  

elaps: ELAPSED times:
elaps:  Routine       Calls   Time/call    Tot.time        %
elaps:  siesta            1   15521.668   15521.668   100.00
elaps:  Setup             1       0.338       0.338     0.00
elaps:  bands             3      30.547      91.641     0.59
elaps:  writewave         1       0.002       0.002     0.00
elaps:  KSV_init          1       0.000       0.000     0.00
elaps:  IterMD            1   15429.090   15429.090    99.40
elaps:  hsparse           1       0.068       0.068     0.00
elaps:  overlap           1       0.901       0.901     0.01
elaps:  IterSCF          36     427.847   15402.502    99.23
elaps:  kinefsm           2       0.466       0.933     0.01
elaps:  nlefsm            2       2.368       4.735     0.03
elaps:  DHSCF            37      13.849     512.400     3.30
elaps:  DHSCF1            1       0.126       0.126     0.00
elaps:  DHSCF2            1       5.487       5.487     0.04
elaps:  REORD           298       0.001       0.208     0.00
elaps:  POISON           38       0.110       4.166     0.03
elaps:  DHSCF3           37      13.416     496.402     3.20
elaps:  rhoofd           37       6.527     241.513     1.56
elaps:  cellXC           37       0.410      15.172     0.10
elaps:  vmat             37       6.346     234.796     1.51
elaps:  MolMec            2       0.000       0.000     0.00
elaps:  diagon           36     414.069   14906.478    96.04
elaps:  c-eigval       8437       0.755    6368.387    41.03
elaps:  c-buildHS      8437       0.007      56.599     0.36
elaps:  cdiag         16753       0.773   12951.285    83.44
elaps:  cdiag1        16753       0.048     808.100     5.21
elaps:  cdiag2        16753       0.221    3709.859    23.90
elaps:  cdiag3        16753       0.468    7837.721    50.50
elaps:  cdiag4        16753       0.019     325.314     2.10
elaps:  c-eigvec       8316       0.804    6689.475    43.10
elaps:  c-buildD       8316       0.232    1932.761    12.45
elaps:  DHSCF4            1      10.302      10.302     0.07
elaps:  dfscf             1       9.742       9.742     0.06
elaps:  overfsm           1       0.054       0.054     0.00
elaps:  optical           1       0.001       0.001     0.00
  
>> End of run:  25-APR-2016   5:46:25
