Siesta Version:                                        siesta-3.2-pl-3
Architecture  : x86_64-unknown-linux-gnu--unknown
Compiler flags: mpiifort -g -O2 -fPIC -xSSE4.1 -fp-model source -shared-intel 
PARALLEL version

* Running on    8 nodes in parallel
>> Start of run:  25-APR-2016  13:15:42

                           ***********************       
                           *  WELCOME TO SIESTA  *       
                           ***********************       

reinit: Reading from standard input
************************** Dump of input data file ****************************
#(1) General system descriptors
SystemName            GRP_doping    # Descriptive name of the system
SystemLabel           GRP_doping    # Short name for naming files
%include STRUCT.fdf
%include KPT.fdf
%include BASIS.fdf
#%include TS.fdf # for transiesta calculation
#(4) DFT, Grid, SCF
XC.functional         GGA           # LDA or GGA (default = LDA)
XC.authors            PBE           # CA (Ceperley-Aldr) = PZ
                                    #    (Perdew-Zunger) - LDA - Default
                                    # PW92 (Perdew-Wang-92) - LDA
                                    # PBE (Perdew-Burke-Ernzerhof) - GGA
MeshCutoff            200.000000    Ry      # Default: 50.0 Ry ~ 0.444 Bohr
                                    #         100.0 Ry ~ 0.314 Bohr
MaxSCFIterations      500           # Default: 50
DM.MixingWeight       0.05          # Default: 0.25
DM.NumberPulay        10            # Default: 0
DM.PulayOnFile        F             # SystemLabel.P1, SystemLabel.P2
DM.Tolerance          1.d-4         # Default: 1.d-4
DM.UseSaveDM          .true.        # because of the bug
SCFMustConverge       .true.
NeglNonOverlapInt     F             # Default: F
#(5) Eigenvalue problem: order-N or diagonalization
SolutionMethod        Diagon        # or Transiesta
ElectronicTemperature 300.0 K       # Default: 300.0 K
#(6) Molecular dynamics and relaxations
#MD.TypeOfRun          CG            # Type of dynamics:
#MD.VariableCell       F
#MD.NumCGsteps         0           # 0 for single-point / 100 for gopt
#MD.MaxCGDispl         0.2 Bohr      # Default: 0.2 Bohr
#MD.MaxForceTol        0.02 eV/Ang   # Default: 0.04 eV/Ang
#MD.MaxStressTol       1.0 GPa       # Default: 1.0 GPa
# Geometry Constraints
#%block GeometryConstraints
#	position from 1 to 44
#%endblock GeometryConstraints
BandLinesScale   pi/a
%block BandLines
 1   0.00000000  0.00000000  0.00000000
50   0.00000000  0.07809418  0.00000000
50   0.04509075  0.07809242  0.00000000
20   0.00000000  0.00000000  0.00000000
%endblock BandLines
************************** End of input data file *****************************

reinit: -----------------------------------------------------------------------
reinit: System Name: GRP_doping
reinit: -----------------------------------------------------------------------
reinit: System Label: GRP_doping                                                  
reinit: -----------------------------------------------------------------------

initatom: Reading input for the pseudopotentials and atomic orbitals ----------
 Species number:            1  Label: B Atomic number:           5
 Species number:            2  Label: C Atomic number:           6
Ground state valence configuration:   2s02  2p01
Reading pseudopotential information in formatted form from B.psf

Valence configuration for pseudopotential generation:
2s( 2.00) rc: 1.74
2p( 1.00) rc: 1.74
3d( 0.00) rc: 1.74
4f( 0.00) rc: 1.74
Ground state valence configuration:   2s02  2p02
Reading pseudopotential information in formatted form from C.psf

Valence configuration for pseudopotential generation:
2s( 2.00) rc: 1.54
2p( 2.00) rc: 1.54
3d( 0.00) rc: 1.54
4f( 0.00) rc: 1.54
For B, standard SIESTA heuristics set lmxkb to 3
 (one more than the basis l, including polarization orbitals).
Use PS.lmax or PS.KBprojectors blocks to override.
For C, standard SIESTA heuristics set lmxkb to 3
 (one more than the basis l, including polarization orbitals).
Use PS.lmax or PS.KBprojectors blocks to override.

<basis_specs>
===============================================================================
B                    Z=   5    Mass=  10.810        Charge= 0.17977+309
Lmxo=1 Lmxkb= 3    BasisType=split      Semic=F
L=0  Nsemic=0  Cnfigmx=2
          n=1  nzeta=2  polorb=0
            splnorm:   0.15000    
               vcte:    0.0000    
               rinn:    0.0000    
                rcs:    0.0000      0.0000    
            lambdas:    1.0000      1.0000    
L=1  Nsemic=0  Cnfigmx=2
          n=1  nzeta=2  polorb=1
            splnorm:   0.15000    
               vcte:    0.0000    
               rinn:    0.0000    
                rcs:    0.0000      0.0000    
            lambdas:    1.0000      1.0000    
-------------------------------------------------------------------------------
L=0  Nkbl=1  erefs: 0.17977+309
L=1  Nkbl=1  erefs: 0.17977+309
L=2  Nkbl=1  erefs: 0.17977+309
L=3  Nkbl=1  erefs: 0.17977+309
===============================================================================
</basis_specs>

atom: Called for B                     (Z =   5)

read_vps: Pseudopotential generation method:
read_vps: ATM3      Troullier-Martins                       
Total valence charge:    3.00000

read_vps: Pseudopotential includes a core correction:
read_vps: Pseudo-core for xc-correction

xc_check: Exchange-correlation functional:
xc_check: GGA Perdew, Burke & Ernzerhof 1996
V l=0 = -2*Zval/r beyond r=  1.7165
V l=1 = -2*Zval/r beyond r=  1.7165
V l=2 = -2*Zval/r beyond r=  1.7165
V l=3 = -2*Zval/r beyond r=  1.6951
All V_l potentials equal beyond r=  1.7165
This should be close to max(r_c) in ps generation
All pots = -2*Zval/r beyond r=  1.7165

VLOCAL1: 99.0% of the norm of Vloc inside     14.733 Ry
VLOCAL1: 99.9% of the norm of Vloc inside     33.577 Ry
atom: Maximum radius for 4*pi*r*r*local-pseudopot. charge    2.04484
atom: Maximum radius for r*vlocal+2*Zval:    1.75994
GHOST: No ghost state for L =  0
GHOST: No ghost state for L =  1
GHOST: No ghost state for L =  2
GHOST: No ghost state for L =  3

KBgen: Kleinman-Bylander projectors: 
   l= 0   rc=  1.897051   el= -0.693730   Ekb=  4.595746   kbcos=  0.286105
   l= 1   rc=  1.920920   el= -0.265236   Ekb= -2.350715   kbcos= -0.315747
   l= 2   rc=  2.044840   el=  0.002055   Ekb= -0.690767   kbcos= -0.013822
   l= 3   rc=  2.149707   el=  0.003188   Ekb= -0.315358   kbcos= -0.002055

KBgen: Total number of  Kleinman-Bylander projectors:   16
atom: -------------------------------------------------------------------------

atom: SANKEY-TYPE ORBITALS:
atom: Selected multiple-zeta basis: split     

SPLIT: Orbitals with angular momentum L= 0

SPLIT: Basis orbitals for state 2s

SPLIT: PAO cut-off radius determined from an
SPLIT: energy shift=  0.007350 Ry

   izeta = 1
                 lambda =    1.000000
                     rc =    5.422032
                 energy =   -0.686029
                kinetic =    0.576707
    potential(screened) =   -1.262736
       potential(ionic) =   -3.271094

   izeta = 2
                 rmatch =    4.222573
              splitnorm =    0.150000
                 energy =   -0.602132
                kinetic =    0.858975
    potential(screened) =   -1.461107
       potential(ionic) =   -3.582536

SPLIT: Orbitals with angular momentum L= 1

SPLIT: Basis orbitals for state 2p

SPLIT: PAO cut-off radius determined from an
SPLIT: energy shift=  0.007350 Ry

   izeta = 1
                 lambda =    1.000000
                     rc =    6.790259
                 energy =   -0.258578
                kinetic =    1.481412
    potential(screened) =   -1.739989
       potential(ionic) =   -3.657461

   izeta = 2
                 rmatch =    4.608740
              splitnorm =    0.150000
                 energy =   -0.173757
                kinetic =    2.186690
    potential(screened) =   -2.360447
       potential(ionic) =   -4.464260

POLgen: Perturbative polarization orbital with L=  2

POLgen: Polarization orbital for state 2p

   izeta = 1
                     rc =    6.790259
                 energy =    0.684082
                kinetic =    1.471481
    potential(screened) =   -0.787399
       potential(ionic) =   -2.406985
atom: Total number of Sankey-type orbitals: 13

atm_pop: Valence configuration (for local Pseudopot. screening):
 2s( 2.00)                                                            
 2p( 1.00)                                                            
Vna: chval, zval:    3.00000   3.00000

Vna:  Cut-off radius for the neutral-atom potential:   6.790259
comcore: Pseudo-core radius Rcore=  2.122997

atom: _________________________________________________________________________

<basis_specs>
===============================================================================
C                    Z=   6    Mass=  12.010        Charge= 0.17977+309
Lmxo=1 Lmxkb= 3    BasisType=split      Semic=F
L=0  Nsemic=0  Cnfigmx=2
          n=1  nzeta=2  polorb=0
            splnorm:   0.15000    
               vcte:    0.0000    
               rinn:    0.0000    
                rcs:    0.0000      0.0000    
            lambdas:    1.0000      1.0000    
L=1  Nsemic=0  Cnfigmx=2
          n=1  nzeta=2  polorb=1
            splnorm:   0.15000    
               vcte:    0.0000    
               rinn:    0.0000    
                rcs:    0.0000      0.0000    
            lambdas:    1.0000      1.0000    
-------------------------------------------------------------------------------
L=0  Nkbl=1  erefs: 0.17977+309
L=1  Nkbl=1  erefs: 0.17977+309
L=2  Nkbl=1  erefs: 0.17977+309
L=3  Nkbl=1  erefs: 0.17977+309
===============================================================================
</basis_specs>

atom: Called for C                     (Z =   6)

read_vps: Pseudopotential generation method:
read_vps: ATM3      Troullier-Martins                       
Total valence charge:    4.00000

read_vps: Pseudopotential includes a core correction:
read_vps: Pseudo-core for xc-correction

xc_check: Exchange-correlation functional:
xc_check: GGA Perdew, Burke & Ernzerhof 1996
V l=0 = -2*Zval/r beyond r=  1.5227
V l=1 = -2*Zval/r beyond r=  1.5227
V l=2 = -2*Zval/r beyond r=  1.5227
V l=3 = -2*Zval/r beyond r=  1.5038
All V_l potentials equal beyond r=  1.5227
This should be close to max(r_c) in ps generation
All pots = -2*Zval/r beyond r=  1.5227

VLOCAL1: 99.0% of the norm of Vloc inside     18.722 Ry
VLOCAL1: 99.9% of the norm of Vloc inside     42.668 Ry
atom: Maximum radius for 4*pi*r*r*local-pseudopot. charge    1.83678
atom: Maximum radius for r*vlocal+2*Zval:    1.58088
GHOST: No ghost state for L =  0
GHOST: No ghost state for L =  1
GHOST: No ghost state for L =  2
GHOST: No ghost state for L =  3

KBgen: Kleinman-Bylander projectors: 
   l= 0   rc=  1.704034   el= -1.009801   Ekb=  5.335044   kbcos=  0.316824
   l= 1   rc=  1.704034   el= -0.388707   Ekb= -3.785862   kbcos= -0.366464
   l= 2   rc=  1.791422   el=  0.001971   Ekb= -0.970471   kbcos= -0.009212
   l= 3   rc=  1.859892   el=  0.003065   Ekb= -0.399525   kbcos= -0.001223

KBgen: Total number of  Kleinman-Bylander projectors:   16
atom: -------------------------------------------------------------------------

atom: SANKEY-TYPE ORBITALS:
atom: Selected multiple-zeta basis: split     

SPLIT: Orbitals with angular momentum L= 0

SPLIT: Basis orbitals for state 2s

SPLIT: PAO cut-off radius determined from an
SPLIT: energy shift=  0.007350 Ry

   izeta = 1
                 lambda =    1.000000
                     rc =    4.632753
                 energy =   -1.002270
                kinetic =    0.855760
    potential(screened) =   -1.858031
       potential(ionic) =   -5.417575

   izeta = 2
                 rmatch =    3.431921
              splitnorm =    0.150000
                 energy =   -0.867111
                kinetic =    1.300804
    potential(screened) =   -2.167915
       potential(ionic) =   -5.962684

SPLIT: Orbitals with angular momentum L= 1

SPLIT: Basis orbitals for state 2p

SPLIT: PAO cut-off radius determined from an
SPLIT: energy shift=  0.007350 Ry

   izeta = 1
                 lambda =    1.000000
                     rc =    5.658549
                 energy =   -0.381140
                kinetic =    2.399701
    potential(screened) =   -2.780841
       potential(ionic) =   -6.206085

   izeta = 2
                 rmatch =    3.653288
              splitnorm =    0.150000
                 energy =   -0.249149
                kinetic =    3.542762
    potential(screened) =   -3.791911
       potential(ionic) =   -7.581078

POLgen: Perturbative polarization orbital with L=  2

POLgen: Polarization orbital for state 2p

   izeta = 1
                     rc =    5.658549
                 energy =    1.109913
                kinetic =    2.304789
    potential(screened) =   -1.194876
       potential(ionic) =   -4.013592
atom: Total number of Sankey-type orbitals: 13

atm_pop: Valence configuration (for local Pseudopot. screening):
 2s( 2.00)                                                            
 2p( 2.00)                                                            
Vna: chval, zval:    4.00000   4.00000

Vna:  Cut-off radius for the neutral-atom potential:   5.658549
comcore: Pseudo-core radius Rcore=  1.791422

atom: _________________________________________________________________________

prinput: Basis input ----------------------------------------------------------

PAO.BasisType split     

%block ChemicalSpeciesLabel
    1    5 B                       # Species index, atomic number, species label
    2    6 C                       # Species index, atomic number, species label
%endblock ChemicalSpeciesLabel

%block PAO.Basis                 # Define Basis set
B                     2                    # Species label, number of l-shells
 n=2   0   2                         # n, l, Nzeta 
   5.422      4.223   
   1.000      1.000   
 n=2   1   2 P   1                   # n, l, Nzeta, Polarization, NzetaPol
   6.790      4.609   
   1.000      1.000   
C                     2                    # Species label, number of l-shells
 n=2   0   2                         # n, l, Nzeta 
   4.633      3.432   
   1.000      1.000   
 n=2   1   2 P   1                   # n, l, Nzeta, Polarization, NzetaPol
   5.659      3.653   
   1.000      1.000   
%endblock PAO.Basis

prinput: ----------------------------------------------------------------------

coor:   Atomic-coordinates input format  =     Fractional

siesta: Atomic coordinates (Bohr) and species
siesta:      9.28770  18.72698   0.00000  1        1
siesta:      9.28770  21.41544   0.00000  1        2
siesta:      4.63094  21.41544   0.00000  1        3
siesta:      6.95932  22.75985   0.00000  1        4
siesta:      6.95932  25.44831   0.00000  1        5
siesta:     -0.02582  21.41544   0.00000  1        6
siesta:      2.30256  22.75985   0.00000  1        7
siesta:      2.30256  25.44831   0.00000  1        8
siesta:     -4.68258  18.72698   0.00000  1        9
siesta:     -4.68258  21.41544   0.00000  1       10
siesta:     -2.35420  22.75985   0.00000  1       11
siesta:     -2.35420  25.44831   0.00000  1       12
siesta:     -7.01096  22.75985   0.00000  1       13
siesta:     -7.01096  25.44831   0.00000  1       14
siesta:      4.63094  26.79272   0.00000  1       15
siesta:     -0.02582  26.79272   0.00000  1       16
siesta:     -0.02582  29.48119   0.00000  1       17
siesta:     -4.68258  26.79272   0.00000  1       18
siesta:     -4.68258  29.48119   0.00000  1       19
siesta:     -2.35420  30.82560   0.00000  1       20
siesta:     -2.35420  33.51406   0.00000  1       21
siesta:     -0.02582  34.85847   0.00000  1       22
siesta:     -0.02582   2.59549   0.00000  2       23
siesta:     -0.02582   5.28395   0.00000  2       24
siesta:     -2.35420  38.89134   0.00000  2       25
siesta:     -2.35420  41.57980   0.00000  2       26
siesta:      2.30256  38.89134   0.00000  2       27
siesta:      2.30256  41.57980   0.00000  2       28
siesta:      4.63094  34.85847   0.00000  2       29
siesta:      4.63094  37.54693   0.00000  2       30
siesta:      6.95932  30.82560   0.00000  2       31
siesta:      6.95932  33.51406   0.00000  2       32
siesta:      9.28770  26.79272   0.00000  2       33
siesta:      9.28770  29.48119   0.00000  2       34
siesta:     -4.68258  34.85847   0.00000  2       35
siesta:     -4.68258  37.54693   0.00000  2       36
siesta:      2.30256   6.62836   0.00000  2       37
siesta:      2.30256   9.31683   0.00000  2       38
siesta:      4.63094  10.66124   0.00000  2       39
siesta:      4.63094  13.34970   0.00000  2       40
siesta:      6.95932  14.69411   0.00000  2       41
siesta:      6.95932  17.38257   0.00000  2       42
siesta:     11.61608  22.75985   0.00000  2       43
siesta:     11.61608  25.44831   0.00000  2       44
siesta:     -2.35420   6.62836   0.00000  2       45
siesta:     -2.35420   9.31683   0.00000  2       46
siesta:     -0.02582  10.66124   0.00000  2       47
siesta:     -0.02582  13.34970   0.00000  2       48
siesta:      2.30256  14.69411   0.00000  2       49
siesta:      2.30256  17.38257   0.00000  2       50
siesta:      4.63094  18.72698   0.00000  2       51
siesta:     -4.68258  10.66124   0.00000  2       52
siesta:     -4.68258  13.34970   0.00000  2       53
siesta:     -2.35420  14.69411   0.00000  2       54
siesta:     -2.35420  17.38257   0.00000  2       55
siesta:     -0.02582  18.72698   0.00000  2       56
siesta:     -7.01096  14.69411   0.00000  2       57
siesta:     -7.01096  17.38257   0.00000  2       58
siesta:     -9.33934  18.72698   0.00000  2       59
siesta:     -9.33934  21.41544   0.00000  2       60
siesta:    -11.66772  22.75985   0.00000  2       61
siesta:    -11.66772  25.44831   0.00000  2       62
siesta:     -9.33934  26.79272   0.00000  2       63
siesta:     -9.33934  29.48119   0.00000  2       64
siesta:      4.63094  29.48119   0.00000  2       65
siesta:      2.30256  30.82560   0.00000  2       66
siesta:      2.30256  33.51406   0.00000  2       67
siesta:     -7.01096  30.82560   0.00000  2       68
siesta:     -7.01096  33.51406   0.00000  2       69
siesta:     -0.02582  37.54693   0.00000  2       70
siesta:     -0.02582  42.92421   0.00000  2       71
siesta:     -0.02582  45.61267   0.00000  2       72

siesta: System type = slab      

initatomlists: Number of atoms, orbitals, and projectors:     72   936  1152

siesta: ******************** Simulation parameters ****************************
siesta:
siesta: The following are some of the parameters of the simulation.
siesta: A complete list of the parameters used, including default values,
siesta: can be found in file out.fdf
siesta:
redata: Non-Collinear-spin run           =     F
redata: SpinPolarized (Up/Down) run      =     F
redata: Number of spin components        =     1
redata: Long output                      =     F
redata: Number of Atomic Species         =        2
redata: Charge density info will appear in .RHO file
redata: Write Mulliken Pop.              =     NO
redata: Mesh Cutoff                      =   200.0000  Ry
redata: Net charge of the system         =     0.0000 |e|
redata: Max. number of SCF Iter          =      500
redata: SCF convergence failure will abort job
redata: Performing Pulay mixing using    =    10 iterations
redata: Mix DM in first SCF step ?       =     F
redata: Write Pulay info on disk?        =     F
redata: Discard 1st Pulay DM after  kick =     F
redata: New DM Mixing Weight             =     0.0500
redata: New DM Occupancy tolerance       = 0.000000000001
redata: No kicks to SCF
redata: DM Mixing Weight for Kicks       =     0.5000
redata: DM Tolerance for SCF             =     0.000100
redata: Require Energy convergence for SCF =     F
redata: DM Energy tolerance for SCF      =     0.000100 eV
redata: Require Harris convergence for SCF =     F
redata: DM Harris energy tolerance for SCF =     0.000100 eV
redata: Using Saved Data (generic)   =     F
redata: Use continuation files for DM    =     T
redata: Neglect nonoverlap interactions  =     F
redata: Method of Calculation            =     Diagonalization
redata: Divide and Conquer               =     T
redata: Electronic Temperature           =     0.0019  Ry
redata: Fix the spin of the system       =     F
redata: Dynamics option                  =     Verlet MD run
redata: Initial MD time step             =        1
redata:   Final MD time step             =        1
redata: Length of MD time step           =     1.0000  fs
redata: Initial Temperature of MD run    =     0.0000  K
redata: Perform a MD quench              =     F
redata: ***********************************************************************
Total number of electrons:   266.000000
Total ionic charge:   266.000000

* ProcessorY, Blocksize:    2  24

k-point displ. along   1 input, could be:     0.50    0.00
k-point displ. along   2 input, could be:     0.50    0.00
 Kpoints in:          231 . Kpoints trimmed:          231

siesta: k-grid: Number of k-points =   231
siesta: k-grid: Cutoff (effective) =     5.000 Ang
siesta: k-grid: Supercell and displacements
siesta: k-grid:   21   0   0      0.500
siesta: k-grid:    0  21   0      0.500
siesta: k-grid:    0   0   1      0.000
Naive supercell factors:     2    2    2

superc: Internal auxiliary supercell:     2 x     2 x     2  =       8
superc: Number of atoms, orbitals, and projectors:    576   7488   9216

* Maximum dynamic memory allocated =     4 MB

siesta:                 ==============================
                            Begin MD step =      1
                        ==============================

superc: Internal auxiliary supercell:     2 x     2 x     2  =       8
superc: Number of atoms, orbitals, and projectors:    576   7488   9216

outcell: Unit cell vectors (Ang):
       12.804619    7.392750    0.000000
        0.000000   14.785500    0.000000
        0.000000    0.000000   10.000000

outcell: Cell vector modules (Ang)   :   14.785500   14.785500   10.000000
outcell: Cell angles (23,13,12) (deg):     90.0000     90.0000     60.0000
outcell: Cell volume (Ang**3)        :   1893.2269
New_DM. Step:     1
Initializing Density Matrix...

InitMesh: MESH =   120 x   120 x    90 =     1296000
InitMesh: Mesh cutoff (required, used) =   200.000   223.865 Ry

* Maximum dynamic memory allocated =   223 MB

stepf: Fermi-Dirac step function

siesta: Program's energy decomposition (eV):
siesta: Ebs     =     -5515.992556
siesta: Eions   =     15585.763425
siesta: Ena     =      4201.716545
siesta: Ekin    =      5217.942150
siesta: Enl     =       823.936705
siesta: DEna    =        -0.000007
siesta: DUscf   =         0.000000
siesta: DUext   =         0.000000
siesta: Exc     =     -4211.548947
siesta: eta*DQ  =         0.000000
siesta: Emadel  =         0.000000
siesta: Emeta   =         0.000000
siesta: Emolmec =         0.000000
siesta: Ekinion =         0.000000
siesta: Eharris =     -9266.127617
siesta: Etot    =     -9553.716979
siesta: FreeEng =     -9553.716979

siesta: iscf   Eharris(eV)      E_KS(eV)   FreeEng(eV)   dDmax  Ef(eV)
siesta:    1    -9266.1276    -9553.7170    -9553.7170  6.5043 -8.4492
timer: Routine,Calls,Time,% = IterSCF        1    3489.250  99.69
elaps: Routine,Calls,Wall,% = IterSCF        1     437.010  99.69
siesta:    2   -13515.2095    -8529.5013    -8529.5989 20.1717 -2.7105
siesta:    3    -9193.4177    -9436.6465    -9436.7044  4.1780 -7.0588
siesta:    4    -9168.4636    -9292.2319    -9292.2374  1.9699 -5.8321
siesta:    5    -9136.9449    -9214.3751    -9214.4173  1.1186 -5.5137
siesta:    6    -9116.0873    -9165.6919    -9165.7150  0.7228 -5.4432
siesta:    7    -9109.8323    -9139.7421    -9139.8233  0.6761 -5.4272
siesta:    8    -9106.3929    -9130.3059    -9130.3628  0.5957 -5.4336
siesta:    9    -9108.7476    -9101.5516    -9101.6040  0.4076 -5.2557
siesta:   10    -9106.9084    -9098.0447    -9098.1015  0.3501 -5.2533
siesta:   11    -9104.6321    -9092.5522    -9092.6314  0.2344 -5.2023
siesta:   12    -9104.6343    -9080.3761    -9080.4451  0.1993 -5.1932
siesta:   13    -9104.4866    -9076.1235    -9076.1719  0.1949 -5.1623
siesta:   14    -9103.7745    -9082.3980    -9082.4574  0.1098 -5.2035
siesta:   15    -9103.4623    -9086.2013    -9086.2678  0.0832 -5.2229
siesta:   16    -9103.3568    -9089.3996    -9089.4650  0.0725 -5.2467
siesta:   17    -9103.2922    -9091.4894    -9091.5545  0.0629 -5.2486
siesta:   18    -9103.2774    -9094.6066    -9094.6740  0.0431 -5.2663
siesta:   19    -9103.2621    -9096.6293    -9096.6938  0.0269 -5.2685
siesta:   20    -9103.2543    -9099.4559    -9099.5212  0.0270 -5.2744
siesta:   21    -9103.2468    -9101.1780    -9101.2439  0.0260 -5.2744
siesta:   22    -9103.2451    -9102.4404    -9102.5076  0.0175 -5.2713
siesta:   23    -9103.2445    -9103.1543    -9103.2215  0.0115 -5.2673
siesta:   24    -9103.2439    -9103.4148    -9103.4826  0.0072 -5.2650
siesta:   25    -9103.2432    -9103.5335    -9103.6010  0.0044 -5.2646
siesta:   26    -9103.2430    -9103.3309    -9103.3985  0.0023 -5.2626
siesta:   27    -9103.2430    -9103.2312    -9103.2988  0.0021 -5.2624
siesta:   28    -9103.2430    -9103.2580    -9103.3255  0.0012 -5.2631
siesta:   29    -9103.2430    -9103.2579    -9103.3254  0.0009 -5.2635
siesta:   30    -9103.2429    -9103.2134    -9103.2809  0.0007 -5.2639
siesta:   31    -9103.2429    -9103.2431    -9103.3106  0.0004 -5.2642
siesta:   32    -9103.2429    -9103.2463    -9103.3138  0.0004 -5.2642
siesta:   33    -9103.2429    -9103.2430    -9103.3105  0.0003 -5.2642
siesta:   34    -9103.2429    -9103.2414    -9103.3089  0.0002 -5.2642
siesta:   35    -9103.2429    -9103.2433    -9103.3108  0.0001 -5.2642

siesta: E_KS(eV) =            -9103.2428

siesta: E_KS - E_eggbox =     -9103.2428

siesta: Atomic forces (eV/Ang):
----------------------------------------
   Tot   -0.001039   -0.053846    0.000000
----------------------------------------
   Max  561.521463
   Res  153.101775    sqrt( Sum f_i^2 / 3N )
----------------------------------------
   Max  561.521463    constrained

Stress-tensor-Voigt (kbar):     -825.25    -2814.05       -0.74       -7.27        0.00        0.00
(Free)E + p*V (eV/cell)    -7669.5654
Target enthalpy (eV/cell)    -9103.3103

siesta: Stress tensor (static) (eV/Ang**3):
        -0.515073   -0.004536    0.000000
        -0.004536   -1.756372    0.000000
         0.000000    0.000000   -0.000461

siesta: Pressure (static):       1213.34497802  kBar

siesta: Stress tensor (total) (eV/Ang**3):
        -0.515073   -0.004536    0.000000
        -0.004536   -1.756372    0.000000
         0.000000    0.000000   -0.000461

siesta: Pressure (total):       1213.34497802  kBar

siesta: Temp_ion =       0.000 K

* Maximum dynamic memory allocated =   239 MB
Computing bands...

siesta: Program's energy decomposition (eV):
siesta: Ebs     =     -4143.423050
siesta: Eions   =     15585.763425
siesta: Ena     =      4201.716545
siesta: Ekin    =      8134.916616
siesta: Enl     =      -774.368091
siesta: DEna    =      -803.673754
siesta: DUscf   =       107.384093
siesta: DUext   =         0.000000
siesta: Exc     =     -4383.454756
siesta: eta*DQ  =         0.000000
siesta: Emadel  =         0.000000
siesta: Emeta   =         0.000000
siesta: Emolmec =         0.000000
siesta: Ekinion =         0.000000
siesta: Eharris =     -9103.242934
siesta: Etot    =     -9103.242772
siesta: FreeEng =     -9103.310273

siesta: Final energy (eV):
siesta:  Band Struct. =   -4143.423050
siesta:       Kinetic =    8134.916616
siesta:       Hartree =   26823.438567
siesta:    Ext. field =       0.000000
siesta:   Exch.-corr. =   -4383.454756
siesta:  Ion-electron =  -61508.639977
siesta:       Ion-ion =   21830.496778
siesta:       Ekinion =       0.000000
siesta:         Total =   -9103.242772

siesta: Atomic forces (eV/Ang):
siesta:      1   -0.595117   -5.297952    0.000000
siesta:      2    9.215592    1.341138    0.000000
siesta:      3   -0.025816   -3.776393    0.000000
siesta:      4   -1.049484   -0.674867    0.000000
siesta:      5    2.846438    1.983036    0.000000
siesta:      6    0.493209   -4.441181    0.000000
siesta:      7   -1.265642    0.559501    0.000000
siesta:      8   -0.030828   -0.441558    0.000000
siesta:      9    1.627744   -4.416109    0.000000
siesta:     10    0.429873    1.405248    0.000000
siesta:     11    0.603222   -0.775025    0.000000
siesta:     12   -0.491506    0.548020    0.000000
siesta:     13   -2.577286   -2.896074    0.000000
siesta:     14   -2.437189    2.361701    0.000000
siesta:     15   -0.560359    3.928117    0.000000
siesta:     16    0.746938    0.967227    0.000000
siesta:     17   -0.506154 -411.046351    0.000000
siesta:     18    1.087428   -0.259112    0.000000
siesta:     19   -2.042680    2.491205    0.000000
siesta:     20  -14.938970    0.384530    0.000000
siesta:     21  -16.841684 -397.946947    0.000000
siesta:     22   -2.350387  106.803438    0.000000
siesta:     23    2.880066  408.835521    0.000000
siesta:     24   -6.638178 -127.239682    0.000000
siesta:     25    1.449538  125.553332    0.000000
siesta:     26  -16.143887 -548.650701    0.000000
siesta:     27   -2.053288  127.814116    0.000000
siesta:     28   17.121734 -548.192827    0.000000
siesta:     29   25.991385    5.093974    0.000000
siesta:     30   32.265769 -548.727461    0.000000
siesta:     31    2.282101    1.380669    0.000000
siesta:     32   -2.450704    1.447224    0.000000
siesta:     33    6.875152    3.516148    0.000000
siesta:     34   -1.316149   -0.280095    0.000000
siesta:     35  -25.200993    0.259424    0.000000
siesta:     36  -28.207900 -551.049751    0.000000
siesta:     37   24.016495  553.779110    0.000000
siesta:     38   -2.340461 -131.077646    0.000000
siesta:     39   34.224669  549.644503    0.000000
siesta:     40   26.557890   -6.008499    0.000000
siesta:     41   -2.415661   -1.272540    0.000000
siesta:     42   -0.900064   -3.830425    0.000000
siesta:     43    1.685765    6.583200    0.000000
siesta:     44   -0.012296   -4.565170    0.000000
siesta:     45  -17.593264  405.090724    0.000000
siesta:     46    3.003278 -125.413663    0.000000
siesta:     47    2.339451  552.165758    0.000000
siesta:     48   -0.566958 -129.400962    0.000000
siesta:     49   23.454573  556.106381    0.000000
siesta:     50   22.445066   -6.161655    0.000000
siesta:     51   -1.050733   -2.784144    0.000000
siesta:     52  -35.592174  552.544845    0.000000
siesta:     53  -27.388513   -6.433756    0.000000
siesta:     54  -22.634399  556.727630    0.000000
siesta:     55  -20.238714   -6.390789    0.000000
siesta:     56   -0.100247  561.521463    0.000000
siesta:     57    2.791812   -0.701069    0.000000
siesta:     58   -6.446064   -2.853455    0.000000
siesta:     59    1.916620   -0.347213    0.000000
siesta:     60   -6.839278   -3.285573    0.000000
siesta:     61    0.475435    5.734050    0.000000
siesta:     62    0.366573   -5.739636    0.000000
siesta:     63   -7.015011    3.806152    0.000000
siesta:     64    2.239039    0.233145    0.000000
siesta:     65   -1.676423    2.775409    0.000000
siesta:     66   23.046443    3.044268    0.000000
siesta:     67   13.388469 -554.251775    0.000000
siesta:     68   -7.267913    2.372345    0.000000
siesta:     69    2.516961    1.542546    0.000000
siesta:     70   -2.884025 -541.855576    0.000000
siesta:     71   -0.650086  130.264478    0.000000
siesta:     72    0.950715 -552.177791    0.000000
siesta: ----------------------------------------
siesta:    Tot   -0.001039   -0.053846    0.000000

siesta: Stress tensor (static) (eV/Ang**3):
siesta:    -0.515073   -0.004536    0.000000
siesta:    -0.004536   -1.756372    0.000000
siesta:     0.000000    0.000000   -0.000461

siesta: Cell volume =       1893.226884 Ang**3

siesta: Pressure (static):
siesta:                Solid            Molecule  Units
siesta:           0.00824799          0.11802611  Ry/Bohr**3
siesta:           0.75730218         10.83675630  eV/Ang**3
siesta:        1213.34497802      17362.58539525  kBar
(Free)E+ p_basis*V_orbitals  =       -9065.621682
(Free)Eharris+ p_basis*V_orbitals  =       -9065.621302

siesta: Electric dipole (a.u.)  =    0.000000    0.000000    0.000000
siesta: Electric dipole (Debye) =    0.000000    0.000000    0.000000

* Maximum dynamic memory allocated : Node    0 =   239 MB
* Maximum dynamic memory allocated : Node    1 =    82 MB
* Maximum dynamic memory allocated : Node    2 =    85 MB
* Maximum dynamic memory allocated : Node    3 =   228 MB
* Maximum dynamic memory allocated : Node    4 =   233 MB
* Maximum dynamic memory allocated : Node    5 =    85 MB
* Maximum dynamic memory allocated : Node    6 =    87 MB
* Maximum dynamic memory allocated : Node    7 =   213 MB

* Maximum memory occured during matrixMtoO                    

timer: CPU execution times:
timer:  Routine       Calls   Time/call    Tot.time        %
timer:  siesta            1  120873.752  120873.752   100.00
timer:  Setup             1       2.709       2.709     0.00
timer:  bands             3     243.718     731.155     0.60
timer:  writewave         1       0.022       0.022     0.00
timer:  KSV_init          1       0.000       0.000     0.00
timer:  IterMD            1  120134.669  120134.669    99.39
timer:  hsparse           1       0.517       0.517     0.00
timer:  overlap           1       7.211       7.211     0.01
timer:  IterSCF          35    3426.491  119927.176    99.22
timer:  kinefsm           2       3.758       7.516     0.01
timer:  nlefsm            2      19.804      39.607     0.03
timer:  DHSCF            36     106.972    3850.988     3.19
timer:  DHSCF1            1       0.989       0.989     0.00
timer:  DHSCF2            1      42.445      42.445     0.04
timer:  REORD           290       0.005       1.475     0.00
timer:  POISON           37       0.871      32.243     0.03
timer:  DHSCF3           36     104.588    3765.157     3.11
timer:  rhoofd           36      24.297     874.686     0.72
timer:  cellXC           36       3.204     115.340     0.10
timer:  vmat             36      49.508    1782.270     1.47
timer:  MolMec            2       0.000       0.000     0.00
timer:  diagon           35    3318.982  116164.369    96.10
timer:  c-eigval       8206       6.028   49462.416    40.92
timer:  c-buildHS      8206       0.052     428.647     0.35
timer:  cdiag         16291       6.165  100441.232    83.10
timer:  cdiag1        16291       0.385    6274.011     5.19
timer:  cdiag2        16291       1.767   28791.871    23.82
timer:  cdiag3        16291       3.732   60805.369    50.30
timer:  cdiag4        16291       0.157    2555.546     2.11
timer:  c-eigvec       8085       6.402   51759.742    42.82
timer:  c-buildD       8085       1.933   15632.098    12.93
timer:  DHSCF4            1      41.721      41.721     0.03
timer:  dfscf             1      38.925      38.925     0.03
timer:  overfsm           1       0.464       0.464     0.00
timer:  optical           1       4.552       4.552     0.00
  

elaps: ELAPSED times:
elaps:  Routine       Calls   Time/call    Tot.time        %
elaps:  siesta            1   15137.904   15137.904   100.00
elaps:  Setup             1       0.339       0.339     0.00
elaps:  bands             3      30.540      91.619     0.61
elaps:  writewave         1       0.002       0.002     0.00
elaps:  KSV_init          1       0.000       0.000     0.00
elaps:  IterMD            1   15045.344   15045.344    99.39
elaps:  hsparse           1       0.064       0.064     0.00
elaps:  overlap           1       0.903       0.903     0.01
elaps:  IterSCF          35     429.125   15019.360    99.22
elaps:  kinefsm           2       0.469       0.939     0.01
elaps:  nlefsm            2       2.580       5.160     0.03
elaps:  DHSCF            36      13.533     487.191     3.22
elaps:  DHSCF1            1       0.126       0.126     0.00
elaps:  DHSCF2            1       5.315       5.315     0.04
elaps:  REORD           290       0.001       0.193     0.00
elaps:  POISON           37       0.110       4.059     0.03
elaps:  DHSCF3           36      13.099     471.580     3.12
elaps:  rhoofd           36       6.338     228.160     1.51
elaps:  cellXC           36       0.401      14.434     0.10
elaps:  vmat             36       6.201     223.222     1.47
elaps:  MolMec            2       0.000       0.000     0.00
elaps:  diagon           35     415.666   14548.327    96.11
elaps:  c-eigval       8206       0.755    6194.469    40.92
elaps:  c-buildHS      8206       0.007      58.503     0.39
elaps:  cdiag         16291       0.769   12519.806    82.71
elaps:  cdiag1        16291       0.048     783.519     5.18
elaps:  cdiag2        16291       0.221    3606.650    23.83
elaps:  cdiag3        16291       0.468    7624.801    50.37
elaps:  cdiag4        16291       0.020     319.722     2.11
elaps:  c-eigvec       8085       0.795    6428.728    42.47
elaps:  c-buildD       8085       0.249    2011.096    13.29
elaps:  DHSCF4            1      10.091      10.091     0.07
elaps:  dfscf             1       9.540       9.540     0.06
elaps:  overfsm           1       0.058       0.058     0.00
elaps:  optical           1       0.000       0.000     0.00
  
>> End of run:  25-APR-2016  17:28:00
