Siesta Version:                                        siesta-3.2-pl-3
Architecture  : x86_64-unknown-linux-gnu--unknown
Compiler flags: mpiifort -g -O2 -fPIC -xSSE4.1 -fp-model source -shared-intel 
PARALLEL version

* Running on   12 nodes in parallel
>> Start of run:   7-MAY-2016  11:50:14

                           ***********************       
                           *  WELCOME TO SIESTA  *       
                           ***********************       

reinit: Reading from standard input
************************** Dump of input data file ****************************
#(1) General system descriptors
SystemName            GRP_doping    # Descriptive name of the system
SystemLabel           GRP_doping    # Short name for naming files
%include STRUCT.fdf
%include KPT.fdf
%include BASIS.fdf
#%include TS.fdf # for transiesta calculation
#(4) DFT, Grid, SCF
XC.functional         GGA           # LDA or GGA (default = LDA)
XC.authors            PBE           # CA (Ceperley-Aldr) = PZ
                                    #    (Perdew-Zunger) - LDA - Default
                                    # PW92 (Perdew-Wang-92) - LDA
                                    # PBE (Perdew-Burke-Ernzerhof) - GGA
MeshCutoff            200.000000    Ry      # Default: 50.0 Ry ~ 0.444 Bohr
                                    #         100.0 Ry ~ 0.314 Bohr
MaxSCFIterations      500           # Default: 50
DM.MixingWeight       0.05          # Default: 0.25
DM.NumberPulay        10            # Default: 0
DM.PulayOnFile        F             # SystemLabel.P1, SystemLabel.P2
DM.Tolerance          1.d-4         # Default: 1.d-4
DM.UseSaveDM          .true.        # because of the bug
SCFMustConverge       .true.
NeglNonOverlapInt     F             # Default: F
#(5) Eigenvalue problem: order-N or diagonalization
SolutionMethod        Diagon        # or Transiesta
ElectronicTemperature 300.0 K       # Default: 300.0 K
#(6) Molecular dynamics and relaxations
#MD.TypeOfRun          CG            # Type of dynamics:
#MD.VariableCell       F
#MD.NumCGsteps         0           # 0 for single-point / 100 for gopt
#MD.MaxCGDispl         0.2 Bohr      # Default: 0.2 Bohr
#MD.MaxForceTol        0.02 eV/Ang   # Default: 0.04 eV/Ang
#MD.MaxStressTol       1.0 GPa       # Default: 1.0 GPa
# Geometry Constraints
#%block GeometryConstraints
#	position from 1 to 44
#%endblock GeometryConstraints
BandLinesScale   pi/a
%block BandLines
 1   0.00000000  0.00000000  0.00000000
50   0.00000000  0.07809418  0.00000000
50   0.04509075  0.07809242  0.00000000
20   0.00000000  0.00000000  0.00000000
%endblock BandLines
************************** End of input data file *****************************

reinit: -----------------------------------------------------------------------
reinit: System Name: GRP_doping
reinit: -----------------------------------------------------------------------
reinit: System Label: GRP_doping                                                  
reinit: -----------------------------------------------------------------------

initatom: Reading input for the pseudopotentials and atomic orbitals ----------
 Species number:            1  Label: B Atomic number:           5
 Species number:            2  Label: C Atomic number:           6
Ground state valence configuration:   2s02  2p01
Reading pseudopotential information in formatted form from B.psf

Valence configuration for pseudopotential generation:
2s( 2.00) rc: 1.74
2p( 1.00) rc: 1.74
3d( 0.00) rc: 1.74
4f( 0.00) rc: 1.74
Ground state valence configuration:   2s02  2p02
Reading pseudopotential information in formatted form from C.psf

Valence configuration for pseudopotential generation:
2s( 2.00) rc: 1.54
2p( 2.00) rc: 1.54
3d( 0.00) rc: 1.54
4f( 0.00) rc: 1.54
For B, standard SIESTA heuristics set lmxkb to 3
 (one more than the basis l, including polarization orbitals).
Use PS.lmax or PS.KBprojectors blocks to override.
For C, standard SIESTA heuristics set lmxkb to 3
 (one more than the basis l, including polarization orbitals).
Use PS.lmax or PS.KBprojectors blocks to override.

<basis_specs>
===============================================================================
B                    Z=   5    Mass=  10.810        Charge= 0.17977+309
Lmxo=1 Lmxkb= 3    BasisType=split      Semic=F
L=0  Nsemic=0  Cnfigmx=2
          n=1  nzeta=2  polorb=0
            splnorm:   0.15000    
               vcte:    0.0000    
               rinn:    0.0000    
                rcs:    0.0000      0.0000    
            lambdas:    1.0000      1.0000    
L=1  Nsemic=0  Cnfigmx=2
          n=1  nzeta=2  polorb=1
            splnorm:   0.15000    
               vcte:    0.0000    
               rinn:    0.0000    
                rcs:    0.0000      0.0000    
            lambdas:    1.0000      1.0000    
-------------------------------------------------------------------------------
L=0  Nkbl=1  erefs: 0.17977+309
L=1  Nkbl=1  erefs: 0.17977+309
L=2  Nkbl=1  erefs: 0.17977+309
L=3  Nkbl=1  erefs: 0.17977+309
===============================================================================
</basis_specs>

atom: Called for B                     (Z =   5)

read_vps: Pseudopotential generation method:
read_vps: ATM3      Troullier-Martins                       
Total valence charge:    3.00000

read_vps: Pseudopotential includes a core correction:
read_vps: Pseudo-core for xc-correction

xc_check: Exchange-correlation functional:
xc_check: GGA Perdew, Burke & Ernzerhof 1996
V l=0 = -2*Zval/r beyond r=  1.7165
V l=1 = -2*Zval/r beyond r=  1.7165
V l=2 = -2*Zval/r beyond r=  1.7165
V l=3 = -2*Zval/r beyond r=  1.6951
All V_l potentials equal beyond r=  1.7165
This should be close to max(r_c) in ps generation
All pots = -2*Zval/r beyond r=  1.7165

VLOCAL1: 99.0% of the norm of Vloc inside     14.733 Ry
VLOCAL1: 99.9% of the norm of Vloc inside     33.577 Ry
atom: Maximum radius for 4*pi*r*r*local-pseudopot. charge    2.04484
atom: Maximum radius for r*vlocal+2*Zval:    1.75994
GHOST: No ghost state for L =  0
GHOST: No ghost state for L =  1
GHOST: No ghost state for L =  2
GHOST: No ghost state for L =  3

KBgen: Kleinman-Bylander projectors: 
   l= 0   rc=  1.897051   el= -0.693730   Ekb=  4.595746   kbcos=  0.286105
   l= 1   rc=  1.920920   el= -0.265236   Ekb= -2.350715   kbcos= -0.315747
   l= 2   rc=  2.044840   el=  0.002055   Ekb= -0.690767   kbcos= -0.013822
   l= 3   rc=  2.149707   el=  0.003188   Ekb= -0.315358   kbcos= -0.002055

KBgen: Total number of  Kleinman-Bylander projectors:   16
atom: -------------------------------------------------------------------------

atom: SANKEY-TYPE ORBITALS:
atom: Selected multiple-zeta basis: split     

SPLIT: Orbitals with angular momentum L= 0

SPLIT: Basis orbitals for state 2s

SPLIT: PAO cut-off radius determined from an
SPLIT: energy shift=  0.007350 Ry

   izeta = 1
                 lambda =    1.000000
                     rc =    5.422032
                 energy =   -0.686029
                kinetic =    0.576707
    potential(screened) =   -1.262736
       potential(ionic) =   -3.271094

   izeta = 2
                 rmatch =    4.222573
              splitnorm =    0.150000
                 energy =   -0.602132
                kinetic =    0.858975
    potential(screened) =   -1.461107
       potential(ionic) =   -3.582536

SPLIT: Orbitals with angular momentum L= 1

SPLIT: Basis orbitals for state 2p

SPLIT: PAO cut-off radius determined from an
SPLIT: energy shift=  0.007350 Ry

   izeta = 1
                 lambda =    1.000000
                     rc =    6.790259
                 energy =   -0.258578
                kinetic =    1.481412
    potential(screened) =   -1.739989
       potential(ionic) =   -3.657461

   izeta = 2
                 rmatch =    4.608740
              splitnorm =    0.150000
                 energy =   -0.173757
                kinetic =    2.186690
    potential(screened) =   -2.360447
       potential(ionic) =   -4.464260

POLgen: Perturbative polarization orbital with L=  2

POLgen: Polarization orbital for state 2p

   izeta = 1
                     rc =    6.790259
                 energy =    0.684082
                kinetic =    1.471481
    potential(screened) =   -0.787399
       potential(ionic) =   -2.406985
atom: Total number of Sankey-type orbitals: 13

atm_pop: Valence configuration (for local Pseudopot. screening):
 2s( 2.00)                                                            
 2p( 1.00)                                                            
Vna: chval, zval:    3.00000   3.00000

Vna:  Cut-off radius for the neutral-atom potential:   6.790259
comcore: Pseudo-core radius Rcore=  2.122997

atom: _________________________________________________________________________

<basis_specs>
===============================================================================
C                    Z=   6    Mass=  12.010        Charge= 0.17977+309
Lmxo=1 Lmxkb= 3    BasisType=split      Semic=F
L=0  Nsemic=0  Cnfigmx=2
          n=1  nzeta=2  polorb=0
            splnorm:   0.15000    
               vcte:    0.0000    
               rinn:    0.0000    
                rcs:    0.0000      0.0000    
            lambdas:    1.0000      1.0000    
L=1  Nsemic=0  Cnfigmx=2
          n=1  nzeta=2  polorb=1
            splnorm:   0.15000    
               vcte:    0.0000    
               rinn:    0.0000    
                rcs:    0.0000      0.0000    
            lambdas:    1.0000      1.0000    
-------------------------------------------------------------------------------
L=0  Nkbl=1  erefs: 0.17977+309
L=1  Nkbl=1  erefs: 0.17977+309
L=2  Nkbl=1  erefs: 0.17977+309
L=3  Nkbl=1  erefs: 0.17977+309
===============================================================================
</basis_specs>

atom: Called for C                     (Z =   6)

read_vps: Pseudopotential generation method:
read_vps: ATM3      Troullier-Martins                       
Total valence charge:    4.00000

read_vps: Pseudopotential includes a core correction:
read_vps: Pseudo-core for xc-correction

xc_check: Exchange-correlation functional:
xc_check: GGA Perdew, Burke & Ernzerhof 1996
V l=0 = -2*Zval/r beyond r=  1.5227
V l=1 = -2*Zval/r beyond r=  1.5227
V l=2 = -2*Zval/r beyond r=  1.5227
V l=3 = -2*Zval/r beyond r=  1.5038
All V_l potentials equal beyond r=  1.5227
This should be close to max(r_c) in ps generation
All pots = -2*Zval/r beyond r=  1.5227

VLOCAL1: 99.0% of the norm of Vloc inside     18.722 Ry
VLOCAL1: 99.9% of the norm of Vloc inside     42.668 Ry
atom: Maximum radius for 4*pi*r*r*local-pseudopot. charge    1.83678
atom: Maximum radius for r*vlocal+2*Zval:    1.58088
GHOST: No ghost state for L =  0
GHOST: No ghost state for L =  1
GHOST: No ghost state for L =  2
GHOST: No ghost state for L =  3

KBgen: Kleinman-Bylander projectors: 
   l= 0   rc=  1.704034   el= -1.009801   Ekb=  5.335044   kbcos=  0.316824
   l= 1   rc=  1.704034   el= -0.388707   Ekb= -3.785862   kbcos= -0.366464
   l= 2   rc=  1.791422   el=  0.001971   Ekb= -0.970471   kbcos= -0.009212
   l= 3   rc=  1.859892   el=  0.003065   Ekb= -0.399525   kbcos= -0.001223

KBgen: Total number of  Kleinman-Bylander projectors:   16
atom: -------------------------------------------------------------------------

atom: SANKEY-TYPE ORBITALS:
atom: Selected multiple-zeta basis: split     

SPLIT: Orbitals with angular momentum L= 0

SPLIT: Basis orbitals for state 2s

SPLIT: PAO cut-off radius determined from an
SPLIT: energy shift=  0.007350 Ry

   izeta = 1
                 lambda =    1.000000
                     rc =    4.632753
                 energy =   -1.002270
                kinetic =    0.855760
    potential(screened) =   -1.858031
       potential(ionic) =   -5.417575

   izeta = 2
                 rmatch =    3.431921
              splitnorm =    0.150000
                 energy =   -0.867111
                kinetic =    1.300804
    potential(screened) =   -2.167915
       potential(ionic) =   -5.962684

SPLIT: Orbitals with angular momentum L= 1

SPLIT: Basis orbitals for state 2p

SPLIT: PAO cut-off radius determined from an
SPLIT: energy shift=  0.007350 Ry

   izeta = 1
                 lambda =    1.000000
                     rc =    5.658549
                 energy =   -0.381140
                kinetic =    2.399701
    potential(screened) =   -2.780841
       potential(ionic) =   -6.206085

   izeta = 2
                 rmatch =    3.653288
              splitnorm =    0.150000
                 energy =   -0.249149
                kinetic =    3.542762
    potential(screened) =   -3.791911
       potential(ionic) =   -7.581078

POLgen: Perturbative polarization orbital with L=  2

POLgen: Polarization orbital for state 2p

   izeta = 1
                     rc =    5.658549
                 energy =    1.109913
                kinetic =    2.304789
    potential(screened) =   -1.194876
       potential(ionic) =   -4.013592
atom: Total number of Sankey-type orbitals: 13

atm_pop: Valence configuration (for local Pseudopot. screening):
 2s( 2.00)                                                            
 2p( 2.00)                                                            
Vna: chval, zval:    4.00000   4.00000

Vna:  Cut-off radius for the neutral-atom potential:   5.658549
comcore: Pseudo-core radius Rcore=  1.791422

atom: _________________________________________________________________________

prinput: Basis input ----------------------------------------------------------

PAO.BasisType split     

%block ChemicalSpeciesLabel
    1    5 B                       # Species index, atomic number, species label
    2    6 C                       # Species index, atomic number, species label
%endblock ChemicalSpeciesLabel

%block PAO.Basis                 # Define Basis set
B                     2                    # Species label, number of l-shells
 n=2   0   2                         # n, l, Nzeta 
   5.422      4.223   
   1.000      1.000   
 n=2   1   2 P   1                   # n, l, Nzeta, Polarization, NzetaPol
   6.790      4.609   
   1.000      1.000   
C                     2                    # Species label, number of l-shells
 n=2   0   2                         # n, l, Nzeta 
   4.633      3.432   
   1.000      1.000   
 n=2   1   2 P   1                   # n, l, Nzeta, Polarization, NzetaPol
   5.659      3.653   
   1.000      1.000   
%endblock PAO.Basis

prinput: ----------------------------------------------------------------------

coor:   Atomic-coordinates input format  =     Fractional

siesta: Atomic coordinates (Bohr) and species
siesta:     -2.35420  14.69411   0.00000  1        1
siesta:     -2.35420  17.38257   0.00000  1        2
siesta:     -0.02582  18.72698   0.00000  1        3
siesta:     -0.02582  21.41544   0.00000  1        4
siesta:     -2.35420  22.75985   0.00000  1        5
siesta:     -2.35420  25.44831   0.00000  1        6
siesta:     -0.02582  26.79272   0.00000  1        7
siesta:     -0.02582  29.48119   0.00000  1        8
siesta:     -2.35420  30.82560   0.00000  1        9
siesta:     -2.35420  33.51406   0.00000  1       10
siesta:     -0.02582   2.59549   0.00000  2       11
siesta:     -0.02582   5.28395   0.00000  2       12
siesta:     -2.35420  38.89134   0.00000  2       13
siesta:     -2.35420  41.57980   0.00000  2       14
siesta:      2.30256  38.89134   0.00000  2       15
siesta:      2.30256  41.57980   0.00000  2       16
siesta:      4.63094  34.85847   0.00000  2       17
siesta:      4.63094  37.54693   0.00000  2       18
siesta:      6.95932  30.82560   0.00000  2       19
siesta:      6.95932  33.51406   0.00000  2       20
siesta:      9.28770  26.79272   0.00000  2       21
siesta:      9.28770  29.48119   0.00000  2       22
siesta:     -4.68258  34.85847   0.00000  2       23
siesta:     -4.68258  37.54693   0.00000  2       24
siesta:      2.30256   6.62836   0.00000  2       25
siesta:      2.30256   9.31683   0.00000  2       26
siesta:      4.63094  10.66124   0.00000  2       27
siesta:      4.63094  13.34970   0.00000  2       28
siesta:      6.95932  14.69411   0.00000  2       29
siesta:      6.95932  17.38257   0.00000  2       30
siesta:      9.28770  18.72698   0.00000  2       31
siesta:      9.28770  21.41544   0.00000  2       32
siesta:     11.61608  22.75985   0.00000  2       33
siesta:     11.61608  25.44831   0.00000  2       34
siesta:     -2.35420   6.62836   0.00000  2       35
siesta:     -2.35420   9.31683   0.00000  2       36
siesta:     -0.02582  10.66124   0.00000  2       37
siesta:     -0.02582  13.34970   0.00000  2       38
siesta:      2.30256  14.69411   0.00000  2       39
siesta:      2.30256  17.38257   0.00000  2       40
siesta:      4.63094  18.72698   0.00000  2       41
siesta:      4.63094  21.41544   0.00000  2       42
siesta:      6.95932  22.75985   0.00000  2       43
siesta:      6.95932  25.44831   0.00000  2       44
siesta:     -4.68258  10.66124   0.00000  2       45
siesta:     -4.68258  13.34970   0.00000  2       46
siesta:      2.30256  22.75985   0.00000  2       47
siesta:      2.30256  25.44831   0.00000  2       48
siesta:     -7.01096  14.69411   0.00000  2       49
siesta:     -7.01096  17.38257   0.00000  2       50
siesta:     -4.68258  18.72698   0.00000  2       51
siesta:     -4.68258  21.41544   0.00000  2       52
siesta:     -9.33934  18.72698   0.00000  2       53
siesta:     -9.33934  21.41544   0.00000  2       54
siesta:     -7.01096  22.75985   0.00000  2       55
siesta:     -7.01096  25.44831   0.00000  2       56
siesta:    -11.66772  22.75985   0.00000  2       57
siesta:    -11.66772  25.44831   0.00000  2       58
siesta:     -9.33934  26.79272   0.00000  2       59
siesta:     -9.33934  29.48119   0.00000  2       60
siesta:      4.63094  26.79272   0.00000  2       61
siesta:      4.63094  29.48119   0.00000  2       62
siesta:     -4.68258  26.79272   0.00000  2       63
siesta:     -4.68258  29.48119   0.00000  2       64
siesta:      2.30256  30.82560   0.00000  2       65
siesta:      2.30256  33.51406   0.00000  2       66
siesta:     -7.01096  30.82560   0.00000  2       67
siesta:     -7.01096  33.51406   0.00000  2       68
siesta:     -0.02582  34.85847   0.00000  2       69
siesta:     -0.02582  37.54693   0.00000  2       70
siesta:     -0.02582  42.92421   0.00000  2       71
siesta:     -0.02582  45.61267   0.00000  2       72

siesta: System type = slab      

initatomlists: Number of atoms, orbitals, and projectors:     72   936  1152

siesta: ******************** Simulation parameters ****************************
siesta:
siesta: The following are some of the parameters of the simulation.
siesta: A complete list of the parameters used, including default values,
siesta: can be found in file out.fdf
siesta:
redata: Non-Collinear-spin run           =     F
redata: SpinPolarized (Up/Down) run      =     F
redata: Number of spin components        =     1
redata: Long output                      =     F
redata: Number of Atomic Species         =        2
redata: Charge density info will appear in .RHO file
redata: Write Mulliken Pop.              =     NO
redata: Mesh Cutoff                      =   200.0000  Ry
redata: Net charge of the system         =     0.0000 |e|
redata: Max. number of SCF Iter          =      500
redata: SCF convergence failure will abort job
redata: Performing Pulay mixing using    =    10 iterations
redata: Mix DM in first SCF step ?       =     F
redata: Write Pulay info on disk?        =     F
redata: Discard 1st Pulay DM after  kick =     F
redata: New DM Mixing Weight             =     0.0500
redata: New DM Occupancy tolerance       = 0.000000000001
redata: No kicks to SCF
redata: DM Mixing Weight for Kicks       =     0.5000
redata: DM Tolerance for SCF             =     0.000100
redata: Require Energy convergence for SCF =     F
redata: DM Energy tolerance for SCF      =     0.000100 eV
redata: Require Harris convergence for SCF =     F
redata: DM Harris energy tolerance for SCF =     0.000100 eV
redata: Using Saved Data (generic)   =     F
redata: Use continuation files for DM    =     T
redata: Neglect nonoverlap interactions  =     F
redata: Method of Calculation            =     Diagonalization
redata: Divide and Conquer               =     T
redata: Electronic Temperature           =     0.0019  Ry
redata: Fix the spin of the system       =     F
redata: Dynamics option                  =     Verlet MD run
redata: Initial MD time step             =        1
redata:   Final MD time step             =        1
redata: Length of MD time step           =     1.0000  fs
redata: Initial Temperature of MD run    =     0.0000  K
redata: Perform a MD quench              =     F
redata: ***********************************************************************
Total number of electrons:   278.000000
Total ionic charge:   278.000000

* ProcessorY, Blocksize:    3  24

k-point displ. along   1 input, could be:     0.50    0.00
k-point displ. along   2 input, could be:     0.50    0.00
 Kpoints in:          231 . Kpoints trimmed:          231

siesta: k-grid: Number of k-points =   231
siesta: k-grid: Cutoff (effective) =     5.000 Ang
siesta: k-grid: Supercell and displacements
siesta: k-grid:   21   0   0      0.500
siesta: k-grid:    0  21   0      0.500
siesta: k-grid:    0   0   1      0.000
Naive supercell factors:     2    2    2

superc: Internal auxiliary supercell:     2 x     2 x     2  =       8
superc: Number of atoms, orbitals, and projectors:    576   7488   9216

* Maximum dynamic memory allocated =     4 MB

siesta:                 ==============================
                            Begin MD step =      1
                        ==============================

superc: Internal auxiliary supercell:     2 x     2 x     2  =       8
superc: Number of atoms, orbitals, and projectors:    576   7488   9216

outcell: Unit cell vectors (Ang):
       12.804619    7.392750    0.000000
        0.000000   14.785500    0.000000
        0.000000    0.000000   10.000000

outcell: Cell vector modules (Ang)   :   14.785500   14.785500   10.000000
outcell: Cell angles (23,13,12) (deg):     90.0000     90.0000     60.0000
outcell: Cell volume (Ang**3)        :   1893.2269
New_DM. Step:     1
Initializing Density Matrix...

InitMesh: MESH =   120 x   120 x    90 =     1296000
InitMesh: Mesh cutoff (required, used) =   200.000   223.865 Ry

* Maximum dynamic memory allocated =   151 MB

stepf: Fermi-Dirac step function

siesta: Program's energy decomposition (eV):
siesta: Ebs     =     -5674.246940
siesta: Eions   =     17122.443959
siesta: Ena     =      4455.535405
siesta: Ekin    =      5850.796185
siesta: Enl     =       710.423793
siesta: DEna    =        -0.000012
siesta: DUscf   =         0.000000
siesta: DUext   =         0.000000
siesta: Exc     =     -4178.929870
siesta: eta*DQ  =         0.000000
siesta: Emadel  =         0.000000
siesta: Emeta   =         0.000000
siesta: Emolmec =         0.000000
siesta: Ekinion =         0.000000
siesta: Eharris =    -10012.099422
siesta: Etot    =    -10284.618456
siesta: FreeEng =    -10284.618456

siesta: iscf   Eharris(eV)      E_KS(eV)   FreeEng(eV)   dDmax  Ef(eV)
siesta:    1   -10012.0994   -10284.6185   -10284.6185  6.7174 -8.0309
timer: Routine,Calls,Time,% = IterSCF        1    5421.075  99.75
elaps: Routine,Calls,Wall,% = IterSCF        1     472.548  99.76
siesta:    2   -14699.9750    -9318.8282    -9318.8944 16.6106 -3.5545
siesta:    3    -9969.1355   -10122.3582   -10122.4104  2.7437 -6.3475
siesta:    4    -9944.7310    -9998.4285    -9998.4781  1.3292 -5.2777
siesta:    5    -9897.4709    -9946.2275    -9946.2953  0.8527 -5.2970
siesta:    6    -9884.9884    -9904.5212    -9904.5739  0.8022 -5.4445
siesta:    7    -9876.0283    -9882.1366    -9882.1402  0.8544 -5.2421
siesta:    8    -9873.5002    -9874.8757    -9874.8960  0.7994 -5.1884
siesta:    9    -9872.0978    -9862.3154    -9862.3424  0.5533 -4.9654
siesta:   10    -9870.7174    -9856.3868    -9856.4445  0.5035 -4.8549
siesta:   11    -9871.3081    -9848.1739    -9848.2187  0.2610 -4.8039
siesta:   12    -9870.8458    -9846.0576    -9846.1102  0.1630 -4.7578
siesta:   13    -9870.2951    -9845.5298    -9845.5764  0.1639 -4.7862
siesta:   14    -9869.9094    -9847.4033    -9847.4539  0.1179 -4.7997
siesta:   15    -9869.2543    -9853.0625    -9853.1114  0.1076 -4.9008
siesta:   16    -9869.1721    -9857.8194    -9857.8729  0.0719 -4.9332
siesta:   17    -9869.1105    -9861.7510    -9861.8026  0.0427 -4.9343
siesta:   18    -9869.0864    -9865.1521    -9865.1938  0.0350 -4.9480
siesta:   19    -9869.0787    -9866.3568    -9866.3974  0.0257 -4.9555
siesta:   20    -9869.0486    -9867.6926    -9867.7367  0.0148 -4.9521
siesta:   21    -9869.0500    -9868.2017    -9868.2563  0.0147 -4.9523
siesta:   22    -9869.0488    -9868.8859    -9868.9336  0.0089 -4.9543
siesta:   23    -9869.0478    -9869.0925    -9869.1426  0.0089 -4.9529
siesta:   24    -9869.0435    -9869.0821    -9869.1303  0.0037 -4.9506
siesta:   25    -9869.0439    -9869.0375    -9869.0889  0.0030 -4.9495
siesta:   26    -9869.0429    -9869.0589    -9869.1097  0.0033 -4.9492
siesta:   27    -9869.0434    -9869.0369    -9869.0884  0.0017 -4.9495
siesta:   28    -9869.0428    -9869.0135    -9869.0645  0.0011 -4.9491
siesta:   29    -9869.0430    -9869.0032    -9869.0548  0.0009 -4.9490
siesta:   30    -9869.0429    -9869.0220    -9869.0733  0.0007 -4.9493
siesta:   31    -9869.0429    -9869.0410    -9869.0924  0.0003 -4.9495
siesta:   32    -9869.0429    -9869.0495    -9869.1010  0.0003 -4.9495
siesta:   33    -9869.0428    -9869.0537    -9869.1052  0.0003 -4.9495
siesta:   34    -9869.0428    -9869.0554    -9869.1069  0.0002 -4.9495
siesta:   35    -9869.0428    -9869.0529    -9869.1044  0.0002 -4.9494
siesta:   36    -9869.0428    -9869.0462    -9869.0976  0.0001 -4.9493

siesta: E_KS(eV) =            -9869.0445

siesta: E_KS - E_eggbox =     -9869.0445

siesta: Atomic forces (eV/Ang):
----------------------------------------
   Tot   -0.243938   -0.015984    0.000000
----------------------------------------
   Max  556.590266
   Res  144.278361    sqrt( Sum f_i^2 / 3N )
----------------------------------------
   Max  556.590266    constrained

Stress-tensor-Voigt (kbar):     -756.60    -2583.48       -0.41       -0.15        0.00        0.00
(Free)E + p*V (eV/cell)    -8553.3397
Target enthalpy (eV/cell)    -9869.0960

siesta: Stress tensor (static) (eV/Ang**3):
        -0.472225   -0.000094    0.000000
        -0.000094   -1.612462    0.000000
         0.000000    0.000000   -0.000256

siesta: Pressure (static):       1113.49395944  kBar

siesta: Stress tensor (total) (eV/Ang**3):
        -0.472225   -0.000094    0.000000
        -0.000094   -1.612462    0.000000
         0.000000    0.000000   -0.000256

siesta: Pressure (total):       1113.49395944  kBar

siesta: Temp_ion =       0.000 K

* Maximum dynamic memory allocated =   164 MB
Computing bands...

siesta: Program's energy decomposition (eV):
siesta: Ebs     =     -4329.799007
siesta: Eions   =     17122.443959
siesta: Ena     =      4455.535405
siesta: Ekin    =      8712.162859
siesta: Enl     =      -909.167005
siesta: DEna    =      -760.770624
siesta: DUscf   =       101.949992
siesta: DUext   =         0.000000
siesta: Exc     =     -4346.311147
siesta: eta*DQ  =         0.000000
siesta: Emadel  =         0.000000
siesta: Emeta   =         0.000000
siesta: Emolmec =         0.000000
siesta: Ekinion =         0.000000
siesta: Eharris =     -9869.042824
siesta: Etot    =     -9869.044478
siesta: FreeEng =     -9869.095966

siesta: Final energy (eV):
siesta:  Band Struct. =   -4329.799007
siesta:       Kinetic =    8712.162859
siesta:       Hartree =   28344.988463
siesta:    Ext. field =       0.000000
siesta:   Exch.-corr. =   -4346.311147
siesta:  Ion-electron =  -65058.158909
siesta:       Ion-ion =   22478.274256
siesta:       Ekinion =       0.000000
siesta:         Total =   -9869.044478

siesta: Atomic forces (eV/Ang):
siesta:      1  -23.031507  401.807282    0.000000
siesta:      2  -18.173844    0.184647    0.000000
siesta:      3    0.382663  408.324581    0.000000
siesta:      4    3.797169    0.916275    0.000000
siesta:      5   -3.598685   -3.025834    0.000000
siesta:      6   -3.597131    3.036974    0.000000
siesta:      7    3.806572   -0.907765    0.000000
siesta:      8    0.400805 -408.315697    0.000000
siesta:      9  -18.170803   -0.180748    0.000000
siesta:     10  -23.009043 -401.824259    0.000000
siesta:     11    2.009894  404.393347    0.000000
siesta:     12   -4.888898 -125.932218    0.000000
siesta:     13    0.427603  122.643084    0.000000
siesta:     14  -16.344818 -409.362638    0.000000
siesta:     15   -2.343672  128.159979    0.000000
siesta:     16   20.245068 -550.045589    0.000000
siesta:     17   26.464057    3.993543    0.000000
siesta:     18   32.960649 -549.432346    0.000000
siesta:     19    2.251201   -0.092511    0.000000
siesta:     20   -2.556028    2.342097    0.000000
siesta:     21    2.491997    1.339923    0.000000
siesta:     22   -1.121874    0.821099    0.000000
siesta:     23  -26.034148   -0.003868    0.000000
siesta:     24  -31.134787 -552.668577    0.000000
siesta:     25   20.247861  550.033282    0.000000
siesta:     26   -2.336118 -128.155732    0.000000
siesta:     27   32.972542  549.427343    0.000000
siesta:     28   26.460456   -4.011400    0.000000
siesta:     29   -2.552486   -2.338762    0.000000
siesta:     30    2.236228    0.088395    0.000000
siesta:     31   -1.121270   -0.819721    0.000000
siesta:     32    2.488567   -1.343165    0.000000
siesta:     33   -0.375780    6.906293    0.000000
siesta:     34   -0.381374   -6.903853    0.000000
siesta:     35  -16.378514  409.365879    0.000000
siesta:     36    0.427109 -122.641155    0.000000
siesta:     37    2.257423  548.956280    0.000000
siesta:     38   -6.853720 -118.808420    0.000000
siesta:     39   25.112897  556.577722    0.000000
siesta:     40   21.668238   -2.348214    0.000000
siesta:     41   -1.078402    1.455933    0.000000
siesta:     42    0.068858    0.367752    0.000000
siesta:     43    0.040609    0.716538    0.000000
siesta:     44    0.030192   -0.712779    0.000000
siesta:     45  -31.129243  552.680413    0.000000
siesta:     46  -26.056825    0.018025    0.000000
siesta:     47    3.318572    1.450534    0.000000
siesta:     48    3.328319   -1.453446    0.000000
siesta:     49    2.206767   -1.952746    0.000000
siesta:     50   -3.542697    0.086072    0.000000
siesta:     51   -1.155323    2.344204    0.000000
siesta:     52   -2.886942   -1.184348    0.000000
siesta:     53    1.801555   -0.696585    0.000000
siesta:     54   -2.770978   -1.518615    0.000000
siesta:     55   -0.118702    0.305862    0.000000
siesta:     56   -0.125366   -0.307764    0.000000
siesta:     57    0.392407    7.457616    0.000000
siesta:     58    0.387422   -7.458162    0.000000
siesta:     59   -2.762571    1.519555    0.000000
siesta:     60    1.800805    0.694663    0.000000
siesta:     61    0.080178   -0.374653    0.000000
siesta:     62   -1.090139   -1.451151    0.000000
siesta:     63   -2.886075    1.183616    0.000000
siesta:     64   -1.142506   -2.307858    0.000000
siesta:     65   21.694604    2.342851    0.000000
siesta:     66   25.097826 -556.590266    0.000000
siesta:     67   -3.533096   -0.088124    0.000000
siesta:     68    2.210232    1.959179    0.000000
siesta:     69   -6.891353  118.781617    0.000000
siesta:     70    2.236459 -548.983668    0.000000
siesta:     71   -4.908119  125.911756    0.000000
siesta:     72    2.035094 -404.367560    0.000000
siesta: ----------------------------------------
siesta:    Tot   -0.243938   -0.015984    0.000000

siesta: Stress tensor (static) (eV/Ang**3):
siesta:    -0.472225   -0.000094    0.000000
siesta:    -0.000094   -1.612462    0.000000
siesta:     0.000000    0.000000   -0.000256

siesta: Cell volume =       1893.226884 Ang**3

siesta: Pressure (static):
siesta:                Solid            Molecule  Units
siesta:           0.00756923          0.11019180  Ry/Bohr**3
siesta:           0.69498075         10.11743643  eV/Ang**3
siesta:        1113.49395944      16210.09546325  kBar
(Free)E+ p_basis*V_orbitals  =       -9835.198814
(Free)Eharris+ p_basis*V_orbitals  =       -9835.195483

siesta: Electric dipole (a.u.)  =    0.000000    0.000000    0.000000
siesta: Electric dipole (Debye) =    0.000000    0.000000    0.000000

* Maximum dynamic memory allocated : Node    0 =   164 MB
* Maximum dynamic memory allocated : Node    1 =    66 MB
* Maximum dynamic memory allocated : Node    2 =    67 MB
* Maximum dynamic memory allocated : Node    3 =   150 MB
* Maximum dynamic memory allocated : Node    4 =   159 MB
* Maximum dynamic memory allocated : Node    5 =    58 MB
* Maximum dynamic memory allocated : Node    6 =    59 MB
* Maximum dynamic memory allocated : Node    7 =   150 MB
* Maximum dynamic memory allocated : Node    8 =   148 MB
* Maximum dynamic memory allocated : Node    9 =    59 MB
* Maximum dynamic memory allocated : Node   10 =    60 MB
* Maximum dynamic memory allocated : Node   11 =   139 MB

* Maximum memory occured during matrixMtoO                    

timer: CPU execution times:
timer:  Routine       Calls   Time/call    Tot.time        %
timer:  siesta            1  192370.354  192370.354   100.00
timer:  Setup             1       3.221       3.221     0.00
timer:  bands             3     419.421    1258.264     0.65
timer:  writewave         1       0.016       0.016     0.00
timer:  KSV_init          1       0.006       0.006     0.00
timer:  IterMD            1  191101.414  191101.414    99.34
timer:  hsparse           1       0.279       0.279     0.00
timer:  overlap           1       6.392       6.392     0.00
timer:  IterSCF          36    5303.974  190943.069    99.26
timer:  kinefsm           2       3.259       6.518     0.00
timer:  nlefsm            2      19.782      39.563     0.02
timer:  DHSCF            37      79.850    2954.450     1.54
timer:  DHSCF1            1       1.193       1.193     0.00
timer:  DHSCF2            1      35.014      35.014     0.02
timer:  REORD           298       0.002       0.650     0.00
timer:  POISON           38       0.624      23.710     0.01
timer:  DHSCF3           37      78.112    2890.129     1.50
timer:  rhoofd           37      16.158     597.838     0.31
timer:  cellXC           37       3.049     112.817     0.06
timer:  vmat             37      36.234    1340.648     0.70
timer:  MolMec            2       0.000       0.001     0.00
timer:  diagon           36    5221.962  187990.627    97.72
timer:  c-eigval       8437      10.380   87573.780    45.52
timer:  c-buildHS      8437       0.033     278.282     0.14
timer:  cdiag         16753      10.668  178725.967    92.91
timer:  cdiag1        16753       0.477    7988.495     4.15
timer:  cdiag2        16753       3.386   56726.133    29.49
timer:  cdiag3        16753       6.328  106007.853    55.11
timer:  cdiag4        16753       0.163    2734.150     1.42
timer:  c-eigvec       8316      11.024   91673.455    47.65
timer:  c-buildD       8316       1.197    9956.227     5.18
timer:  DHSCF4            1      27.844      27.844     0.01
timer:  dfscf             1      25.785      25.785     0.01
timer:  overfsm           1       0.316       0.316     0.00
timer:  optical           1       6.778       6.778     0.00
  

elaps: ELAPSED times:
elaps:  Routine       Calls   Time/call    Tot.time        %
elaps:  siesta            1   16766.868   16766.868   100.00
elaps:  Setup             1       0.283       0.283     0.00
elaps:  bands             3      36.589     109.768     0.65
elaps:  writewave         1       0.002       0.002     0.00
elaps:  KSV_init          1       0.000       0.000     0.00
elaps:  IterMD            1   16656.265   16656.265    99.34
elaps:  hsparse           1       0.028       0.028     0.00
elaps:  overlap           1       0.782       0.782     0.00
elaps:  IterSCF          36     462.292   16642.518    99.26
elaps:  kinefsm           2       0.410       0.819     0.00
elaps:  nlefsm            2       1.754       3.507     0.02
elaps:  DHSCF            37       7.011     259.414     1.55
elaps:  DHSCF1            1       0.101       0.101     0.00
elaps:  DHSCF2            1       3.051       3.051     0.02
elaps:  REORD           298       0.000       0.082     0.00
elaps:  POISON           38       0.056       2.118     0.01
elaps:  DHSCF3           37       6.807     251.856     1.50
elaps:  rhoofd           37       3.032     112.190     0.67
elaps:  cellXC           37       0.265       9.819     0.06
elaps:  vmat             37       3.157     116.825     0.70
elaps:  MolMec            2       0.000       0.000     0.00
elaps:  diagon           36     455.156   16385.629    97.73
elaps:  c-eigval       8437       0.905    7632.985    45.52
elaps:  c-buildHS      8437       0.004      31.264     0.19
elaps:  cdiag         16753       0.923   15455.885    92.18
elaps:  cdiag1        16753       0.041     687.097     4.10
elaps:  cdiag2        16753       0.296    4952.225    29.54
elaps:  cdiag3        16753       0.552    9255.451    55.20
elaps:  cdiag4        16753       0.014     226.673     1.35
elaps:  c-eigvec       8316       0.949    7889.554    47.05
elaps:  c-buildD       8316       0.116     966.895     5.77
elaps:  DHSCF4            1       4.373       4.373     0.03
elaps:  dfscf             1       4.120       4.120     0.02
elaps:  overfsm           1       0.035       0.035     0.00
elaps:  optical           1       0.000       0.000     0.00
  
>> End of run:   7-MAY-2016  16:29:41
