Siesta Version:                                        siesta-3.2-pl-3
Architecture  : x86_64-unknown-linux-gnu--unknown
Compiler flags: mpiifort -g -O2 -fPIC -xSSE4.1 -fp-model source -shared-intel 
PARALLEL version

* Running on   12 nodes in parallel
>> Start of run:  29-APR-2016   2:30:38

                           ***********************       
                           *  WELCOME TO SIESTA  *       
                           ***********************       

reinit: Reading from standard input
************************** Dump of input data file ****************************
#(1) General system descriptors
SystemName            GRP_doping    # Descriptive name of the system
SystemLabel           GRP_doping    # Short name for naming files
%include STRUCT.fdf
%include KPT.fdf
%include BASIS.fdf
#%include TS.fdf # for transiesta calculation
#(4) DFT, Grid, SCF
XC.functional         GGA           # LDA or GGA (default = LDA)
XC.authors            PBE           # CA (Ceperley-Aldr) = PZ
                                    #    (Perdew-Zunger) - LDA - Default
                                    # PW92 (Perdew-Wang-92) - LDA
                                    # PBE (Perdew-Burke-Ernzerhof) - GGA
MeshCutoff            200.000000    Ry      # Default: 50.0 Ry ~ 0.444 Bohr
                                    #         100.0 Ry ~ 0.314 Bohr
MaxSCFIterations      500           # Default: 50
DM.MixingWeight       0.05          # Default: 0.25
DM.NumberPulay        10            # Default: 0
DM.PulayOnFile        F             # SystemLabel.P1, SystemLabel.P2
DM.Tolerance          1.d-4         # Default: 1.d-4
DM.UseSaveDM          .true.        # because of the bug
SCFMustConverge       .true.
NeglNonOverlapInt     F             # Default: F
#(5) Eigenvalue problem: order-N or diagonalization
SolutionMethod        Diagon        # or Transiesta
ElectronicTemperature 300.0 K       # Default: 300.0 K
#(6) Molecular dynamics and relaxations
#MD.TypeOfRun          CG            # Type of dynamics:
#MD.VariableCell       F
#MD.NumCGsteps         0           # 0 for single-point / 100 for gopt
#MD.MaxCGDispl         0.2 Bohr      # Default: 0.2 Bohr
#MD.MaxForceTol        0.02 eV/Ang   # Default: 0.04 eV/Ang
#MD.MaxStressTol       1.0 GPa       # Default: 1.0 GPa
# Geometry Constraints
#%block GeometryConstraints
#	position from 1 to 44
#%endblock GeometryConstraints
BandLinesScale   pi/a
%block BandLines
 1   0.00000000  0.00000000  0.00000000
50   0.00000000  0.07809418  0.00000000
50   0.04509075  0.07809242  0.00000000
20   0.00000000  0.00000000  0.00000000
%endblock BandLines
************************** End of input data file *****************************

reinit: -----------------------------------------------------------------------
reinit: System Name: GRP_doping
reinit: -----------------------------------------------------------------------
reinit: System Label: GRP_doping                                                  
reinit: -----------------------------------------------------------------------

initatom: Reading input for the pseudopotentials and atomic orbitals ----------
 Species number:            1  Label: B Atomic number:           5
 Species number:            2  Label: C Atomic number:           6
Ground state valence configuration:   2s02  2p01
Reading pseudopotential information in formatted form from B.psf

Valence configuration for pseudopotential generation:
2s( 2.00) rc: 1.74
2p( 1.00) rc: 1.74
3d( 0.00) rc: 1.74
4f( 0.00) rc: 1.74
Ground state valence configuration:   2s02  2p02
Reading pseudopotential information in formatted form from C.psf

Valence configuration for pseudopotential generation:
2s( 2.00) rc: 1.54
2p( 2.00) rc: 1.54
3d( 0.00) rc: 1.54
4f( 0.00) rc: 1.54
For B, standard SIESTA heuristics set lmxkb to 3
 (one more than the basis l, including polarization orbitals).
Use PS.lmax or PS.KBprojectors blocks to override.
For C, standard SIESTA heuristics set lmxkb to 3
 (one more than the basis l, including polarization orbitals).
Use PS.lmax or PS.KBprojectors blocks to override.

<basis_specs>
===============================================================================
B                    Z=   5    Mass=  10.810        Charge= 0.17977+309
Lmxo=1 Lmxkb= 3    BasisType=split      Semic=F
L=0  Nsemic=0  Cnfigmx=2
          n=1  nzeta=2  polorb=0
            splnorm:   0.15000    
               vcte:    0.0000    
               rinn:    0.0000    
                rcs:    0.0000      0.0000    
            lambdas:    1.0000      1.0000    
L=1  Nsemic=0  Cnfigmx=2
          n=1  nzeta=2  polorb=1
            splnorm:   0.15000    
               vcte:    0.0000    
               rinn:    0.0000    
                rcs:    0.0000      0.0000    
            lambdas:    1.0000      1.0000    
-------------------------------------------------------------------------------
L=0  Nkbl=1  erefs: 0.17977+309
L=1  Nkbl=1  erefs: 0.17977+309
L=2  Nkbl=1  erefs: 0.17977+309
L=3  Nkbl=1  erefs: 0.17977+309
===============================================================================
</basis_specs>

atom: Called for B                     (Z =   5)

read_vps: Pseudopotential generation method:
read_vps: ATM3      Troullier-Martins                       
Total valence charge:    3.00000

read_vps: Pseudopotential includes a core correction:
read_vps: Pseudo-core for xc-correction

xc_check: Exchange-correlation functional:
xc_check: GGA Perdew, Burke & Ernzerhof 1996
V l=0 = -2*Zval/r beyond r=  1.7165
V l=1 = -2*Zval/r beyond r=  1.7165
V l=2 = -2*Zval/r beyond r=  1.7165
V l=3 = -2*Zval/r beyond r=  1.6951
All V_l potentials equal beyond r=  1.7165
This should be close to max(r_c) in ps generation
All pots = -2*Zval/r beyond r=  1.7165

VLOCAL1: 99.0% of the norm of Vloc inside     14.733 Ry
VLOCAL1: 99.9% of the norm of Vloc inside     33.577 Ry
atom: Maximum radius for 4*pi*r*r*local-pseudopot. charge    2.04484
atom: Maximum radius for r*vlocal+2*Zval:    1.75994
GHOST: No ghost state for L =  0
GHOST: No ghost state for L =  1
GHOST: No ghost state for L =  2
GHOST: No ghost state for L =  3

KBgen: Kleinman-Bylander projectors: 
   l= 0   rc=  1.897051   el= -0.693730   Ekb=  4.595746   kbcos=  0.286105
   l= 1   rc=  1.920920   el= -0.265236   Ekb= -2.350715   kbcos= -0.315747
   l= 2   rc=  2.044840   el=  0.002055   Ekb= -0.690767   kbcos= -0.013822
   l= 3   rc=  2.149707   el=  0.003188   Ekb= -0.315358   kbcos= -0.002055

KBgen: Total number of  Kleinman-Bylander projectors:   16
atom: -------------------------------------------------------------------------

atom: SANKEY-TYPE ORBITALS:
atom: Selected multiple-zeta basis: split     

SPLIT: Orbitals with angular momentum L= 0

SPLIT: Basis orbitals for state 2s

SPLIT: PAO cut-off radius determined from an
SPLIT: energy shift=  0.007350 Ry

   izeta = 1
                 lambda =    1.000000
                     rc =    5.422032
                 energy =   -0.686029
                kinetic =    0.576707
    potential(screened) =   -1.262736
       potential(ionic) =   -3.271094

   izeta = 2
                 rmatch =    4.222573
              splitnorm =    0.150000
                 energy =   -0.602132
                kinetic =    0.858975
    potential(screened) =   -1.461107
       potential(ionic) =   -3.582536

SPLIT: Orbitals with angular momentum L= 1

SPLIT: Basis orbitals for state 2p

SPLIT: PAO cut-off radius determined from an
SPLIT: energy shift=  0.007350 Ry

   izeta = 1
                 lambda =    1.000000
                     rc =    6.790259
                 energy =   -0.258578
                kinetic =    1.481412
    potential(screened) =   -1.739989
       potential(ionic) =   -3.657461

   izeta = 2
                 rmatch =    4.608740
              splitnorm =    0.150000
                 energy =   -0.173757
                kinetic =    2.186690
    potential(screened) =   -2.360447
       potential(ionic) =   -4.464260

POLgen: Perturbative polarization orbital with L=  2

POLgen: Polarization orbital for state 2p

   izeta = 1
                     rc =    6.790259
                 energy =    0.684082
                kinetic =    1.471481
    potential(screened) =   -0.787399
       potential(ionic) =   -2.406985
atom: Total number of Sankey-type orbitals: 13

atm_pop: Valence configuration (for local Pseudopot. screening):
 2s( 2.00)                                                            
 2p( 1.00)                                                            
Vna: chval, zval:    3.00000   3.00000

Vna:  Cut-off radius for the neutral-atom potential:   6.790259
comcore: Pseudo-core radius Rcore=  2.122997

atom: _________________________________________________________________________

<basis_specs>
===============================================================================
C                    Z=   6    Mass=  12.010        Charge= 0.17977+309
Lmxo=1 Lmxkb= 3    BasisType=split      Semic=F
L=0  Nsemic=0  Cnfigmx=2
          n=1  nzeta=2  polorb=0
            splnorm:   0.15000    
               vcte:    0.0000    
               rinn:    0.0000    
                rcs:    0.0000      0.0000    
            lambdas:    1.0000      1.0000    
L=1  Nsemic=0  Cnfigmx=2
          n=1  nzeta=2  polorb=1
            splnorm:   0.15000    
               vcte:    0.0000    
               rinn:    0.0000    
                rcs:    0.0000      0.0000    
            lambdas:    1.0000      1.0000    
-------------------------------------------------------------------------------
L=0  Nkbl=1  erefs: 0.17977+309
L=1  Nkbl=1  erefs: 0.17977+309
L=2  Nkbl=1  erefs: 0.17977+309
L=3  Nkbl=1  erefs: 0.17977+309
===============================================================================
</basis_specs>

atom: Called for C                     (Z =   6)

read_vps: Pseudopotential generation method:
read_vps: ATM3      Troullier-Martins                       
Total valence charge:    4.00000

read_vps: Pseudopotential includes a core correction:
read_vps: Pseudo-core for xc-correction

xc_check: Exchange-correlation functional:
xc_check: GGA Perdew, Burke & Ernzerhof 1996
V l=0 = -2*Zval/r beyond r=  1.5227
V l=1 = -2*Zval/r beyond r=  1.5227
V l=2 = -2*Zval/r beyond r=  1.5227
V l=3 = -2*Zval/r beyond r=  1.5038
All V_l potentials equal beyond r=  1.5227
This should be close to max(r_c) in ps generation
All pots = -2*Zval/r beyond r=  1.5227

VLOCAL1: 99.0% of the norm of Vloc inside     18.722 Ry
VLOCAL1: 99.9% of the norm of Vloc inside     42.668 Ry
atom: Maximum radius for 4*pi*r*r*local-pseudopot. charge    1.83678
atom: Maximum radius for r*vlocal+2*Zval:    1.58088
GHOST: No ghost state for L =  0
GHOST: No ghost state for L =  1
GHOST: No ghost state for L =  2
GHOST: No ghost state for L =  3

KBgen: Kleinman-Bylander projectors: 
   l= 0   rc=  1.704034   el= -1.009801   Ekb=  5.335044   kbcos=  0.316824
   l= 1   rc=  1.704034   el= -0.388707   Ekb= -3.785862   kbcos= -0.366464
   l= 2   rc=  1.791422   el=  0.001971   Ekb= -0.970471   kbcos= -0.009212
   l= 3   rc=  1.859892   el=  0.003065   Ekb= -0.399525   kbcos= -0.001223

KBgen: Total number of  Kleinman-Bylander projectors:   16
atom: -------------------------------------------------------------------------

atom: SANKEY-TYPE ORBITALS:
atom: Selected multiple-zeta basis: split     

SPLIT: Orbitals with angular momentum L= 0

SPLIT: Basis orbitals for state 2s

SPLIT: PAO cut-off radius determined from an
SPLIT: energy shift=  0.007350 Ry

   izeta = 1
                 lambda =    1.000000
                     rc =    4.632753
                 energy =   -1.002270
                kinetic =    0.855760
    potential(screened) =   -1.858031
       potential(ionic) =   -5.417575

   izeta = 2
                 rmatch =    3.431921
              splitnorm =    0.150000
                 energy =   -0.867111
                kinetic =    1.300804
    potential(screened) =   -2.167915
       potential(ionic) =   -5.962684

SPLIT: Orbitals with angular momentum L= 1

SPLIT: Basis orbitals for state 2p

SPLIT: PAO cut-off radius determined from an
SPLIT: energy shift=  0.007350 Ry

   izeta = 1
                 lambda =    1.000000
                     rc =    5.658549
                 energy =   -0.381140
                kinetic =    2.399701
    potential(screened) =   -2.780841
       potential(ionic) =   -6.206085

   izeta = 2
                 rmatch =    3.653288
              splitnorm =    0.150000
                 energy =   -0.249149
                kinetic =    3.542762
    potential(screened) =   -3.791911
       potential(ionic) =   -7.581078

POLgen: Perturbative polarization orbital with L=  2

POLgen: Polarization orbital for state 2p

   izeta = 1
                     rc =    5.658549
                 energy =    1.109913
                kinetic =    2.304789
    potential(screened) =   -1.194876
       potential(ionic) =   -4.013592
atom: Total number of Sankey-type orbitals: 13

atm_pop: Valence configuration (for local Pseudopot. screening):
 2s( 2.00)                                                            
 2p( 2.00)                                                            
Vna: chval, zval:    4.00000   4.00000

Vna:  Cut-off radius for the neutral-atom potential:   5.658549
comcore: Pseudo-core radius Rcore=  1.791422

atom: _________________________________________________________________________

prinput: Basis input ----------------------------------------------------------

PAO.BasisType split     

%block ChemicalSpeciesLabel
    1    5 B                       # Species index, atomic number, species label
    2    6 C                       # Species index, atomic number, species label
%endblock ChemicalSpeciesLabel

%block PAO.Basis                 # Define Basis set
B                     2                    # Species label, number of l-shells
 n=2   0   2                         # n, l, Nzeta 
   5.422      4.223   
   1.000      1.000   
 n=2   1   2 P   1                   # n, l, Nzeta, Polarization, NzetaPol
   6.790      4.609   
   1.000      1.000   
C                     2                    # Species label, number of l-shells
 n=2   0   2                         # n, l, Nzeta 
   4.633      3.432   
   1.000      1.000   
 n=2   1   2 P   1                   # n, l, Nzeta, Polarization, NzetaPol
   5.659      3.653   
   1.000      1.000   
%endblock PAO.Basis

prinput: ----------------------------------------------------------------------

coor:   Atomic-coordinates input format  =     Fractional

siesta: Atomic coordinates (Bohr) and species
siesta:     -2.35420  38.89134   0.00000  1        1
siesta:     -2.35420  41.57980   0.00000  1        2
siesta:      2.30256  38.89134   0.00000  1        3
siesta:      2.30256  41.57980   0.00000  1        4
siesta:     -4.68258  34.85847   0.00000  1        5
siesta:     -4.68258  37.54693   0.00000  1        6
siesta:     -7.01096  22.75985   0.00000  1        7
siesta:     -7.01096  25.44831   0.00000  1        8
siesta:    -11.66772  22.75985   0.00000  1        9
siesta:    -11.66772  25.44831   0.00000  1       10
siesta:     -9.33934  26.79272   0.00000  1       11
siesta:     -9.33934  29.48119   0.00000  1       12
siesta:     -0.02582  29.48119   0.00000  1       13
siesta:     -4.68258  26.79272   0.00000  1       14
siesta:     -4.68258  29.48119   0.00000  1       15
siesta:     -2.35420  30.82560   0.00000  1       16
siesta:     -2.35420  33.51406   0.00000  1       17
siesta:     -7.01096  30.82560   0.00000  1       18
siesta:     -7.01096  33.51406   0.00000  1       19
siesta:     -0.02582  34.85847   0.00000  1       20
siesta:     -0.02582  37.54693   0.00000  1       21
siesta:     -0.02582  42.92421   0.00000  1       22
siesta:     -0.02582  45.61267   0.00000  1       23
siesta:     -0.02582   2.59549   0.00000  2       24
siesta:     -0.02582   5.28395   0.00000  2       25
siesta:      4.63094  34.85847   0.00000  2       26
siesta:      4.63094  37.54693   0.00000  2       27
siesta:      6.95932  30.82560   0.00000  2       28
siesta:      6.95932  33.51406   0.00000  2       29
siesta:      9.28770  26.79272   0.00000  2       30
siesta:      9.28770  29.48119   0.00000  2       31
siesta:      2.30256   6.62836   0.00000  2       32
siesta:      2.30256   9.31683   0.00000  2       33
siesta:      4.63094  10.66124   0.00000  2       34
siesta:      4.63094  13.34970   0.00000  2       35
siesta:      6.95932  14.69411   0.00000  2       36
siesta:      6.95932  17.38257   0.00000  2       37
siesta:      9.28770  18.72698   0.00000  2       38
siesta:      9.28770  21.41544   0.00000  2       39
siesta:     11.61608  22.75985   0.00000  2       40
siesta:     11.61608  25.44831   0.00000  2       41
siesta:     -2.35420   6.62836   0.00000  2       42
siesta:     -2.35420   9.31683   0.00000  2       43
siesta:     -0.02582  10.66124   0.00000  2       44
siesta:     -0.02582  13.34970   0.00000  2       45
siesta:      2.30256  14.69411   0.00000  2       46
siesta:      2.30256  17.38257   0.00000  2       47
siesta:      4.63094  18.72698   0.00000  2       48
siesta:      4.63094  21.41544   0.00000  2       49
siesta:      6.95932  22.75985   0.00000  2       50
siesta:      6.95932  25.44831   0.00000  2       51
siesta:     -4.68258  10.66124   0.00000  2       52
siesta:     -4.68258  13.34970   0.00000  2       53
siesta:     -2.35420  14.69411   0.00000  2       54
siesta:     -2.35420  17.38257   0.00000  2       55
siesta:     -0.02582  18.72698   0.00000  2       56
siesta:     -0.02582  21.41544   0.00000  2       57
siesta:      2.30256  22.75985   0.00000  2       58
siesta:      2.30256  25.44831   0.00000  2       59
siesta:     -7.01096  14.69411   0.00000  2       60
siesta:     -7.01096  17.38257   0.00000  2       61
siesta:     -4.68258  18.72698   0.00000  2       62
siesta:     -4.68258  21.41544   0.00000  2       63
siesta:     -2.35420  22.75985   0.00000  2       64
siesta:     -2.35420  25.44831   0.00000  2       65
siesta:     -9.33934  18.72698   0.00000  2       66
siesta:     -9.33934  21.41544   0.00000  2       67
siesta:      4.63094  26.79272   0.00000  2       68
siesta:      4.63094  29.48119   0.00000  2       69
siesta:     -0.02582  26.79272   0.00000  2       70
siesta:      2.30256  30.82560   0.00000  2       71
siesta:      2.30256  33.51406   0.00000  2       72

siesta: System type = slab      

initatomlists: Number of atoms, orbitals, and projectors:     72   936  1152

siesta: ******************** Simulation parameters ****************************
siesta:
siesta: The following are some of the parameters of the simulation.
siesta: A complete list of the parameters used, including default values,
siesta: can be found in file out.fdf
siesta:
redata: Non-Collinear-spin run           =     F
redata: SpinPolarized (Up/Down) run      =     F
redata: Number of spin components        =     1
redata: Long output                      =     F
redata: Number of Atomic Species         =        2
redata: Charge density info will appear in .RHO file
redata: Write Mulliken Pop.              =     NO
redata: Mesh Cutoff                      =   200.0000  Ry
redata: Net charge of the system         =     0.0000 |e|
redata: Max. number of SCF Iter          =      500
redata: SCF convergence failure will abort job
redata: Performing Pulay mixing using    =    10 iterations
redata: Mix DM in first SCF step ?       =     F
redata: Write Pulay info on disk?        =     F
redata: Discard 1st Pulay DM after  kick =     F
redata: New DM Mixing Weight             =     0.0500
redata: New DM Occupancy tolerance       = 0.000000000001
redata: No kicks to SCF
redata: DM Mixing Weight for Kicks       =     0.5000
redata: DM Tolerance for SCF             =     0.000100
redata: Require Energy convergence for SCF =     F
redata: DM Energy tolerance for SCF      =     0.000100 eV
redata: Require Harris convergence for SCF =     F
redata: DM Harris energy tolerance for SCF =     0.000100 eV
redata: Using Saved Data (generic)   =     F
redata: Use continuation files for DM    =     T
redata: Neglect nonoverlap interactions  =     F
redata: Method of Calculation            =     Diagonalization
redata: Divide and Conquer               =     T
redata: Electronic Temperature           =     0.0019  Ry
redata: Fix the spin of the system       =     F
redata: Dynamics option                  =     Verlet MD run
redata: Initial MD time step             =        1
redata:   Final MD time step             =        1
redata: Length of MD time step           =     1.0000  fs
redata: Initial Temperature of MD run    =     0.0000  K
redata: Perform a MD quench              =     F
redata: ***********************************************************************
Total number of electrons:   265.000000
Total ionic charge:   265.000000

* ProcessorY, Blocksize:    3  24

k-point displ. along   1 input, could be:     0.50    0.00
k-point displ. along   2 input, could be:     0.50    0.00
 Kpoints in:          231 . Kpoints trimmed:          231

siesta: k-grid: Number of k-points =   231
siesta: k-grid: Cutoff (effective) =     5.000 Ang
siesta: k-grid: Supercell and displacements
siesta: k-grid:   21   0   0      0.500
siesta: k-grid:    0  21   0      0.500
siesta: k-grid:    0   0   1      0.000
Naive supercell factors:     2    2    2

superc: Internal auxiliary supercell:     2 x     2 x     2  =       8
superc: Number of atoms, orbitals, and projectors:    576   7488   9216

* Maximum dynamic memory allocated =     4 MB

siesta:                 ==============================
                            Begin MD step =      1
                        ==============================

superc: Internal auxiliary supercell:     2 x     2 x     2  =       8
superc: Number of atoms, orbitals, and projectors:    576   7488   9216

outcell: Unit cell vectors (Ang):
       12.804619    7.392750    0.000000
        0.000000   14.785500    0.000000
        0.000000    0.000000   10.000000

outcell: Cell vector modules (Ang)   :   14.785500   14.785500   10.000000
outcell: Cell angles (23,13,12) (deg):     90.0000     90.0000     60.0000
outcell: Cell volume (Ang**3)        :   1893.2269
New_DM. Step:     1
Initializing Density Matrix...

InitMesh: MESH =   120 x   120 x    90 =     1296000
InitMesh: Mesh cutoff (required, used) =   200.000   223.865 Ry

* Maximum dynamic memory allocated =   170 MB

stepf: Fermi-Dirac step function

siesta: Program's energy decomposition (eV):
siesta: Ebs     =     -5436.776811
siesta: Eions   =     15457.706713
siesta: Ena     =      4163.214678
siesta: Ekin    =      5165.204314
siesta: Enl     =       842.651280
siesta: DEna    =        -0.000007
siesta: DUscf   =         0.000000
siesta: DUext   =         0.000000
siesta: Exc     =     -4191.534882
siesta: eta*DQ  =         0.000000
siesta: Emadel  =         0.000000
siesta: Emeta   =         0.000000
siesta: Emolmec =         0.000000
siesta: Ekinion =         0.000000
siesta: Eharris =     -9324.920090
siesta: Etot    =     -9478.171330
siesta: FreeEng =     -9478.171330

siesta: iscf   Eharris(eV)      E_KS(eV)   FreeEng(eV)   dDmax  Ef(eV)
siesta:    1    -9324.9201    -9478.1713    -9478.1713  7.5973 -8.4354
timer: Routine,Calls,Time,% = IterSCF        1    3063.513  99.59
elaps: Routine,Calls,Wall,% = IterSCF        1     255.899  99.59
siesta:    2   -15740.1468    -8321.8760    -8321.9337 17.4719 -7.3337
siesta:    3    -9426.3141    -9291.4677    -9291.5236  1.8879 -5.2950
siesta:    4    -9329.3814    -9231.6169    -9231.6561  1.4933 -4.9088
siesta:    5    -9243.4969    -9168.6403    -9168.6958  1.4574 -4.6571
siesta:    6    -9188.2355    -9141.0155    -9141.0656  1.3013 -4.9568
siesta:    7    -9171.5529    -9127.3763    -9127.4154  1.1471 -4.9028
siesta:    8    -9168.0650    -9121.3790    -9121.4231  1.0839 -4.8492
siesta:    9    -9164.8764    -9118.5132    -9118.5352  0.9964 -4.8887
siesta:   10    -9161.2550    -9119.6174    -9119.6778  0.8210 -4.9520
siesta:   11    -9168.3019    -9121.4506    -9121.4995  0.9331 -5.0547
siesta:   12    -9161.9545    -9119.4251    -9119.4397  0.8315 -4.9618
siesta:   13    -9163.8109    -9118.1924    -9118.2302  0.8439 -4.9788
siesta:   14    -9160.3189    -9120.5272    -9120.5426  0.7536 -5.0639
siesta:   15    -9160.1907    -9122.3812    -9122.4315  0.7483 -5.0480
siesta:   16    -9159.4724    -9125.0373    -9125.0967  0.6009 -5.0344
siesta:   17    -9158.7893    -9130.7825    -9130.8615  0.4321 -5.0032
siesta:   18    -9159.0383    -9134.0209    -9134.0817  0.5448 -5.0396
siesta:   19    -9158.8168    -9139.5183    -9139.5858  0.4973 -5.0430
siesta:   20    -9158.4551    -9146.4721    -9146.5529  0.3431 -5.0205
siesta:   21    -9158.3843    -9147.1872    -9147.2293  0.2710 -5.0277
siesta:   22    -9158.3787    -9147.0745    -9147.1402  0.2464 -5.0257
siesta:   23    -9158.2641    -9146.8321    -9146.8957  0.3175 -5.0102
siesta:   24    -9158.2260    -9146.5465    -9146.6265  0.2127 -5.0094
siesta:   25    -9158.2121    -9147.3585    -9147.4392  0.2165 -4.9980
siesta:   26    -9158.1525    -9149.0518    -9149.1102  0.1146 -5.0241
siesta:   27    -9158.1806    -9156.7379    -9156.8105  0.1085 -5.0590
siesta:   28    -9158.1557    -9156.2847    -9156.3561  0.0806 -5.0667
siesta:   29    -9158.1518    -9157.8093    -9157.8737  0.0526 -5.0721
siesta:   30    -9158.1277    -9157.4358    -9157.5025  0.0438 -5.0677
siesta:   31    -9158.1246    -9158.1363    -9158.2087  0.0246 -5.0565
siesta:   32    -9158.1228    -9158.7753    -9158.8465  0.0360 -5.0500
siesta:   33    -9158.1223    -9158.9792    -9159.0506  0.0249 -5.0497
siesta:   34    -9158.1213    -9158.5724    -9158.6435  0.0169 -5.0459
siesta:   35    -9158.1210    -9158.5231    -9158.5943  0.0099 -5.0453
siesta:   36    -9158.1212    -9158.3724    -9158.4432  0.0088 -5.0448
siesta:   37    -9158.1208    -9158.4369    -9158.5074  0.0075 -5.0455
siesta:   38    -9158.1215    -9158.2966    -9158.3675  0.0091 -5.0465
siesta:   39    -9158.1206    -9158.3122    -9158.3822  0.0034 -5.0468
siesta:   40    -9158.1205    -9158.1464    -9158.2171  0.0013 -5.0464
siesta:   41    -9158.1206    -9158.1660    -9158.2368  0.0010 -5.0468
siesta:   42    -9158.1206    -9158.1589    -9158.2296  0.0015 -5.0468
siesta:   43    -9158.1206    -9158.1552    -9158.2259  0.0015 -5.0471
siesta:   44    -9158.1205    -9158.1442    -9158.2150  0.0009 -5.0472
siesta:   45    -9158.1206    -9158.1398    -9158.2105  0.0010 -5.0473
siesta:   46    -9158.1206    -9158.1317    -9158.2025  0.0009 -5.0473
siesta:   47    -9158.1206    -9158.1325    -9158.2032  0.0002 -5.0473
siesta:   48    -9158.1206    -9158.1278    -9158.1985  0.0001 -5.0473
siesta:   49    -9158.1206    -9158.1268    -9158.1975  0.0001 -5.0473
siesta:   50    -9158.1206    -9158.1260    -9158.1967  0.0001 -5.0473

siesta: E_KS(eV) =            -9158.1252

siesta: E_KS - E_eggbox =     -9158.1252

siesta: Atomic forces (eV/Ang):
----------------------------------------
   Tot   -0.136942    0.122377    0.000000
----------------------------------------
   Max  556.334153
   Res  129.606325    sqrt( Sum f_i^2 / 3N )
----------------------------------------
   Max  556.334153    constrained

Stress-tensor-Voigt (kbar):     -681.24    -2394.69       -0.65       -4.61        0.00        0.00
(Free)E + p*V (eV/cell)    -7946.3885
Target enthalpy (eV/cell)    -9158.1959

siesta: Stress tensor (static) (eV/Ang**3):
        -0.425190   -0.002876    0.000000
        -0.002876   -1.494630    0.000000
         0.000000    0.000000   -0.000405

siesta: Pressure (static):       1025.52449394  kBar

siesta: Stress tensor (total) (eV/Ang**3):
        -0.425190   -0.002876    0.000000
        -0.002876   -1.494630    0.000000
         0.000000    0.000000   -0.000405

siesta: Pressure (total):       1025.52449394  kBar

siesta: Temp_ion =       0.000 K

* Maximum dynamic memory allocated =   183 MB
Computing bands...

siesta: Program's energy decomposition (eV):
siesta: Ebs     =     -4056.664677
siesta: Eions   =     15457.706713
siesta: Ena     =      4163.214678
siesta: Ekin    =      7906.494653
siesta: Enl     =      -787.913139
siesta: DEna    =      -726.495353
siesta: DUscf   =        96.247335
siesta: DUext   =         0.000000
siesta: Exc     =     -4351.966678
siesta: eta*DQ  =         0.000000
siesta: Emadel  =         0.000000
siesta: Emeta   =         0.000000
siesta: Emolmec =         0.000000
siesta: Ekinion =         0.000000
siesta: Eharris =     -9158.120582
siesta: Etot    =     -9158.125216
siesta: FreeEng =     -9158.195942

siesta: Final energy (eV):
siesta:  Band Struct. =   -4056.664677
siesta:       Kinetic =    7906.494653
siesta:       Hartree =   25512.217320
siesta:    Ext. field =       0.000000
siesta:   Exch.-corr. =   -4351.966678
siesta:  Ion-electron =  -58637.372291
siesta:       Ion-ion =   20412.501779
siesta:       Ekinion =       0.000000
siesta:         Total =   -9158.125216

siesta: Atomic forces (eV/Ang):
siesta:      1    0.828720  106.807658    0.000000
siesta:      2    3.097880 -400.083435    0.000000
siesta:      3   -4.375474  106.028223    0.000000
siesta:      4   -3.537346 -400.310366    0.000000
siesta:      5  -15.377435    0.467187    0.000000
siesta:      6  -16.428785 -395.216017    0.000000
siesta:      7    2.755609   -5.325532    0.000000
siesta:      8   -2.878027    2.420629    0.000000
siesta:      9   -2.024803   -4.988292    0.000000
siesta:     10   -5.956462    4.286368    0.000000
siesta:     11   -3.860932   -0.012505    0.000000
siesta:     12   -5.033129    1.431021    0.000000
siesta:     13   -1.019482 -414.141975    0.000000
siesta:     14    5.440639   -3.076434    0.000000
siesta:     15   -0.342976    1.712211    0.000000
siesta:     16  -14.729647    0.215057    0.000000
siesta:     17  -17.643019 -399.873052    0.000000
siesta:     18   -2.480601    3.792963    0.000000
siesta:     19   -3.495727    2.497435    0.000000
siesta:     20   -2.450533  107.794509    0.000000
siesta:     21   -4.419706 -386.689845    0.000000
siesta:     22   -0.315013  105.693309    0.000000
siesta:     23    0.236069 -407.139796    0.000000
siesta:     24    2.536967  408.101096    0.000000
siesta:     25   -9.450092 -125.564624    0.000000
siesta:     26   25.849695    6.046782    0.000000
siesta:     27   28.174093 -543.382772    0.000000
siesta:     28    2.068805   -0.125245    0.000000
siesta:     29   -2.128180    2.162933    0.000000
siesta:     30    2.453210    2.097401    0.000000
siesta:     31   -1.084422    0.503746    0.000000
siesta:     32   27.078071  556.334153    0.000000
siesta:     33   -2.786799 -129.231969    0.000000
siesta:     34   35.257145  548.901503    0.000000
siesta:     35   24.213911   -1.761374    0.000000
siesta:     36   -1.849172   -2.843102    0.000000
siesta:     37    2.264210    0.206264    0.000000
siesta:     38   -0.983168   -0.485106    0.000000
siesta:     39    1.713716   -2.021550    0.000000
siesta:     40    0.406499    6.318033    0.000000
siesta:     41   -0.599287   -6.401959    0.000000
siesta:     42  -16.141352  404.250553    0.000000
siesta:     43   -1.686681 -119.070148    0.000000
siesta:     44   -4.215832  405.001331    0.000000
siesta:     45    0.476817 -120.707647    0.000000
siesta:     46   27.812236  414.572093    0.000000
siesta:     47   21.747914   -1.568788    0.000000
siesta:     48   -1.440704    1.005461    0.000000
siesta:     49    0.225486    0.061673    0.000000
siesta:     50   -0.288503    0.660740    0.000000
siesta:     51   -0.409419   -0.584655    0.000000
siesta:     52  -31.420027  403.071728    0.000000
siesta:     53  -24.128090    2.741449    0.000000
siesta:     54  -28.995432  413.437599    0.000000
siesta:     55  -21.646461   -2.229707    0.000000
siesta:     56    0.137013  417.553902    0.000000
siesta:     57   -0.860252    3.298813    0.000000
siesta:     58   -0.093066   -0.069965    0.000000
siesta:     59   -0.952273   -0.133399    0.000000
siesta:     60    2.468294   -2.431217    0.000000
siesta:     61   -2.188399   -1.065856    0.000000
siesta:     62    1.297205    1.706975    0.000000
siesta:     63    1.269765   -1.937992    0.000000
siesta:     64    2.363812   -1.091286    0.000000
siesta:     65    4.083581   -0.879870    0.000000
siesta:     66    1.371733    1.203936    0.000000
siesta:     67   -4.103464   -5.129274    0.000000
siesta:     68    0.788830    0.459894    0.000000
siesta:     69   -0.837176   -2.156477    0.000000
siesta:     70    0.646597   -3.861824    0.000000
siesta:     71   21.880540    3.743740    0.000000
siesta:     72   13.575345 -554.872938    0.000000
siesta: ----------------------------------------
siesta:    Tot   -0.136942    0.122377    0.000000

siesta: Stress tensor (static) (eV/Ang**3):
siesta:    -0.425190   -0.002876    0.000000
siesta:    -0.002876   -1.494630    0.000000
siesta:     0.000000    0.000000   -0.000405

siesta: Cell volume =       1893.226884 Ang**3

siesta: Pressure (static):
siesta:                Solid            Molecule  Units
siesta:           0.00697124          0.09845801  Ry/Bohr**3
siesta:           0.64007512          9.04007951  eV/Ang**3
siesta:        1025.52449394      14483.96071261  kBar
(Free)E+ p_basis*V_orbitals  =       -9120.191397
(Free)Eharris+ p_basis*V_orbitals  =       -9120.185983

siesta: Electric dipole (a.u.)  =    0.000000    0.000000    0.000000
siesta: Electric dipole (Debye) =    0.000000    0.000000    0.000000

* Maximum dynamic memory allocated : Node    0 =   183 MB
* Maximum dynamic memory allocated : Node    1 =    73 MB
* Maximum dynamic memory allocated : Node    2 =    75 MB
* Maximum dynamic memory allocated : Node    3 =   167 MB
* Maximum dynamic memory allocated : Node    4 =   173 MB
* Maximum dynamic memory allocated : Node    5 =    65 MB
* Maximum dynamic memory allocated : Node    6 =    68 MB
* Maximum dynamic memory allocated : Node    7 =   166 MB
* Maximum dynamic memory allocated : Node    8 =   151 MB
* Maximum dynamic memory allocated : Node    9 =    61 MB
* Maximum dynamic memory allocated : Node   10 =    63 MB
* Maximum dynamic memory allocated : Node   11 =   144 MB

* Maximum memory occured during matrixMtoO                    

timer: CPU execution times:
timer:  Routine       Calls   Time/call    Tot.time        %
timer:  siesta            1  148935.735  148935.735   100.00
timer:  Setup             1       3.358       3.358     0.00
timer:  bands             3     225.741     677.224     0.45
timer:  writewave         1       0.023       0.023     0.00
timer:  KSV_init          1       0.003       0.003     0.00
timer:  IterMD            1  148248.214  148248.214    99.54
timer:  hsparse           1       0.283       0.283     0.00
timer:  overlap           1       8.403       8.403     0.01
timer:  IterSCF          50    2961.547  148077.339    99.42
timer:  kinefsm           2       4.275       8.550     0.01
timer:  nlefsm            2      20.968      41.936     0.03
timer:  DHSCF            51      88.113    4493.778     3.02
timer:  DHSCF1            1       1.193       1.193     0.00
timer:  DHSCF2            1      34.692      34.692     0.02
timer:  REORD           410       0.002       0.972     0.00
timer:  POISON           52       0.446      23.215     0.02
timer:  DHSCF3           51      86.811    4427.360     2.97
timer:  rhoofd           51      18.881     962.923     0.65
timer:  cellXC           51       2.412     122.994     0.08
timer:  vmat             51      41.469    2114.935     1.42
timer:  MolMec            2       0.000       0.001     0.00
timer:  diagon           50    2872.408  143620.398    96.43
timer:  c-eigval      11671       5.595   65302.925    43.85
timer:  c-buildHS     11671       0.037     433.677     0.29
timer:  cdiag         23221       5.690  132138.663    88.72
timer:  cdiag1        23221       0.259    6025.558     4.05
timer:  cdiag2        23221       1.841   42741.108    28.70
timer:  cdiag3        23221       3.381   78514.392    52.72
timer:  cdiag4        23221       0.086    1993.388     1.34
timer:  c-eigvec      11550       5.856   67640.563    45.42
timer:  c-buildD      11550       0.978   11291.337     7.58
timer:  DHSCF4            1      30.195      30.195     0.02
timer:  dfscf             1      28.053      28.053     0.02
timer:  overfsm           1       0.339       0.339     0.00
timer:  optical           1       6.333       6.333     0.00
  

elaps: ELAPSED times:
elaps:  Routine       Calls   Time/call    Tot.time        %
elaps:  siesta            1   12440.485   12440.485   100.00
elaps:  Setup             1       0.279       0.279     0.00
elaps:  bands             3      18.871      56.613     0.46
elaps:  writewave         1       0.002       0.002     0.00
elaps:  KSV_init          1       0.000       0.000     0.00
elaps:  IterMD            1   12383.059   12383.059    99.54
elaps:  hsparse           1       0.029       0.029     0.00
elaps:  overlap           1       0.720       0.720     0.01
elaps:  IterSCF          50     247.376   12368.785    99.42
elaps:  kinefsm           2       0.370       0.740     0.01
elaps:  nlefsm            2       1.894       3.787     0.03
elaps:  DHSCF            51       7.413     378.040     3.04
elaps:  DHSCF1            1       0.101       0.101     0.00
elaps:  DHSCF2            1       2.897       2.897     0.02
elaps:  REORD           410       0.000       0.121     0.00
elaps:  POISON           52       0.038       1.953     0.02
elaps:  DHSCF3           51       7.252     369.853     2.97
elaps:  rhoofd           51       3.539     180.496     1.45
elaps:  cellXC           51       0.201      10.249     0.08
elaps:  vmat             51       3.465     176.697     1.42
elaps:  MolMec            2       0.000       0.000     0.00
elaps:  diagon           50     239.936   11996.810    96.43
elaps:  c-eigval      11671       0.467    5454.608    43.85
elaps:  c-buildHS     11671       0.004      46.683     0.38
elaps:  cdiag         23221       0.470   10921.696    87.79
elaps:  cdiag1        23221       0.021     492.901     3.96
elaps:  cdiag2        23221       0.154    3573.347    28.72
elaps:  cdiag3        23221       0.283    6568.211    52.80
elaps:  cdiag4        23221       0.007     159.340     1.28
elaps:  c-eigvec      11550       0.481    5553.472    44.64
elaps:  c-buildD      11550       0.090    1039.434     8.36
elaps:  DHSCF4            1       5.133       5.133     0.04
elaps:  dfscf             1       4.860       4.860     0.04
elaps:  overfsm           1       0.037       0.037     0.00
elaps:  optical           1       0.000       0.000     0.00
  
>> End of run:  29-APR-2016   5:57:59
