Siesta Version:                                        siesta-3.2-pl-3
Architecture  : x86_64-unknown-linux-gnu--unknown
Compiler flags: mpiifort -g -O2 -fPIC -xSSE4.1 -fp-model source -shared-intel 
PARALLEL version

* Running on   12 nodes in parallel
>> Start of run:   2-MAY-2016  11:54:30

                           ***********************       
                           *  WELCOME TO SIESTA  *       
                           ***********************       

reinit: Reading from standard input
************************** Dump of input data file ****************************
#(1) General system descriptors
SystemName            GRP_doping    # Descriptive name of the system
SystemLabel           GRP_doping    # Short name for naming files
%include STRUCT.fdf
%include KPT.fdf
%include BASIS.fdf
#%include TS.fdf # for transiesta calculation
#(4) DFT, Grid, SCF
XC.functional         GGA           # LDA or GGA (default = LDA)
XC.authors            PBE           # CA (Ceperley-Aldr) = PZ
                                    #    (Perdew-Zunger) - LDA - Default
                                    # PW92 (Perdew-Wang-92) - LDA
                                    # PBE (Perdew-Burke-Ernzerhof) - GGA
MeshCutoff            200.000000    Ry      # Default: 50.0 Ry ~ 0.444 Bohr
                                    #         100.0 Ry ~ 0.314 Bohr
MaxSCFIterations      500           # Default: 50
DM.MixingWeight       0.05          # Default: 0.25
DM.NumberPulay        10            # Default: 0
DM.PulayOnFile        F             # SystemLabel.P1, SystemLabel.P2
DM.Tolerance          1.d-4         # Default: 1.d-4
DM.UseSaveDM          .true.        # because of the bug
SCFMustConverge       .true.
NeglNonOverlapInt     F             # Default: F
#(5) Eigenvalue problem: order-N or diagonalization
SolutionMethod        Diagon        # or Transiesta
ElectronicTemperature 300.0 K       # Default: 300.0 K
#(6) Molecular dynamics and relaxations
#MD.TypeOfRun          CG            # Type of dynamics:
#MD.VariableCell       F
#MD.NumCGsteps         0           # 0 for single-point / 100 for gopt
#MD.MaxCGDispl         0.2 Bohr      # Default: 0.2 Bohr
#MD.MaxForceTol        0.02 eV/Ang   # Default: 0.04 eV/Ang
#MD.MaxStressTol       1.0 GPa       # Default: 1.0 GPa
# Geometry Constraints
#%block GeometryConstraints
#	position from 1 to 44
#%endblock GeometryConstraints
BandLinesScale   pi/a
%block BandLines
 1   0.00000000  0.00000000  0.00000000
50   0.00000000  0.07809418  0.00000000
50   0.04509075  0.07809242  0.00000000
20   0.00000000  0.00000000  0.00000000
%endblock BandLines
************************** End of input data file *****************************

reinit: -----------------------------------------------------------------------
reinit: System Name: GRP_doping
reinit: -----------------------------------------------------------------------
reinit: System Label: GRP_doping                                                  
reinit: -----------------------------------------------------------------------

initatom: Reading input for the pseudopotentials and atomic orbitals ----------
 Species number:            1  Label: N Atomic number:           7
 Species number:            2  Label: C Atomic number:           6
Ground state valence configuration:   2s02  2p03
Reading pseudopotential information in formatted form from N.psf

Valence configuration for pseudopotential generation:
2s( 2.00) rc: 1.48
2p( 3.00) rc: 1.48
3d( 0.00) rc: 1.48
4f( 0.00) rc: 1.48
Ground state valence configuration:   2s02  2p02
Reading pseudopotential information in formatted form from C.psf

Valence configuration for pseudopotential generation:
2s( 2.00) rc: 1.54
2p( 2.00) rc: 1.54
3d( 0.00) rc: 1.54
4f( 0.00) rc: 1.54
For N, standard SIESTA heuristics set lmxkb to 3
 (one more than the basis l, including polarization orbitals).
Use PS.lmax or PS.KBprojectors blocks to override.
For C, standard SIESTA heuristics set lmxkb to 3
 (one more than the basis l, including polarization orbitals).
Use PS.lmax or PS.KBprojectors blocks to override.

<basis_specs>
===============================================================================
N                    Z=   7    Mass=  14.010        Charge= 0.17977+309
Lmxo=1 Lmxkb= 3    BasisType=split      Semic=F
L=0  Nsemic=0  Cnfigmx=2
          n=1  nzeta=2  polorb=0
            splnorm:   0.15000    
               vcte:    0.0000    
               rinn:    0.0000    
                rcs:    0.0000      0.0000    
            lambdas:    1.0000      1.0000    
L=1  Nsemic=0  Cnfigmx=2
          n=1  nzeta=2  polorb=1
            splnorm:   0.15000    
               vcte:    0.0000    
               rinn:    0.0000    
                rcs:    0.0000      0.0000    
            lambdas:    1.0000      1.0000    
-------------------------------------------------------------------------------
L=0  Nkbl=1  erefs: 0.17977+309
L=1  Nkbl=1  erefs: 0.17977+309
L=2  Nkbl=1  erefs: 0.17977+309
L=3  Nkbl=1  erefs: 0.17977+309
===============================================================================
</basis_specs>

atom: Called for N                     (Z =   7)

read_vps: Pseudopotential generation method:
read_vps: ATM3      Troullier-Martins                       
Total valence charge:    5.00000

read_vps: Pseudopotential includes a core correction:
read_vps: Pseudo-core for xc-correction

xc_check: Exchange-correlation functional:
xc_check: GGA Perdew, Burke & Ernzerhof 1996
V l=0 = -2*Zval/r beyond r=  1.4606
V l=1 = -2*Zval/r beyond r=  1.4606
V l=2 = -2*Zval/r beyond r=  1.4606
V l=3 = -2*Zval/r beyond r=  1.4606
All V_l potentials equal beyond r=  1.4606
This should be close to max(r_c) in ps generation
All pots = -2*Zval/r beyond r=  1.4606

VLOCAL1: 99.0% of the norm of Vloc inside     20.347 Ry
VLOCAL1: 99.9% of the norm of Vloc inside     46.372 Ry
atom: Maximum radius for 4*pi*r*r*local-pseudopot. charge    1.76189
atom: Maximum radius for r*vlocal+2*Zval:    1.53550
GHOST: No ghost state for L =  0
GHOST: No ghost state for L =  1
GHOST: No ghost state for L =  2
GHOST: No ghost state for L =  3

KBgen: Kleinman-Bylander projectors: 
   l= 0   rc=  1.634559   el= -1.363963   Ekb=  5.296955   kbcos=  0.335621
   l= 1   rc=  1.614250   el= -0.521451   Ekb= -5.259161   kbcos= -0.433408
   l= 2   rc=  1.718383   el=  0.001991   Ekb= -1.271464   kbcos= -0.007566
   l= 3   rc=  1.761893   el=  0.003093   Ekb= -0.494769   kbcos= -0.001015

KBgen: Total number of  Kleinman-Bylander projectors:   16
atom: -------------------------------------------------------------------------

atom: SANKEY-TYPE ORBITALS:
atom: Selected multiple-zeta basis: split     

SPLIT: Orbitals with angular momentum L= 0

SPLIT: Basis orbitals for state 2s

SPLIT: PAO cut-off radius determined from an
SPLIT: energy shift=  0.007350 Ry

   izeta = 1
                 lambda =    1.000000
                     rc =    4.071465
                 energy =   -1.356470
                kinetic =    1.176977
    potential(screened) =   -2.533447
       potential(ionic) =   -8.057990

   izeta = 2
                 rmatch =    2.905100
              splitnorm =    0.150000
                 energy =   -1.158343
                kinetic =    1.813009
    potential(screened) =   -2.971352
       potential(ionic) =   -8.901931

SPLIT: Orbitals with angular momentum L= 1

SPLIT: Basis orbitals for state 2p

SPLIT: PAO cut-off radius determined from an
SPLIT: energy shift=  0.007350 Ry

   izeta = 1
                 lambda =    1.000000
                     rc =    4.972977
                 energy =   -0.513884
                kinetic =    3.441732
    potential(screened) =   -3.955616
       potential(ionic) =   -9.287901

   izeta = 2
                 rmatch =    3.054066
              splitnorm =    0.150000
                 energy =   -0.318226
                kinetic =    5.125348
    potential(screened) =   -5.443573
       potential(ionic) =  -11.380999

POLgen: Perturbative polarization orbital with L=  2

POLgen: Polarization orbital for state 2p

   izeta = 1
                     rc =    4.972977
                 energy =    1.607437
                kinetic =    3.268125
    potential(screened) =   -1.660688
       potential(ionic) =   -5.973652
atom: Total number of Sankey-type orbitals: 13

atm_pop: Valence configuration (for local Pseudopot. screening):
 2s( 2.00)                                                            
 2p( 3.00)                                                            
Vna: chval, zval:    5.00000   5.00000

Vna:  Cut-off radius for the neutral-atom potential:   4.972977
comcore: Pseudo-core radius Rcore=  1.554824

atom: _________________________________________________________________________

<basis_specs>
===============================================================================
C                    Z=   6    Mass=  12.010        Charge= 0.17977+309
Lmxo=1 Lmxkb= 3    BasisType=split      Semic=F
L=0  Nsemic=0  Cnfigmx=2
          n=1  nzeta=2  polorb=0
            splnorm:   0.15000    
               vcte:    0.0000    
               rinn:    0.0000    
                rcs:    0.0000      0.0000    
            lambdas:    1.0000      1.0000    
L=1  Nsemic=0  Cnfigmx=2
          n=1  nzeta=2  polorb=1
            splnorm:   0.15000    
               vcte:    0.0000    
               rinn:    0.0000    
                rcs:    0.0000      0.0000    
            lambdas:    1.0000      1.0000    
-------------------------------------------------------------------------------
L=0  Nkbl=1  erefs: 0.17977+309
L=1  Nkbl=1  erefs: 0.17977+309
L=2  Nkbl=1  erefs: 0.17977+309
L=3  Nkbl=1  erefs: 0.17977+309
===============================================================================
</basis_specs>

atom: Called for C                     (Z =   6)

read_vps: Pseudopotential generation method:
read_vps: ATM3      Troullier-Martins                       
Total valence charge:    4.00000

read_vps: Pseudopotential includes a core correction:
read_vps: Pseudo-core for xc-correction

xc_check: Exchange-correlation functional:
xc_check: GGA Perdew, Burke & Ernzerhof 1996
V l=0 = -2*Zval/r beyond r=  1.5227
V l=1 = -2*Zval/r beyond r=  1.5227
V l=2 = -2*Zval/r beyond r=  1.5227
V l=3 = -2*Zval/r beyond r=  1.5038
All V_l potentials equal beyond r=  1.5227
This should be close to max(r_c) in ps generation
All pots = -2*Zval/r beyond r=  1.5227

VLOCAL1: 99.0% of the norm of Vloc inside     18.722 Ry
VLOCAL1: 99.9% of the norm of Vloc inside     42.668 Ry
atom: Maximum radius for 4*pi*r*r*local-pseudopot. charge    1.83678
atom: Maximum radius for r*vlocal+2*Zval:    1.58088
GHOST: No ghost state for L =  0
GHOST: No ghost state for L =  1
GHOST: No ghost state for L =  2
GHOST: No ghost state for L =  3

KBgen: Kleinman-Bylander projectors: 
   l= 0   rc=  1.704034   el= -1.009801   Ekb=  5.335044   kbcos=  0.316824
   l= 1   rc=  1.704034   el= -0.388707   Ekb= -3.785862   kbcos= -0.366464
   l= 2   rc=  1.791422   el=  0.001971   Ekb= -0.970471   kbcos= -0.009212
   l= 3   rc=  1.859892   el=  0.003065   Ekb= -0.399525   kbcos= -0.001223

KBgen: Total number of  Kleinman-Bylander projectors:   16
atom: -------------------------------------------------------------------------

atom: SANKEY-TYPE ORBITALS:
atom: Selected multiple-zeta basis: split     

SPLIT: Orbitals with angular momentum L= 0

SPLIT: Basis orbitals for state 2s

SPLIT: PAO cut-off radius determined from an
SPLIT: energy shift=  0.007350 Ry

   izeta = 1
                 lambda =    1.000000
                     rc =    4.632753
                 energy =   -1.002270
                kinetic =    0.855760
    potential(screened) =   -1.858031
       potential(ionic) =   -5.417575

   izeta = 2
                 rmatch =    3.431921
              splitnorm =    0.150000
                 energy =   -0.867111
                kinetic =    1.300804
    potential(screened) =   -2.167915
       potential(ionic) =   -5.962684

SPLIT: Orbitals with angular momentum L= 1

SPLIT: Basis orbitals for state 2p

SPLIT: PAO cut-off radius determined from an
SPLIT: energy shift=  0.007350 Ry

   izeta = 1
                 lambda =    1.000000
                     rc =    5.658549
                 energy =   -0.381140
                kinetic =    2.399701
    potential(screened) =   -2.780841
       potential(ionic) =   -6.206085

   izeta = 2
                 rmatch =    3.653288
              splitnorm =    0.150000
                 energy =   -0.249149
                kinetic =    3.542762
    potential(screened) =   -3.791911
       potential(ionic) =   -7.581078

POLgen: Perturbative polarization orbital with L=  2

POLgen: Polarization orbital for state 2p

   izeta = 1
                     rc =    5.658549
                 energy =    1.109913
                kinetic =    2.304789
    potential(screened) =   -1.194876
       potential(ionic) =   -4.013592
atom: Total number of Sankey-type orbitals: 13

atm_pop: Valence configuration (for local Pseudopot. screening):
 2s( 2.00)                                                            
 2p( 2.00)                                                            
Vna: chval, zval:    4.00000   4.00000

Vna:  Cut-off radius for the neutral-atom potential:   5.658549
comcore: Pseudo-core radius Rcore=  1.791422

atom: _________________________________________________________________________

prinput: Basis input ----------------------------------------------------------

PAO.BasisType split     

%block ChemicalSpeciesLabel
    1    7 N                       # Species index, atomic number, species label
    2    6 C                       # Species index, atomic number, species label
%endblock ChemicalSpeciesLabel

%block PAO.Basis                 # Define Basis set
N                     2                    # Species label, number of l-shells
 n=2   0   2                         # n, l, Nzeta 
   4.071      2.905   
   1.000      1.000   
 n=2   1   2 P   1                   # n, l, Nzeta, Polarization, NzetaPol
   4.973      3.054   
   1.000      1.000   
C                     2                    # Species label, number of l-shells
 n=2   0   2                         # n, l, Nzeta 
   4.633      3.432   
   1.000      1.000   
 n=2   1   2 P   1                   # n, l, Nzeta, Polarization, NzetaPol
   5.659      3.653   
   1.000      1.000   
%endblock PAO.Basis

prinput: ----------------------------------------------------------------------

coor:   Atomic-coordinates input format  =     Fractional

siesta: Atomic coordinates (Bohr) and species
siesta:      2.30256  17.38257   0.00000  1        1
siesta:      6.95932  25.44831   0.00000  1        2
siesta:     -2.35420  17.38257   0.00000  1        3
siesta:     -0.02582  18.72698   0.00000  1        4
siesta:     -0.02582  21.41544   0.00000  1        5
siesta:      2.30256  25.44831   0.00000  1        6
siesta:     -4.68258  18.72698   0.00000  1        7
siesta:     -4.68258  21.41544   0.00000  1        8
siesta:     -2.35420  22.75985   0.00000  1        9
siesta:     -7.01096  22.75985   0.00000  1       10
siesta:      4.63094  26.79272   0.00000  1       11
siesta:      4.63094  29.48119   0.00000  1       12
siesta:     -0.02582  26.79272   0.00000  1       13
siesta:     -0.02582  29.48119   0.00000  1       14
siesta:      2.30256  30.82560   0.00000  1       15
siesta:     -2.35420  30.82560   0.00000  1       16
siesta:     -0.02582   2.59549   0.00000  2       17
siesta:     -0.02582   5.28395   0.00000  2       18
siesta:     -2.35420  38.89134   0.00000  2       19
siesta:     -2.35420  41.57980   0.00000  2       20
siesta:      2.30256  38.89134   0.00000  2       21
siesta:      2.30256  41.57980   0.00000  2       22
siesta:      4.63094  34.85847   0.00000  2       23
siesta:      4.63094  37.54693   0.00000  2       24
siesta:      6.95932  30.82560   0.00000  2       25
siesta:      6.95932  33.51406   0.00000  2       26
siesta:      9.28770  26.79272   0.00000  2       27
siesta:      9.28770  29.48119   0.00000  2       28
siesta:     -4.68258  34.85847   0.00000  2       29
siesta:     -4.68258  37.54693   0.00000  2       30
siesta:      2.30256   6.62836   0.00000  2       31
siesta:      2.30256   9.31683   0.00000  2       32
siesta:      4.63094  10.66124   0.00000  2       33
siesta:      4.63094  13.34970   0.00000  2       34
siesta:      6.95932  14.69411   0.00000  2       35
siesta:      6.95932  17.38257   0.00000  2       36
siesta:      9.28770  18.72698   0.00000  2       37
siesta:      9.28770  21.41544   0.00000  2       38
siesta:     11.61608  22.75985   0.00000  2       39
siesta:     11.61608  25.44831   0.00000  2       40
siesta:     -2.35420   6.62836   0.00000  2       41
siesta:     -2.35420   9.31683   0.00000  2       42
siesta:     -0.02582  10.66124   0.00000  2       43
siesta:     -0.02582  13.34970   0.00000  2       44
siesta:      2.30256  14.69411   0.00000  2       45
siesta:      4.63094  18.72698   0.00000  2       46
siesta:      4.63094  21.41544   0.00000  2       47
siesta:      6.95932  22.75985   0.00000  2       48
siesta:     -4.68258  10.66124   0.00000  2       49
siesta:     -4.68258  13.34970   0.00000  2       50
siesta:     -2.35420  14.69411   0.00000  2       51
siesta:      2.30256  22.75985   0.00000  2       52
siesta:     -7.01096  14.69411   0.00000  2       53
siesta:     -7.01096  17.38257   0.00000  2       54
siesta:     -2.35420  25.44831   0.00000  2       55
siesta:     -9.33934  18.72698   0.00000  2       56
siesta:     -9.33934  21.41544   0.00000  2       57
siesta:     -7.01096  25.44831   0.00000  2       58
siesta:    -11.66772  22.75985   0.00000  2       59
siesta:    -11.66772  25.44831   0.00000  2       60
siesta:     -9.33934  26.79272   0.00000  2       61
siesta:     -9.33934  29.48119   0.00000  2       62
siesta:     -4.68258  26.79272   0.00000  2       63
siesta:     -4.68258  29.48119   0.00000  2       64
siesta:      2.30256  33.51406   0.00000  2       65
siesta:     -2.35420  33.51406   0.00000  2       66
siesta:     -7.01096  30.82560   0.00000  2       67
siesta:     -7.01096  33.51406   0.00000  2       68
siesta:     -0.02582  34.85847   0.00000  2       69
siesta:     -0.02582  37.54693   0.00000  2       70
siesta:     -0.02582  42.92421   0.00000  2       71
siesta:     -0.02582  45.61267   0.00000  2       72

siesta: System type = slab      

initatomlists: Number of atoms, orbitals, and projectors:     72   936  1152

siesta: ******************** Simulation parameters ****************************
siesta:
siesta: The following are some of the parameters of the simulation.
siesta: A complete list of the parameters used, including default values,
siesta: can be found in file out.fdf
siesta:
redata: Non-Collinear-spin run           =     F
redata: SpinPolarized (Up/Down) run      =     F
redata: Number of spin components        =     1
redata: Long output                      =     F
redata: Number of Atomic Species         =        2
redata: Charge density info will appear in .RHO file
redata: Write Mulliken Pop.              =     NO
redata: Mesh Cutoff                      =   200.0000  Ry
redata: Net charge of the system         =     0.0000 |e|
redata: Max. number of SCF Iter          =      500
redata: SCF convergence failure will abort job
redata: Performing Pulay mixing using    =    10 iterations
redata: Mix DM in first SCF step ?       =     F
redata: Write Pulay info on disk?        =     F
redata: Discard 1st Pulay DM after  kick =     F
redata: New DM Mixing Weight             =     0.0500
redata: New DM Occupancy tolerance       = 0.000000000001
redata: No kicks to SCF
redata: DM Mixing Weight for Kicks       =     0.5000
redata: DM Tolerance for SCF             =     0.000100
redata: Require Energy convergence for SCF =     F
redata: DM Energy tolerance for SCF      =     0.000100 eV
redata: Require Harris convergence for SCF =     F
redata: DM Harris energy tolerance for SCF =     0.000100 eV
redata: Using Saved Data (generic)   =     F
redata: Use continuation files for DM    =     T
redata: Neglect nonoverlap interactions  =     F
redata: Method of Calculation            =     Diagonalization
redata: Divide and Conquer               =     T
redata: Electronic Temperature           =     0.0019  Ry
redata: Fix the spin of the system       =     F
redata: Dynamics option                  =     Verlet MD run
redata: Initial MD time step             =        1
redata:   Final MD time step             =        1
redata: Length of MD time step           =     1.0000  fs
redata: Initial Temperature of MD run    =     0.0000  K
redata: Perform a MD quench              =     F
redata: ***********************************************************************
Total number of electrons:   304.000000
Total ionic charge:   304.000000

* ProcessorY, Blocksize:    3  24

k-point displ. along   1 input, could be:     0.50    0.00
k-point displ. along   2 input, could be:     0.50    0.00
 Kpoints in:          231 . Kpoints trimmed:          231

siesta: k-grid: Number of k-points =   231
siesta: k-grid: Cutoff (effective) =     5.000 Ang
siesta: k-grid: Supercell and displacements
siesta: k-grid:   21   0   0      0.500
siesta: k-grid:    0  21   0      0.500
siesta: k-grid:    0   0   1      0.000
Naive supercell factors:     2    2    2

superc: Internal auxiliary supercell:     2 x     2 x     2  =       8
superc: Number of atoms, orbitals, and projectors:    576   7488   9216

* Maximum dynamic memory allocated =     4 MB

siesta:                 ==============================
                            Begin MD step =      1
                        ==============================

superc: Internal auxiliary supercell:     2 x     2 x     2  =       8
superc: Number of atoms, orbitals, and projectors:    576   7488   9216

outcell: Unit cell vectors (Ang):
       12.804619    7.392750    0.000000
        0.000000   14.785500    0.000000
        0.000000    0.000000   10.000000

outcell: Cell vector modules (Ang)   :   14.785500   14.785500   10.000000
outcell: Cell angles (23,13,12) (deg):     90.0000     90.0000     60.0000
outcell: Cell volume (Ang**3)        :   1893.2269
New_DM. Step:     1
Initializing Density Matrix...

InitMesh: MESH =   120 x   120 x    90 =     1296000
InitMesh: Mesh cutoff (required, used) =   200.000   223.865 Ry

* Maximum dynamic memory allocated =   135 MB

stepf: Fermi-Dirac step function

siesta: Program's energy decomposition (eV):
siesta: Ebs     =     -6148.401785
siesta: Eions   =     20974.960578
siesta: Ena     =      4885.163774
siesta: Ekin    =      7720.939539
siesta: Enl     =       175.838100
siesta: DEna    =        -0.000015
siesta: DUscf   =         0.000000
siesta: DUext   =         0.000000
siesta: Exc     =     -4564.850550
siesta: eta*DQ  =         0.000000
siesta: Emadel  =         0.000000
siesta: Emeta   =         0.000000
siesta: Emolmec =         0.000000
siesta: Ekinion =         0.000000
siesta: Eharris =    -12415.749007
siesta: Etot    =    -12757.869729
siesta: FreeEng =    -12757.869729

siesta: iscf   Eharris(eV)      E_KS(eV)   FreeEng(eV)   dDmax  Ef(eV)
siesta:    1   -12415.7490   -12757.8697   -12757.8697  5.7499 -7.2267
timer: Routine,Calls,Time,% = IterSCF        1    3000.023  99.59
elaps: Routine,Calls,Wall,% = IterSCF        1     250.597  99.59
siesta:    2   -19157.5877   -11501.8606   -11501.8838 17.1387 -7.9072
siesta:    3   -12393.8871   -12561.9931   -12561.9953  2.0425 -5.3637
siesta:    4   -12312.7612   -12458.7033   -12458.7174  1.1686 -4.8426
siesta:    5   -12271.3693   -12369.8287   -12369.9329  0.9292 -4.3038
siesta:    6   -12261.7293   -12323.0412   -12323.0997  0.8185 -3.9760
siesta:    7   -12242.1524   -12295.4978   -12295.5515  0.6681 -3.8301
siesta:    8   -12239.9356   -12279.2685   -12279.3223  0.5853 -3.8278
siesta:    9   -12238.7901   -12261.6660   -12261.7479  0.4210 -3.9224
siesta:   10   -12239.1230   -12248.5223   -12248.6096  0.2891 -3.9562
siesta:   11   -12239.3529   -12238.6878   -12238.7866  0.2774 -3.9011
siesta:   12   -12239.1036   -12229.8726   -12229.9057  0.2836 -3.8926
siesta:   13   -12238.0422   -12229.5009   -12229.5626  0.2180 -3.8613
siesta:   14   -12237.6590   -12232.3231   -12232.3994  0.1783 -3.8751
siesta:   15   -12237.3883   -12234.7111   -12234.7843  0.1161 -3.8664
siesta:   16   -12237.1468   -12237.1388   -12237.2261  0.0787 -3.8708
siesta:   17   -12237.0785   -12236.9473   -12237.0450  0.0482 -3.8786
siesta:   18   -12237.0446   -12237.7147   -12237.8137  0.0435 -3.8881
siesta:   19   -12237.0530   -12237.3599   -12237.4616  0.0316 -3.8780
siesta:   20   -12237.0371   -12236.7877   -12236.8830  0.0247 -3.8722
siesta:   21   -12237.0409   -12236.4814   -12236.5786  0.0221 -3.8689
siesta:   22   -12237.0199   -12235.7932   -12235.8880  0.0178 -3.8591
siesta:   23   -12237.0142   -12235.9154   -12236.0148  0.0122 -3.8681
siesta:   24   -12237.0122   -12236.1838   -12236.2823  0.0107 -3.8684
siesta:   25   -12237.0131   -12236.3595   -12236.4589  0.0087 -3.8685
siesta:   26   -12237.0121   -12236.4500   -12236.5485  0.0070 -3.8656
siesta:   27   -12237.0122   -12236.6691   -12236.7675  0.0087 -3.8657
siesta:   28   -12237.0114   -12236.7235   -12236.8218  0.0081 -3.8648
siesta:   29   -12237.0117   -12236.7063   -12236.8051  0.0065 -3.8653
siesta:   30   -12237.0117   -12236.7059   -12236.8042  0.0049 -3.8657
siesta:   31   -12237.0116   -12236.7540   -12236.8522  0.0034 -3.8662
siesta:   32   -12237.0113   -12236.8102   -12236.9085  0.0012 -3.8669
siesta:   33   -12237.0114   -12236.8856   -12236.9841  0.0006 -3.8670
siesta:   34   -12237.0114   -12236.9418   -12237.0402  0.0005 -3.8672
siesta:   35   -12237.0114   -12236.9544   -12237.0528  0.0005 -3.8673
siesta:   36   -12237.0114   -12236.9670   -12237.0654  0.0004 -3.8673
siesta:   37   -12237.0114   -12236.9859   -12237.0844  0.0001 -3.8674
siesta:   38   -12237.0114   -12236.9887   -12237.0871  0.0001 -3.8673
siesta:   39   -12237.0114   -12236.9937   -12237.0921  0.0002 -3.8673
siesta:   40   -12237.0114   -12236.9969   -12237.0953  0.0001 -3.8672

siesta: E_KS(eV) =           -12237.0016

siesta: E_KS - E_eggbox =    -12237.0016

siesta: Atomic forces (eV/Ang):
----------------------------------------
   Tot    0.047847   -0.177421    0.000000
----------------------------------------
   Max  689.536873
   Res  169.150480    sqrt( Sum f_i^2 / 3N )
----------------------------------------
   Max  689.536873    constrained

Stress-tensor-Voigt (kbar):     -752.83    -2950.64       -0.09       -1.33        0.00        0.00
(Free)E + p*V (eV/cell)   -10778.3363
Target enthalpy (eV/cell)   -12237.1000

siesta: Stress tensor (static) (eV/Ang**3):
        -0.469873   -0.000828    0.000000
        -0.000828   -1.841623    0.000000
         0.000000    0.000000   -0.000055

siesta: Pressure (static):       1234.51792030  kBar

siesta: Stress tensor (total) (eV/Ang**3):
        -0.469873   -0.000828    0.000000
        -0.000828   -1.841623    0.000000
         0.000000    0.000000   -0.000055

siesta: Pressure (total):       1234.51792030  kBar

siesta: Temp_ion =       0.000 K

* Maximum dynamic memory allocated =   147 MB
Computing bands...

siesta: Program's energy decomposition (eV):
siesta: Ebs     =     -4922.156500
siesta: Eions   =     20974.960578
siesta: Ena     =      4885.163774
siesta: Ekin    =     10743.758133
siesta: Enl     =     -1483.806231
siesta: DEna    =      -780.360414
siesta: DUscf   =       108.689639
siesta: DUext   =         0.000000
siesta: Exc     =     -4735.485938
siesta: eta*DQ  =         0.000000
siesta: Emadel  =         0.000000
siesta: Emeta   =         0.000000
siesta: Emolmec =         0.000000
siesta: Ekinion =         0.000000
siesta: Eharris =    -12237.011400
siesta: Etot    =    -12237.001614
siesta: FreeEng =    -12237.100041

siesta: Final energy (eV):
siesta:  Band Struct. =   -4922.156500
siesta:       Kinetic =   10743.758133
siesta:       Hartree =   34817.606218
siesta:    Ext. field =       0.000000
siesta:   Exch.-corr. =   -4735.485938
siesta:  Ion-electron =  -79919.874705
siesta:       Ion-ion =   26856.994678
siesta:       Ekinion =       0.000000
siesta:         Total =  -12237.001614

siesta: Atomic forces (eV/Ang):
siesta:      1   34.019603  -14.805047    0.000000
siesta:      2    0.376705   -2.044121    0.000000
siesta:      3  -35.090786  -17.153453    0.000000
siesta:      4    2.516529  689.536873    0.000000
siesta:      5    0.539424   -3.916233    0.000000
siesta:      6    1.082679   -1.352719    0.000000
siesta:      7   -0.934511    1.799369    0.000000
siesta:      8   -0.149402    0.622957    0.000000
siesta:      9   -1.021356    1.281342    0.000000
siesta:     10   -0.364143    2.068157    0.000000
siesta:     11    0.157598   -0.654263    0.000000
siesta:     12    0.893350   -1.773869    0.000000
siesta:     13   -0.577100    3.897567    0.000000
siesta:     14   -2.564508 -689.525834    0.000000
siesta:     15   35.216967   17.119880    0.000000
siesta:     16  -33.935968   14.826690    0.000000
siesta:     17   -2.019864  637.582492    0.000000
siesta:     18    0.382339 -119.957893    0.000000
siesta:     19    0.884214  128.792442    0.000000
siesta:     20  -20.089312 -550.805299    0.000000
siesta:     21   -0.761048  128.347165    0.000000
siesta:     22   17.733158 -549.665492    0.000000
siesta:     23   26.330567    6.583959    0.000000
siesta:     24   33.088773 -550.374928    0.000000
siesta:     25    2.250424    0.045401    0.000000
siesta:     26   -2.775775    0.683937    0.000000
siesta:     27    1.162719    1.690073    0.000000
siesta:     28   -1.379153    0.370864    0.000000
siesta:     29  -26.708673    6.428963    0.000000
siesta:     30  -33.529616 -550.478935    0.000000
siesta:     31   20.067239  550.764036    0.000000
siesta:     32   -0.911503 -128.810752    0.000000
siesta:     33   33.517872  550.488402    0.000000
siesta:     34   26.689264   -6.451805    0.000000
siesta:     35   -2.466435   -1.612036    0.000000
siesta:     36    1.720676   -0.364653    0.000000
siesta:     37   -1.082709   -0.290135    0.000000
siesta:     38    1.533063   -1.683572    0.000000
siesta:     39   -0.037272    6.224290    0.000000
siesta:     40   -0.764557   -5.627656    0.000000
siesta:     41  -17.770880  549.688774    0.000000
siesta:     42    0.726376 -128.334375    0.000000
siesta:     43   -0.370240  549.047191    0.000000
siesta:     44   -0.273634 -129.736216    0.000000
siesta:     45   17.833545  557.441339    0.000000
siesta:     46   -0.899077    2.828727    0.000000
siesta:     47   -0.830170   -0.608208    0.000000
siesta:     48   -0.314658    1.397329    0.000000
siesta:     49  -33.104589  550.378453    0.000000
siesta:     50  -26.370539   -6.566717    0.000000
siesta:     51  -15.861057  558.678698    0.000000
siesta:     52   -0.271337    0.597629    0.000000
siesta:     53    2.781964   -0.686427    0.000000
siesta:     54   -2.230305   -0.047470    0.000000
siesta:     55    0.278710   -0.589184    0.000000
siesta:     56    1.382905   -0.367593    0.000000
siesta:     57   -1.167543   -1.680289    0.000000
siesta:     58    0.302823   -1.402790    0.000000
siesta:     59    0.768810    5.631770    0.000000
siesta:     60    0.046406   -6.226918    0.000000
siesta:     61   -1.524516    1.673089    0.000000
siesta:     62    1.085826    0.284920    0.000000
siesta:     63    0.825126    0.615939    0.000000
siesta:     64    0.850929   -2.874016    0.000000
siesta:     65   15.857281 -558.689725    0.000000
siesta:     66  -17.823516 -557.440751    0.000000
siesta:     67   -1.699426    0.370840    0.000000
siesta:     68    2.480214    1.624302    0.000000
siesta:     69    0.320322  129.707245    0.000000
siesta:     70    0.423390 -549.074371    0.000000
siesta:     71   -0.378567  119.938247    0.000000
siesta:     72    1.973802 -637.563025    0.000000
siesta: ----------------------------------------
siesta:    Tot    0.047847   -0.177421    0.000000

siesta: Stress tensor (static) (eV/Ang**3):
siesta:    -0.469873   -0.000828    0.000000
siesta:    -0.000828   -1.841623    0.000000
siesta:     0.000000    0.000000   -0.000055

siesta: Cell volume =       1893.226884 Ang**3

siesta: Pressure (static):
siesta:                Solid            Molecule  Units
siesta:           0.00839192          0.13150407  Ry/Bohr**3
siesta:           0.77051715         12.07425693  eV/Ang**3
siesta:        1234.51792030      19345.30142178  kBar
(Free)E+ p_basis*V_orbitals  =      -12208.649840
(Free)Eharris+ p_basis*V_orbitals  =      -12208.664380

siesta: Electric dipole (a.u.)  =    0.000000    0.000000    0.000000
siesta: Electric dipole (Debye) =    0.000000    0.000000    0.000000

* Maximum dynamic memory allocated : Node    0 =   147 MB
* Maximum dynamic memory allocated : Node    1 =    58 MB
* Maximum dynamic memory allocated : Node    2 =    60 MB
* Maximum dynamic memory allocated : Node    3 =   135 MB
* Maximum dynamic memory allocated : Node    4 =   147 MB
* Maximum dynamic memory allocated : Node    5 =    54 MB
* Maximum dynamic memory allocated : Node    6 =    55 MB
* Maximum dynamic memory allocated : Node    7 =   138 MB
* Maximum dynamic memory allocated : Node    8 =   123 MB
* Maximum dynamic memory allocated : Node    9 =    51 MB
* Maximum dynamic memory allocated : Node   10 =    54 MB
* Maximum dynamic memory allocated : Node   11 =   119 MB

* Maximum memory occured during matrixMtoO                    

timer: CPU execution times:
timer:  Routine       Calls   Time/call    Tot.time        %
timer:  siesta            1  117382.968  117382.968   100.00
timer:  Setup             1       3.310       3.310     0.00
timer:  bands             3     226.034     678.102     0.58
timer:  writewave         1       0.022       0.022     0.00
timer:  KSV_init          1       0.005       0.005     0.00
timer:  IterMD            1  116694.681  116694.681    99.41
timer:  hsparse           1       0.161       0.161     0.00
timer:  overlap           1       7.369       7.369     0.01
timer:  IterSCF          40    2914.256  116570.255    99.31
timer:  kinefsm           2       3.726       7.452     0.01
timer:  nlefsm            2      18.393      36.786     0.03
timer:  DHSCF            41      61.943    2539.675     2.16
timer:  DHSCF1            1       0.900       0.900     0.00
timer:  DHSCF2            1      24.800      24.800     0.02
timer:  REORD           330       0.002       0.807     0.00
timer:  POISON           42       0.449      18.863     0.02
timer:  DHSCF3           41      60.806    2493.058     2.12
timer:  rhoofd           41      12.128     497.245     0.42
timer:  cellXC           41       2.422      99.312     0.08
timer:  vmat             41      28.664    1175.217     1.00
timer:  MolMec            2       0.000       0.000     0.00
timer:  diagon           40    2851.180  114047.185    97.16
timer:  c-eigval       9361       5.580   52235.661    44.50
timer:  c-buildHS      9361       0.033     304.504     0.26
timer:  cdiag         18601       5.678  105618.345    89.98
timer:  cdiag1        18601       0.260    4844.598     4.13
timer:  cdiag2        18601       1.834   34116.304    29.06
timer:  cdiag3        18601       3.379   62857.165    53.55
timer:  cdiag4        18601       0.088    1641.183     1.40
timer:  c-eigvec       9240       5.837   53938.273    45.95
timer:  c-buildD       9240       0.920    8499.977     7.24
timer:  DHSCF4            1      20.627      20.627     0.02
timer:  dfscf             1      19.206      19.206     0.02
timer:  overfsm           1       0.279       0.279     0.00
timer:  optical           1       6.279       6.279     0.01
  

elaps: ELAPSED times:
elaps:  Routine       Calls   Time/call    Tot.time        %
elaps:  siesta            1    9804.922    9804.922   100.00
elaps:  Setup             1       0.277       0.277     0.00
elaps:  bands             3      18.895      56.686     0.58
elaps:  writewave         1       0.002       0.002     0.00
elaps:  KSV_init          1       0.000       0.000     0.00
elaps:  IterMD            1    9747.430    9747.430    99.41
elaps:  hsparse           1       0.016       0.016     0.00
elaps:  overlap           1       0.712       0.712     0.01
elaps:  IterSCF          40     243.426    9737.036    99.31
elaps:  kinefsm           2       0.362       0.723     0.01
elaps:  nlefsm            2       1.559       3.118     0.03
elaps:  DHSCF            41       5.217     213.886     2.18
elaps:  DHSCF1            1       0.077       0.077     0.00
elaps:  DHSCF2            1       2.070       2.070     0.02
elaps:  REORD           330       0.000       0.098     0.00
elaps:  POISON           42       0.038       1.587     0.02
elaps:  DHSCF3           41       5.079     208.254     2.12
elaps:  rhoofd           41       2.186      89.631     0.91
elaps:  cellXC           41       0.202       8.280     0.08
elaps:  vmat             41       2.395      98.184     1.00
elaps:  MolMec            2       0.000       0.000     0.00
elaps:  diagon           40     238.163    9526.528    97.16
elaps:  c-eigval       9361       0.466    4363.160    44.50
elaps:  c-buildHS      9361       0.003      32.269     0.33
elaps:  cdiag         18601       0.470    8740.183    89.14
elaps:  cdiag1        18601       0.021     396.357     4.04
elaps:  cdiag2        18601       0.153    2852.322    29.09
elaps:  cdiag3        18601       0.283    5258.173    53.63
elaps:  cdiag4        18601       0.007     132.126     1.35
elaps:  c-eigvec       9240       0.480    4436.426    45.25
elaps:  c-buildD       9240       0.084     778.792     7.94
elaps:  DHSCF4            1       3.434       3.434     0.04
elaps:  dfscf             1       3.244       3.244     0.03
elaps:  overfsm           1       0.029       0.029     0.00
elaps:  optical           1       0.000       0.000     0.00
  
>> End of run:   2-MAY-2016  14:37:55
