Siesta Version:                                        siesta-3.2-pl-3
Architecture  : x86_64-unknown-linux-gnu--unknown
Compiler flags: mpiifort -g -O2 -fPIC -xSSE4.1 -fp-model source -shared-intel 
PARALLEL version

* Running on    8 nodes in parallel
>> Start of run:  24-APR-2016   2:14:46

                           ***********************       
                           *  WELCOME TO SIESTA  *       
                           ***********************       

reinit: Reading from standard input
************************** Dump of input data file ****************************
#(1) General system descriptors
SystemName            GRP_doping    # Descriptive name of the system
SystemLabel           GRP_doping    # Short name for naming files
%include STRUCT.fdf
%include KPT.fdf
%include BASIS.fdf
#%include TS.fdf # for transiesta calculation
#(4) DFT, Grid, SCF
XC.functional         GGA           # LDA or GGA (default = LDA)
XC.authors            PBE           # CA (Ceperley-Aldr) = PZ
                                    #    (Perdew-Zunger) - LDA - Default
                                    # PW92 (Perdew-Wang-92) - LDA
                                    # PBE (Perdew-Burke-Ernzerhof) - GGA
MeshCutoff            200.000000    Ry      # Default: 50.0 Ry ~ 0.444 Bohr
                                    #         100.0 Ry ~ 0.314 Bohr
MaxSCFIterations      500           # Default: 50
DM.MixingWeight       0.05          # Default: 0.25
DM.NumberPulay        10            # Default: 0
DM.PulayOnFile        F             # SystemLabel.P1, SystemLabel.P2
DM.Tolerance          1.d-4         # Default: 1.d-4
DM.UseSaveDM          .true.        # because of the bug
SCFMustConverge       .true.
NeglNonOverlapInt     F             # Default: F
#(5) Eigenvalue problem: order-N or diagonalization
SolutionMethod        Diagon        # or Transiesta
ElectronicTemperature 300.0 K       # Default: 300.0 K
#(6) Molecular dynamics and relaxations
#MD.TypeOfRun          CG            # Type of dynamics:
#MD.VariableCell       F
#MD.NumCGsteps         0           # 0 for single-point / 100 for gopt
#MD.MaxCGDispl         0.2 Bohr      # Default: 0.2 Bohr
#MD.MaxForceTol        0.02 eV/Ang   # Default: 0.04 eV/Ang
#MD.MaxStressTol       1.0 GPa       # Default: 1.0 GPa
# Geometry Constraints
#%block GeometryConstraints
#	position from 1 to 44
#%endblock GeometryConstraints
BandLinesScale   pi/a
%block BandLines
 1   0.00000000  0.00000000  0.00000000
50   0.00000000  0.07809418  0.00000000
50   0.04509075  0.07809242  0.00000000
20   0.00000000  0.00000000  0.00000000
%endblock BandLines
************************** End of input data file *****************************

reinit: -----------------------------------------------------------------------
reinit: System Name: GRP_doping
reinit: -----------------------------------------------------------------------
reinit: System Label: GRP_doping                                                  
reinit: -----------------------------------------------------------------------

initatom: Reading input for the pseudopotentials and atomic orbitals ----------
 Species number:            1  Label: N Atomic number:           7
 Species number:            2  Label: C Atomic number:           6
Ground state valence configuration:   2s02  2p03
Reading pseudopotential information in formatted form from N.psf

Valence configuration for pseudopotential generation:
2s( 2.00) rc: 1.48
2p( 3.00) rc: 1.48
3d( 0.00) rc: 1.48
4f( 0.00) rc: 1.48
Ground state valence configuration:   2s02  2p02
Reading pseudopotential information in formatted form from C.psf

Valence configuration for pseudopotential generation:
2s( 2.00) rc: 1.54
2p( 2.00) rc: 1.54
3d( 0.00) rc: 1.54
4f( 0.00) rc: 1.54
For N, standard SIESTA heuristics set lmxkb to 3
 (one more than the basis l, including polarization orbitals).
Use PS.lmax or PS.KBprojectors blocks to override.
For C, standard SIESTA heuristics set lmxkb to 3
 (one more than the basis l, including polarization orbitals).
Use PS.lmax or PS.KBprojectors blocks to override.

<basis_specs>
===============================================================================
N                    Z=   7    Mass=  14.010        Charge= 0.17977+309
Lmxo=1 Lmxkb= 3    BasisType=split      Semic=F
L=0  Nsemic=0  Cnfigmx=2
          n=1  nzeta=2  polorb=0
            splnorm:   0.15000    
               vcte:    0.0000    
               rinn:    0.0000    
                rcs:    0.0000      0.0000    
            lambdas:    1.0000      1.0000    
L=1  Nsemic=0  Cnfigmx=2
          n=1  nzeta=2  polorb=1
            splnorm:   0.15000    
               vcte:    0.0000    
               rinn:    0.0000    
                rcs:    0.0000      0.0000    
            lambdas:    1.0000      1.0000    
-------------------------------------------------------------------------------
L=0  Nkbl=1  erefs: 0.17977+309
L=1  Nkbl=1  erefs: 0.17977+309
L=2  Nkbl=1  erefs: 0.17977+309
L=3  Nkbl=1  erefs: 0.17977+309
===============================================================================
</basis_specs>

atom: Called for N                     (Z =   7)

read_vps: Pseudopotential generation method:
read_vps: ATM3      Troullier-Martins                       
Total valence charge:    5.00000

read_vps: Pseudopotential includes a core correction:
read_vps: Pseudo-core for xc-correction

xc_check: Exchange-correlation functional:
xc_check: GGA Perdew, Burke & Ernzerhof 1996
V l=0 = -2*Zval/r beyond r=  1.4606
V l=1 = -2*Zval/r beyond r=  1.4606
V l=2 = -2*Zval/r beyond r=  1.4606
V l=3 = -2*Zval/r beyond r=  1.4606
All V_l potentials equal beyond r=  1.4606
This should be close to max(r_c) in ps generation
All pots = -2*Zval/r beyond r=  1.4606

VLOCAL1: 99.0% of the norm of Vloc inside     20.347 Ry
VLOCAL1: 99.9% of the norm of Vloc inside     46.372 Ry
atom: Maximum radius for 4*pi*r*r*local-pseudopot. charge    1.76189
atom: Maximum radius for r*vlocal+2*Zval:    1.53550
GHOST: No ghost state for L =  0
GHOST: No ghost state for L =  1
GHOST: No ghost state for L =  2
GHOST: No ghost state for L =  3

KBgen: Kleinman-Bylander projectors: 
   l= 0   rc=  1.634559   el= -1.363963   Ekb=  5.296955   kbcos=  0.335621
   l= 1   rc=  1.614250   el= -0.521451   Ekb= -5.259161   kbcos= -0.433408
   l= 2   rc=  1.718383   el=  0.001991   Ekb= -1.271464   kbcos= -0.007566
   l= 3   rc=  1.761893   el=  0.003093   Ekb= -0.494769   kbcos= -0.001015

KBgen: Total number of  Kleinman-Bylander projectors:   16
atom: -------------------------------------------------------------------------

atom: SANKEY-TYPE ORBITALS:
atom: Selected multiple-zeta basis: split     

SPLIT: Orbitals with angular momentum L= 0

SPLIT: Basis orbitals for state 2s

SPLIT: PAO cut-off radius determined from an
SPLIT: energy shift=  0.007350 Ry

   izeta = 1
                 lambda =    1.000000
                     rc =    4.071465
                 energy =   -1.356470
                kinetic =    1.176977
    potential(screened) =   -2.533447
       potential(ionic) =   -8.057990

   izeta = 2
                 rmatch =    2.905100
              splitnorm =    0.150000
                 energy =   -1.158343
                kinetic =    1.813009
    potential(screened) =   -2.971352
       potential(ionic) =   -8.901931

SPLIT: Orbitals with angular momentum L= 1

SPLIT: Basis orbitals for state 2p

SPLIT: PAO cut-off radius determined from an
SPLIT: energy shift=  0.007350 Ry

   izeta = 1
                 lambda =    1.000000
                     rc =    4.972977
                 energy =   -0.513884
                kinetic =    3.441732
    potential(screened) =   -3.955616
       potential(ionic) =   -9.287901

   izeta = 2
                 rmatch =    3.054066
              splitnorm =    0.150000
                 energy =   -0.318226
                kinetic =    5.125348
    potential(screened) =   -5.443573
       potential(ionic) =  -11.380999

POLgen: Perturbative polarization orbital with L=  2

POLgen: Polarization orbital for state 2p

   izeta = 1
                     rc =    4.972977
                 energy =    1.607437
                kinetic =    3.268125
    potential(screened) =   -1.660688
       potential(ionic) =   -5.973652
atom: Total number of Sankey-type orbitals: 13

atm_pop: Valence configuration (for local Pseudopot. screening):
 2s( 2.00)                                                            
 2p( 3.00)                                                            
Vna: chval, zval:    5.00000   5.00000

Vna:  Cut-off radius for the neutral-atom potential:   4.972977
comcore: Pseudo-core radius Rcore=  1.554824

atom: _________________________________________________________________________

<basis_specs>
===============================================================================
C                    Z=   6    Mass=  12.010        Charge= 0.17977+309
Lmxo=1 Lmxkb= 3    BasisType=split      Semic=F
L=0  Nsemic=0  Cnfigmx=2
          n=1  nzeta=2  polorb=0
            splnorm:   0.15000    
               vcte:    0.0000    
               rinn:    0.0000    
                rcs:    0.0000      0.0000    
            lambdas:    1.0000      1.0000    
L=1  Nsemic=0  Cnfigmx=2
          n=1  nzeta=2  polorb=1
            splnorm:   0.15000    
               vcte:    0.0000    
               rinn:    0.0000    
                rcs:    0.0000      0.0000    
            lambdas:    1.0000      1.0000    
-------------------------------------------------------------------------------
L=0  Nkbl=1  erefs: 0.17977+309
L=1  Nkbl=1  erefs: 0.17977+309
L=2  Nkbl=1  erefs: 0.17977+309
L=3  Nkbl=1  erefs: 0.17977+309
===============================================================================
</basis_specs>

atom: Called for C                     (Z =   6)

read_vps: Pseudopotential generation method:
read_vps: ATM3      Troullier-Martins                       
Total valence charge:    4.00000

read_vps: Pseudopotential includes a core correction:
read_vps: Pseudo-core for xc-correction

xc_check: Exchange-correlation functional:
xc_check: GGA Perdew, Burke & Ernzerhof 1996
V l=0 = -2*Zval/r beyond r=  1.5227
V l=1 = -2*Zval/r beyond r=  1.5227
V l=2 = -2*Zval/r beyond r=  1.5227
V l=3 = -2*Zval/r beyond r=  1.5038
All V_l potentials equal beyond r=  1.5227
This should be close to max(r_c) in ps generation
All pots = -2*Zval/r beyond r=  1.5227

VLOCAL1: 99.0% of the norm of Vloc inside     18.722 Ry
VLOCAL1: 99.9% of the norm of Vloc inside     42.668 Ry
atom: Maximum radius for 4*pi*r*r*local-pseudopot. charge    1.83678
atom: Maximum radius for r*vlocal+2*Zval:    1.58088
GHOST: No ghost state for L =  0
GHOST: No ghost state for L =  1
GHOST: No ghost state for L =  2
GHOST: No ghost state for L =  3

KBgen: Kleinman-Bylander projectors: 
   l= 0   rc=  1.704034   el= -1.009801   Ekb=  5.335044   kbcos=  0.316824
   l= 1   rc=  1.704034   el= -0.388707   Ekb= -3.785862   kbcos= -0.366464
   l= 2   rc=  1.791422   el=  0.001971   Ekb= -0.970471   kbcos= -0.009212
   l= 3   rc=  1.859892   el=  0.003065   Ekb= -0.399525   kbcos= -0.001223

KBgen: Total number of  Kleinman-Bylander projectors:   16
atom: -------------------------------------------------------------------------

atom: SANKEY-TYPE ORBITALS:
atom: Selected multiple-zeta basis: split     

SPLIT: Orbitals with angular momentum L= 0

SPLIT: Basis orbitals for state 2s

SPLIT: PAO cut-off radius determined from an
SPLIT: energy shift=  0.007350 Ry

   izeta = 1
                 lambda =    1.000000
                     rc =    4.632753
                 energy =   -1.002270
                kinetic =    0.855760
    potential(screened) =   -1.858031
       potential(ionic) =   -5.417575

   izeta = 2
                 rmatch =    3.431921
              splitnorm =    0.150000
                 energy =   -0.867111
                kinetic =    1.300804
    potential(screened) =   -2.167915
       potential(ionic) =   -5.962684

SPLIT: Orbitals with angular momentum L= 1

SPLIT: Basis orbitals for state 2p

SPLIT: PAO cut-off radius determined from an
SPLIT: energy shift=  0.007350 Ry

   izeta = 1
                 lambda =    1.000000
                     rc =    5.658549
                 energy =   -0.381140
                kinetic =    2.399701
    potential(screened) =   -2.780841
       potential(ionic) =   -6.206085

   izeta = 2
                 rmatch =    3.653288
              splitnorm =    0.150000
                 energy =   -0.249149
                kinetic =    3.542762
    potential(screened) =   -3.791911
       potential(ionic) =   -7.581078

POLgen: Perturbative polarization orbital with L=  2

POLgen: Polarization orbital for state 2p

   izeta = 1
                     rc =    5.658549
                 energy =    1.109913
                kinetic =    2.304789
    potential(screened) =   -1.194876
       potential(ionic) =   -4.013592
atom: Total number of Sankey-type orbitals: 13

atm_pop: Valence configuration (for local Pseudopot. screening):
 2s( 2.00)                                                            
 2p( 2.00)                                                            
Vna: chval, zval:    4.00000   4.00000

Vna:  Cut-off radius for the neutral-atom potential:   5.658549
comcore: Pseudo-core radius Rcore=  1.791422

atom: _________________________________________________________________________

prinput: Basis input ----------------------------------------------------------

PAO.BasisType split     

%block ChemicalSpeciesLabel
    1    7 N                       # Species index, atomic number, species label
    2    6 C                       # Species index, atomic number, species label
%endblock ChemicalSpeciesLabel

%block PAO.Basis                 # Define Basis set
N                     2                    # Species label, number of l-shells
 n=2   0   2                         # n, l, Nzeta 
   4.071      2.905   
   1.000      1.000   
 n=2   1   2 P   1                   # n, l, Nzeta, Polarization, NzetaPol
   4.973      3.054   
   1.000      1.000   
C                     2                    # Species label, number of l-shells
 n=2   0   2                         # n, l, Nzeta 
   4.633      3.432   
   1.000      1.000   
 n=2   1   2 P   1                   # n, l, Nzeta, Polarization, NzetaPol
   5.659      3.653   
   1.000      1.000   
%endblock PAO.Basis

prinput: ----------------------------------------------------------------------

coor:   Atomic-coordinates input format  =     Fractional

siesta: Atomic coordinates (Bohr) and species
siesta:      2.30256  38.89134   0.00000  1        1
siesta:      2.30256  41.57980   0.00000  1        2
siesta:      4.63094  34.85847   0.00000  1        3
siesta:      4.63094  37.54693   0.00000  1        4
siesta:     -9.33934  18.72698   0.00000  1        5
siesta:     -9.33934  21.41544   0.00000  1        6
siesta:     -7.01096  22.75985   0.00000  1        7
siesta:     -7.01096  25.44831   0.00000  1        8
siesta:    -11.66772  22.75985   0.00000  1        9
siesta:    -11.66772  25.44831   0.00000  1       10
siesta:     -9.33934  26.79272   0.00000  1       11
siesta:     -9.33934  29.48119   0.00000  1       12
siesta:     -0.02582  26.79272   0.00000  1       13
siesta:     -0.02582  29.48119   0.00000  1       14
siesta:     -4.68258  26.79272   0.00000  1       15
siesta:     -4.68258  29.48119   0.00000  1       16
siesta:      2.30256  30.82560   0.00000  1       17
siesta:      2.30256  33.51406   0.00000  1       18
siesta:     -2.35420  30.82560   0.00000  1       19
siesta:     -2.35420  33.51406   0.00000  1       20
siesta:     -7.01096  30.82560   0.00000  1       21
siesta:     -7.01096  33.51406   0.00000  1       22
siesta:     -0.02582  34.85847   0.00000  1       23
siesta:     -0.02582  37.54693   0.00000  1       24
siesta:     -0.02582   2.59549   0.00000  2       25
siesta:     -0.02582   5.28395   0.00000  2       26
siesta:     -2.35420  38.89134   0.00000  2       27
siesta:     -2.35420  41.57980   0.00000  2       28
siesta:      6.95932  30.82560   0.00000  2       29
siesta:      6.95932  33.51406   0.00000  2       30
siesta:      9.28770  26.79272   0.00000  2       31
siesta:      9.28770  29.48119   0.00000  2       32
siesta:     -4.68258  34.85847   0.00000  2       33
siesta:     -4.68258  37.54693   0.00000  2       34
siesta:      2.30256   6.62836   0.00000  2       35
siesta:      2.30256   9.31683   0.00000  2       36
siesta:      4.63094  10.66124   0.00000  2       37
siesta:      4.63094  13.34970   0.00000  2       38
siesta:      6.95932  14.69411   0.00000  2       39
siesta:      6.95932  17.38257   0.00000  2       40
siesta:      9.28770  18.72698   0.00000  2       41
siesta:      9.28770  21.41544   0.00000  2       42
siesta:     11.61608  22.75985   0.00000  2       43
siesta:     11.61608  25.44831   0.00000  2       44
siesta:     -2.35420   6.62836   0.00000  2       45
siesta:     -2.35420   9.31683   0.00000  2       46
siesta:     -0.02582  10.66124   0.00000  2       47
siesta:     -0.02582  13.34970   0.00000  2       48
siesta:      2.30256  14.69411   0.00000  2       49
siesta:      2.30256  17.38257   0.00000  2       50
siesta:      4.63094  18.72698   0.00000  2       51
siesta:      4.63094  21.41544   0.00000  2       52
siesta:      6.95932  22.75985   0.00000  2       53
siesta:      6.95932  25.44831   0.00000  2       54
siesta:     -4.68258  10.66124   0.00000  2       55
siesta:     -4.68258  13.34970   0.00000  2       56
siesta:     -2.35420  14.69411   0.00000  2       57
siesta:     -2.35420  17.38257   0.00000  2       58
siesta:     -0.02582  18.72698   0.00000  2       59
siesta:     -0.02582  21.41544   0.00000  2       60
siesta:      2.30256  22.75985   0.00000  2       61
siesta:      2.30256  25.44831   0.00000  2       62
siesta:     -7.01096  14.69411   0.00000  2       63
siesta:     -7.01096  17.38257   0.00000  2       64
siesta:     -4.68258  18.72698   0.00000  2       65
siesta:     -4.68258  21.41544   0.00000  2       66
siesta:     -2.35420  22.75985   0.00000  2       67
siesta:     -2.35420  25.44831   0.00000  2       68
siesta:      4.63094  26.79272   0.00000  2       69
siesta:      4.63094  29.48119   0.00000  2       70
siesta:     -0.02582  42.92421   0.00000  2       71
siesta:     -0.02582  45.61267   0.00000  2       72

siesta: System type = slab      

initatomlists: Number of atoms, orbitals, and projectors:     72   936  1152

siesta: ******************** Simulation parameters ****************************
siesta:
siesta: The following are some of the parameters of the simulation.
siesta: A complete list of the parameters used, including default values,
siesta: can be found in file out.fdf
siesta:
redata: Non-Collinear-spin run           =     F
redata: SpinPolarized (Up/Down) run      =     F
redata: Number of spin components        =     1
redata: Long output                      =     F
redata: Number of Atomic Species         =        2
redata: Charge density info will appear in .RHO file
redata: Write Mulliken Pop.              =     NO
redata: Mesh Cutoff                      =   200.0000  Ry
redata: Net charge of the system         =     0.0000 |e|
redata: Max. number of SCF Iter          =      500
redata: SCF convergence failure will abort job
redata: Performing Pulay mixing using    =    10 iterations
redata: Mix DM in first SCF step ?       =     F
redata: Write Pulay info on disk?        =     F
redata: Discard 1st Pulay DM after  kick =     F
redata: New DM Mixing Weight             =     0.0500
redata: New DM Occupancy tolerance       = 0.000000000001
redata: No kicks to SCF
redata: DM Mixing Weight for Kicks       =     0.5000
redata: DM Tolerance for SCF             =     0.000100
redata: Require Energy convergence for SCF =     F
redata: DM Energy tolerance for SCF      =     0.000100 eV
redata: Require Harris convergence for SCF =     F
redata: DM Harris energy tolerance for SCF =     0.000100 eV
redata: Using Saved Data (generic)   =     F
redata: Use continuation files for DM    =     T
redata: Neglect nonoverlap interactions  =     F
redata: Method of Calculation            =     Diagonalization
redata: Divide and Conquer               =     T
redata: Electronic Temperature           =     0.0019  Ry
redata: Fix the spin of the system       =     F
redata: Dynamics option                  =     Verlet MD run
redata: Initial MD time step             =        1
redata:   Final MD time step             =        1
redata: Length of MD time step           =     1.0000  fs
redata: Initial Temperature of MD run    =     0.0000  K
redata: Perform a MD quench              =     F
redata: ***********************************************************************
Total number of electrons:   312.000000
Total ionic charge:   312.000000

* ProcessorY, Blocksize:    2  24

k-point displ. along   1 input, could be:     0.50    0.00
k-point displ. along   2 input, could be:     0.50    0.00
 Kpoints in:          231 . Kpoints trimmed:          231

siesta: k-grid: Number of k-points =   231
siesta: k-grid: Cutoff (effective) =     5.000 Ang
siesta: k-grid: Supercell and displacements
siesta: k-grid:   21   0   0      0.500
siesta: k-grid:    0  21   0      0.500
siesta: k-grid:    0   0   1      0.000
Naive supercell factors:     2    2    2

superc: Internal auxiliary supercell:     2 x     2 x     2  =       8
superc: Number of atoms, orbitals, and projectors:    576   7488   9216

* Maximum dynamic memory allocated =     4 MB

siesta:                 ==============================
                            Begin MD step =      1
                        ==============================

superc: Internal auxiliary supercell:     2 x     2 x     2  =       8
superc: Number of atoms, orbitals, and projectors:    576   7488   9216

outcell: Unit cell vectors (Ang):
       12.804619    7.392750    0.000000
        0.000000   14.785500    0.000000
        0.000000    0.000000   10.000000

outcell: Cell vector modules (Ang)   :   14.785500   14.785500   10.000000
outcell: Cell angles (23,13,12) (deg):     90.0000     90.0000     60.0000
outcell: Cell volume (Ang**3)        :   1893.2269
New_DM. Step:     1
Initializing Density Matrix...

InitMesh: MESH =   120 x   120 x    90 =     1296000
InitMesh: Mesh cutoff (required, used) =   200.000   223.865 Ry

* Maximum dynamic memory allocated =   176 MB

stepf: Fermi-Dirac step function

siesta: Program's energy decomposition (eV):
siesta: Ebs     =     -6381.901175
siesta: Eions   =     22260.935331
siesta: Ena     =      4982.174788
siesta: Ekin    =      8392.322035
siesta: Enl     =       -61.579547
siesta: DEna    =        -0.000015
siesta: DUscf   =         0.000000
siesta: DUext   =         0.000000
siesta: Exc     =     -4777.184516
siesta: eta*DQ  =         0.000000
siesta: Emadel  =         0.000000
siesta: Emeta   =         0.000000
siesta: Emolmec =         0.000000
siesta: Ekinion =         0.000000
siesta: Eharris =    -13351.339671
siesta: Etot    =    -13725.202586
siesta: FreeEng =    -13725.202586

siesta: iscf   Eharris(eV)      E_KS(eV)   FreeEng(eV)   dDmax  Ef(eV)
siesta:    1   -13351.3397   -13725.2026   -13725.2026  5.3017 -6.8310
timer: Routine,Calls,Time,% = IterSCF        1    3376.830  99.70
elaps: Routine,Calls,Wall,% = IterSCF        1     422.923  99.70
siesta:    2   -17672.1747   -12721.8092   -12721.8284 19.7964 -3.0107
siesta:    3   -13249.5921   -13542.0274   -13542.0377  2.7300 -4.9383
siesta:    4   -13226.3261   -13373.9479   -13374.0221  1.2381 -3.9378
siesta:    5   -13195.6811   -13291.6857   -13291.7208  0.9570 -3.7198
siesta:    6   -13190.0333   -13274.6665   -13274.7334  0.9124 -3.6928
siesta:    7   -13186.8730   -13260.3353   -13260.3401  0.9667 -3.7719
siesta:    8   -13182.7185   -13248.4559   -13248.4618  0.7839 -3.8732
siesta:    9   -13183.1147   -13243.8319   -13243.8777  0.7710 -3.8071
siesta:   10   -13182.1733   -13232.7255   -13232.7583  0.6685 -3.8894
siesta:   11   -13181.3952   -13220.1233   -13220.1473  0.6277 -3.8100
siesta:   12   -13182.4311   -13173.8450   -13173.8637  0.5522 -3.7924
siesta:   13   -13182.0805   -13170.1743   -13170.2341  0.2265 -3.8028
siesta:   14   -13181.1681   -13169.9495   -13170.0300  0.1977 -3.7968
siesta:   15   -13180.8028   -13169.8375   -13169.9217  0.2542 -3.7830
siesta:   16   -13180.6208   -13170.3081   -13170.3733  0.2753 -3.7905
siesta:   17   -13180.5181   -13173.1636   -13173.2329  0.2566 -3.8071
siesta:   18   -13180.4025   -13173.5435   -13173.6182  0.2067 -3.8259
siesta:   19   -13180.3682   -13174.8975   -13174.9657  0.1352 -3.8257
siesta:   20   -13180.3512   -13174.9271   -13174.9983  0.0861 -3.8291
siesta:   21   -13180.3447   -13176.5812   -13176.6532  0.1687 -3.8356
siesta:   22   -13180.3337   -13177.6859   -13177.7619  0.0704 -3.8245
siesta:   23   -13180.3325   -13178.7638   -13178.8388  0.0985 -3.8265
siesta:   24   -13180.3261   -13179.2179   -13179.2940  0.0220 -3.8237
siesta:   25   -13180.3262   -13179.6334   -13179.7111  0.0333 -3.8215
siesta:   26   -13180.3246   -13179.8834   -13179.9594  0.0495 -3.8236
siesta:   27   -13180.3235   -13180.0271   -13180.1032  0.0116 -3.8215
siesta:   28   -13180.3229   -13180.0410   -13180.1171  0.0080 -3.8223
siesta:   29   -13180.3225   -13180.1555   -13180.2322  0.0075 -3.8230
siesta:   30   -13180.3222   -13180.1632   -13180.2400  0.0145 -3.8240
siesta:   31   -13180.3223   -13180.2688   -13180.3458  0.0040 -3.8235
siesta:   32   -13180.3223   -13180.2149   -13180.2918  0.0038 -3.8234
siesta:   33   -13180.3224   -13180.2342   -13180.3111  0.0010 -3.8233
siesta:   34   -13180.3223   -13180.2423   -13180.3191  0.0008 -3.8236
siesta:   35   -13180.3223   -13180.2630   -13180.3399  0.0004 -3.8236
siesta:   36   -13180.3223   -13180.2962   -13180.3731  0.0003 -3.8236
siesta:   37   -13180.3223   -13180.3017   -13180.3786  0.0004 -3.8236
siesta:   38   -13180.3223   -13180.3115   -13180.3883  0.0004 -3.8237
siesta:   39   -13180.3223   -13180.3225   -13180.3994  0.0001 -3.8237
siesta:   40   -13180.3223   -13180.3274   -13180.4042  0.0002 -3.8237
siesta:   41   -13180.3223   -13180.3302   -13180.4070  0.0002 -3.8237
siesta:   42   -13180.3223   -13180.3314   -13180.4082  0.0002 -3.8237
siesta:   43   -13180.3223   -13180.3339   -13180.4107  0.0002 -3.8237
siesta:   44   -13180.3223   -13180.3333   -13180.4101  0.0002 -3.8237
siesta:   45   -13180.3223   -13180.3325   -13180.4094  0.0002 -3.8237
siesta:   46   -13180.3223   -13180.3303   -13180.4071  0.0002 -3.8237
siesta:   47   -13180.3223   -13180.3280   -13180.4049  0.0001 -3.8237
siesta:   48   -13180.3223   -13180.3270   -13180.4039  0.0001 -3.8237

siesta: E_KS(eV) =           -13180.3261

siesta: E_KS - E_eggbox =    -13180.3261

siesta: Atomic forces (eV/Ang):
----------------------------------------
   Tot   -0.198450   -0.187344    0.000000
----------------------------------------
   Max  690.041356
   Res  183.401975    sqrt( Sum f_i^2 / 3N )
----------------------------------------
   Max  690.041356    constrained

Stress-tensor-Voigt (kbar):     -660.00    -3288.55       -0.01       -1.28        0.00        0.00
(Free)E + p*V (eV/cell)   -11625.1380
Target enthalpy (eV/cell)   -13180.4029

siesta: Stress tensor (static) (eV/Ang**3):
        -0.411932   -0.000800    0.000000
        -0.000800   -2.052528    0.000000
         0.000000    0.000000   -0.000007

siesta: Pressure (static):       1316.18460031  kBar

siesta: Stress tensor (total) (eV/Ang**3):
        -0.411932   -0.000800    0.000000
        -0.000800   -2.052528    0.000000
         0.000000    0.000000   -0.000007

siesta: Pressure (total):       1316.18460031  kBar

siesta: Temp_ion =       0.000 K

* Maximum dynamic memory allocated =   193 MB
Computing bands...

siesta: Program's energy decomposition (eV):
siesta: Ebs     =     -5102.798520
siesta: Eions   =     22260.935331
siesta: Ena     =      4982.174788
siesta: Ekin    =     11557.369556
siesta: Enl     =     -1790.168116
siesta: DEna    =      -825.456089
siesta: DUscf   =       116.160933
siesta: DUext   =         0.000000
siesta: Exc     =     -4959.471822
siesta: eta*DQ  =         0.000000
siesta: Emadel  =         0.000000
siesta: Emeta   =         0.000000
siesta: Emolmec =         0.000000
siesta: Ekinion =         0.000000
siesta: Eharris =    -13180.322337
siesta: Etot    =    -13180.326081
siesta: FreeEng =    -13180.402942

siesta: Final energy (eV):
siesta:  Band Struct. =   -5102.798520
siesta:       Kinetic =   11557.369556
siesta:       Hartree =   37073.715620
siesta:    Ext. field =       0.000000
siesta:   Exch.-corr. =   -4959.471822
siesta:  Ion-electron =  -85161.645665
siesta:       Ion-ion =   28309.706230
siesta:       Ekinion =       0.000000
siesta:         Total =  -13180.326081

siesta: Atomic forces (eV/Ang):
siesta:      1   -2.167857  112.260894    0.000000
siesta:      2   18.346575 -650.725125    0.000000
siesta:      3   33.780925    4.967085    0.000000
siesta:      4   26.321131 -657.499925    0.000000
siesta:      5    0.610977    1.651683    0.000000
siesta:      6   -0.238415   -1.117617    0.000000
siesta:      7    0.621264   -0.483882    0.000000
siesta:      8   -0.471370    0.201805    0.000000
siesta:      9    1.530426    1.748649    0.000000
siesta:     10    1.662881   -1.743164    0.000000
siesta:     11    0.864547    0.226220    0.000000
siesta:     12   -0.004682    0.331909    0.000000
siesta:     13   -1.138844    3.051359    0.000000
siesta:     14   -1.046346 -690.041356    0.000000
siesta:     15    1.115780   -0.284945    0.000000
siesta:     16   -3.614034   -3.175398    0.000000
siesta:     17   31.080500    9.618696    0.000000
siesta:     18    2.296870 -680.555573    0.000000
siesta:     19  -30.634235   10.923305    0.000000
siesta:     20  -17.529018 -672.511314    0.000000
siesta:     21   -0.718696   -0.421377    0.000000
siesta:     22    1.052983   -2.808868    0.000000
siesta:     23   -0.195725  106.208120    0.000000
siesta:     24   -2.865467 -661.510636    0.000000
siesta:     25    5.727980  635.758185    0.000000
siesta:     26    3.378864 -115.964426    0.000000
siesta:     27   -1.444800  127.974782    0.000000
siesta:     28  -15.556662 -548.373771    0.000000
siesta:     29    0.364223    0.882971    0.000000
siesta:     30   -1.783578    1.367136    0.000000
siesta:     31    1.733073    2.922359    0.000000
siesta:     32   -0.772844   -0.019108    0.000000
siesta:     33  -25.415952    9.318253    0.000000
siesta:     34  -31.302317 -550.691851    0.000000
siesta:     35   16.650789  659.197338    0.000000
siesta:     36   -1.620712 -116.975175    0.000000
siesta:     37   20.787245  657.162787    0.000000
siesta:     38   27.472206   -3.786482    0.000000
siesta:     39   -2.408347   -1.223210    0.000000
siesta:     40    1.462156    0.242014    0.000000
siesta:     41   -1.419295    0.140167    0.000000
siesta:     42    1.915501   -2.650366    0.000000
siesta:     43    0.081243    7.970542    0.000000
siesta:     44   -0.113365   -7.967167    0.000000
siesta:     45   -7.612736  657.311929    0.000000
siesta:     46    3.500129 -117.638797    0.000000
siesta:     47   14.980754  671.987864    0.000000
siesta:     48    1.024564 -121.401883    0.000000
siesta:     49   12.834577  679.404923    0.000000
siesta:     50   23.681980   -5.215737    0.000000
siesta:     51   -1.461549    2.960539    0.000000
siesta:     52    0.776570   -0.331840    0.000000
siesta:     53   -0.337613    0.582023    0.000000
siesta:     54    0.106001   -0.831526    0.000000
siesta:     55  -31.760986  550.929137    0.000000
siesta:     56  -26.069629   -5.338762    0.000000
siesta:     57  -21.256146  558.798816    0.000000
siesta:     58  -21.866836   -6.763092    0.000000
siesta:     59    1.292351  564.210532    0.000000
siesta:     60    0.599997    0.400999    0.000000
siesta:     61   -1.083815    0.661119    0.000000
siesta:     62    0.796307   -1.014539    0.000000
siesta:     63    1.701063   -0.638525    0.000000
siesta:     64   -1.838368    0.860646    0.000000
siesta:     65    0.779613    3.608340    0.000000
siesta:     66   -0.644084   -0.101510    0.000000
siesta:     67   -0.810797    0.822756    0.000000
siesta:     68   -1.320962    0.280069    0.000000
siesta:     69   -1.022650    1.081306    0.000000
siesta:     70   -1.040962   -2.270387    0.000000
siesta:     71    1.824069  132.449169    0.000000
siesta:     72   -2.364871 -548.586440    0.000000
siesta: ----------------------------------------
siesta:    Tot   -0.198450   -0.187344    0.000000

siesta: Stress tensor (static) (eV/Ang**3):
siesta:    -0.411932   -0.000800    0.000000
siesta:    -0.000800   -2.052528    0.000000
siesta:     0.000000    0.000000   -0.000007

siesta: Cell volume =       1893.226884 Ang**3

siesta: Pressure (static):
siesta:                Solid            Molecule  Units
siesta:           0.00894706          0.14588525  Ry/Bohr**3
siesta:           0.82148893         13.39468796  eV/Ang**3
siesta:        1316.18460031      21460.88804440  kBar
(Free)E+ p_basis*V_orbitals  =      -13153.096451
(Free)Eharris+ p_basis*V_orbitals  =      -13153.091746

siesta: Electric dipole (a.u.)  =    0.000000    0.000000    0.000000
siesta: Electric dipole (Debye) =    0.000000    0.000000    0.000000

* Maximum dynamic memory allocated : Node    0 =   193 MB
* Maximum dynamic memory allocated : Node    1 =    72 MB
* Maximum dynamic memory allocated : Node    2 =    72 MB
* Maximum dynamic memory allocated : Node    3 =   182 MB
* Maximum dynamic memory allocated : Node    4 =   190 MB
* Maximum dynamic memory allocated : Node    5 =    71 MB
* Maximum dynamic memory allocated : Node    6 =    73 MB
* Maximum dynamic memory allocated : Node    7 =   176 MB

* Maximum memory occured during matrixMtoO                    

timer: CPU execution times:
timer:  Routine       Calls   Time/call    Tot.time        %
timer:  siesta            1  160408.009  160408.009   100.00
timer:  Setup             1       2.686       2.686     0.00
timer:  bands             3     243.410     730.229     0.46
timer:  writewave         1       0.021       0.021     0.00
timer:  KSV_init          1       0.000       0.000     0.00
timer:  IterMD            1  159669.847  159669.847    99.54
timer:  hsparse           1       0.282       0.282     0.00
timer:  overlap           1       7.134       7.134     0.00
timer:  IterSCF          48    3323.548  159530.284    99.45
timer:  kinefsm           2       3.669       7.338     0.00
timer:  nlefsm            2      17.229      34.458     0.02
timer:  DHSCF            49      68.444    3353.743     2.09
timer:  DHSCF1            1       0.745       0.745     0.00
timer:  DHSCF2            1      29.380      29.380     0.02
timer:  REORD           394       0.005       1.936     0.00
timer:  POISON           50       0.866      43.304     0.03
timer:  DHSCF3           49      67.250    3295.259     2.05
timer:  rhoofd           49      15.003     735.126     0.46
timer:  cellXC           49       3.263     159.905     0.10
timer:  vmat             49      30.873    1512.759     0.94
timer:  MolMec            2       0.000       0.000     0.00
timer:  diagon           48    3254.369  156209.701    97.38
timer:  c-eigval      11209       6.022   67496.392    42.08
timer:  c-buildHS     11209       0.048     541.456     0.34
timer:  cdiag         22297       6.160  137352.344    85.63
timer:  cdiag1        22297       0.385    8583.471     5.35
timer:  cdiag2        22297       1.767   39397.677    24.56
timer:  cdiag3        22297       3.731   83186.859    51.86
timer:  cdiag4        22297       0.152    3389.511     2.11
timer:  c-eigvec      11088       6.387   70815.521    44.15
timer:  c-buildD      11088       1.675   18571.282    11.58
timer:  DHSCF4            1      27.391      27.391     0.02
timer:  dfscf             1      25.541      25.541     0.02
timer:  overfsm           1       0.373       0.373     0.00
timer:  optical           1       4.580       4.580     0.00
  

elaps: ELAPSED times:
elaps:  Routine       Calls   Time/call    Tot.time        %
elaps:  siesta            1   20088.916   20088.916   100.00
elaps:  Setup             1       0.337       0.337     0.00
elaps:  bands             3      30.500      91.501     0.46
elaps:  writewave         1       0.002       0.002     0.00
elaps:  KSV_init          1       0.000       0.000     0.00
elaps:  IterMD            1   19996.472   19996.472    99.54
elaps:  hsparse           1       0.037       0.037     0.00
elaps:  overlap           1       0.895       0.895     0.00
elaps:  IterSCF          48     416.229   19978.997    99.45
elaps:  kinefsm           2       0.462       0.923     0.00
elaps:  nlefsm            2       2.175       4.349     0.02
elaps:  DHSCF            49       8.640     423.358     2.11
elaps:  DHSCF1            1       0.095       0.095     0.00
elaps:  DHSCF2            1       3.678       3.678     0.02
elaps:  REORD           394       0.001       0.266     0.00
elaps:  POISON           50       0.109       5.472     0.03
elaps:  DHSCF3           49       8.423     412.719     2.05
elaps:  rhoofd           49       3.942     193.143     0.96
elaps:  cellXC           49       0.408      20.014     0.10
elaps:  vmat             49       3.867     189.471     0.94
elaps:  MolMec            2       0.000       0.000     0.00
elaps:  diagon           48     407.574   19563.551    97.38
elaps:  c-eigval      11209       0.754    8452.812    42.08
elaps:  c-buildHS     11209       0.007      76.585     0.38
elaps:  cdiag         22297       0.766   17076.064    85.00
elaps:  cdiag1        22297       0.048    1075.094     5.35
elaps:  cdiag2        22297       0.221    4935.117    24.57
elaps:  cdiag3        22297       0.468   10431.424    51.93
elaps:  cdiag4        22297       0.019     415.037     2.07
elaps:  c-eigvec      11088       0.790    8761.728    43.61
elaps:  c-buildD      11088       0.219    2430.385    12.10
elaps:  DHSCF4            1       6.750       6.750     0.03
elaps:  dfscf             1       6.366       6.366     0.03
elaps:  overfsm           1       0.049       0.049     0.00
elaps:  optical           1       0.000       0.000     0.00
  
>> End of run:  24-APR-2016   7:49:35
