Siesta Version:                                        siesta-3.2-pl-3
Architecture  : x86_64-unknown-linux-gnu--unknown
Compiler flags: mpiifort -g -O2 -fPIC -xSSE4.1 -fp-model source -shared-intel 
PARALLEL version

* Running on    8 nodes in parallel
>> Start of run:  30-APR-2016   6:47:39

                           ***********************       
                           *  WELCOME TO SIESTA  *       
                           ***********************       

reinit: Reading from standard input
************************** Dump of input data file ****************************
#(1) General system descriptors
SystemName            GRP_doping    # Descriptive name of the system
SystemLabel           GRP_doping    # Short name for naming files
%include STRUCT.fdf
%include KPT.fdf
%include BASIS.fdf
#%include TS.fdf # for transiesta calculation
#(4) DFT, Grid, SCF
XC.functional         GGA           # LDA or GGA (default = LDA)
XC.authors            PBE           # CA (Ceperley-Aldr) = PZ
                                    #    (Perdew-Zunger) - LDA - Default
                                    # PW92 (Perdew-Wang-92) - LDA
                                    # PBE (Perdew-Burke-Ernzerhof) - GGA
MeshCutoff            200.000000    Ry      # Default: 50.0 Ry ~ 0.444 Bohr
                                    #         100.0 Ry ~ 0.314 Bohr
MaxSCFIterations      500           # Default: 50
DM.MixingWeight       0.05          # Default: 0.25
DM.NumberPulay        10            # Default: 0
DM.PulayOnFile        F             # SystemLabel.P1, SystemLabel.P2
DM.Tolerance          1.d-4         # Default: 1.d-4
DM.UseSaveDM          .true.        # because of the bug
SCFMustConverge       .true.
NeglNonOverlapInt     F             # Default: F
#(5) Eigenvalue problem: order-N or diagonalization
SolutionMethod        Diagon        # or Transiesta
ElectronicTemperature 300.0 K       # Default: 300.0 K
#(6) Molecular dynamics and relaxations
#MD.TypeOfRun          CG            # Type of dynamics:
#MD.VariableCell       F
#MD.NumCGsteps         0           # 0 for single-point / 100 for gopt
#MD.MaxCGDispl         0.2 Bohr      # Default: 0.2 Bohr
#MD.MaxForceTol        0.02 eV/Ang   # Default: 0.04 eV/Ang
#MD.MaxStressTol       1.0 GPa       # Default: 1.0 GPa
# Geometry Constraints
#%block GeometryConstraints
#	position from 1 to 44
#%endblock GeometryConstraints
BandLinesScale   pi/a
%block BandLines
 1   0.00000000  0.00000000  0.00000000
50   0.00000000  0.07809418  0.00000000
50   0.04509075  0.07809242  0.00000000
20   0.00000000  0.00000000  0.00000000
%endblock BandLines
************************** End of input data file *****************************

reinit: -----------------------------------------------------------------------
reinit: System Name: GRP_doping
reinit: -----------------------------------------------------------------------
reinit: System Label: GRP_doping                                                  
reinit: -----------------------------------------------------------------------

initatom: Reading input for the pseudopotentials and atomic orbitals ----------
 Species number:            1  Label: B Atomic number:           5
 Species number:            2  Label: C Atomic number:           6
Ground state valence configuration:   2s02  2p01
Reading pseudopotential information in formatted form from B.psf

Valence configuration for pseudopotential generation:
2s( 2.00) rc: 1.74
2p( 1.00) rc: 1.74
3d( 0.00) rc: 1.74
4f( 0.00) rc: 1.74
Ground state valence configuration:   2s02  2p02
Reading pseudopotential information in formatted form from C.psf

Valence configuration for pseudopotential generation:
2s( 2.00) rc: 1.54
2p( 2.00) rc: 1.54
3d( 0.00) rc: 1.54
4f( 0.00) rc: 1.54
For B, standard SIESTA heuristics set lmxkb to 3
 (one more than the basis l, including polarization orbitals).
Use PS.lmax or PS.KBprojectors blocks to override.
For C, standard SIESTA heuristics set lmxkb to 3
 (one more than the basis l, including polarization orbitals).
Use PS.lmax or PS.KBprojectors blocks to override.

<basis_specs>
===============================================================================
B                    Z=   5    Mass=  10.810        Charge= 0.17977+309
Lmxo=1 Lmxkb= 3    BasisType=split      Semic=F
L=0  Nsemic=0  Cnfigmx=2
          n=1  nzeta=2  polorb=0
            splnorm:   0.15000    
               vcte:    0.0000    
               rinn:    0.0000    
                rcs:    0.0000      0.0000    
            lambdas:    1.0000      1.0000    
L=1  Nsemic=0  Cnfigmx=2
          n=1  nzeta=2  polorb=1
            splnorm:   0.15000    
               vcte:    0.0000    
               rinn:    0.0000    
                rcs:    0.0000      0.0000    
            lambdas:    1.0000      1.0000    
-------------------------------------------------------------------------------
L=0  Nkbl=1  erefs: 0.17977+309
L=1  Nkbl=1  erefs: 0.17977+309
L=2  Nkbl=1  erefs: 0.17977+309
L=3  Nkbl=1  erefs: 0.17977+309
===============================================================================
</basis_specs>

atom: Called for B                     (Z =   5)

read_vps: Pseudopotential generation method:
read_vps: ATM3      Troullier-Martins                       
Total valence charge:    3.00000

read_vps: Pseudopotential includes a core correction:
read_vps: Pseudo-core for xc-correction

xc_check: Exchange-correlation functional:
xc_check: GGA Perdew, Burke & Ernzerhof 1996
V l=0 = -2*Zval/r beyond r=  1.7165
V l=1 = -2*Zval/r beyond r=  1.7165
V l=2 = -2*Zval/r beyond r=  1.7165
V l=3 = -2*Zval/r beyond r=  1.6951
All V_l potentials equal beyond r=  1.7165
This should be close to max(r_c) in ps generation
All pots = -2*Zval/r beyond r=  1.7165

VLOCAL1: 99.0% of the norm of Vloc inside     14.733 Ry
VLOCAL1: 99.9% of the norm of Vloc inside     33.577 Ry
atom: Maximum radius for 4*pi*r*r*local-pseudopot. charge    2.04484
atom: Maximum radius for r*vlocal+2*Zval:    1.75994
GHOST: No ghost state for L =  0
GHOST: No ghost state for L =  1
GHOST: No ghost state for L =  2
GHOST: No ghost state for L =  3

KBgen: Kleinman-Bylander projectors: 
   l= 0   rc=  1.897051   el= -0.693730   Ekb=  4.595746   kbcos=  0.286105
   l= 1   rc=  1.920920   el= -0.265236   Ekb= -2.350715   kbcos= -0.315747
   l= 2   rc=  2.044840   el=  0.002055   Ekb= -0.690767   kbcos= -0.013822
   l= 3   rc=  2.149707   el=  0.003188   Ekb= -0.315358   kbcos= -0.002055

KBgen: Total number of  Kleinman-Bylander projectors:   16
atom: -------------------------------------------------------------------------

atom: SANKEY-TYPE ORBITALS:
atom: Selected multiple-zeta basis: split     

SPLIT: Orbitals with angular momentum L= 0

SPLIT: Basis orbitals for state 2s

SPLIT: PAO cut-off radius determined from an
SPLIT: energy shift=  0.007350 Ry

   izeta = 1
                 lambda =    1.000000
                     rc =    5.422032
                 energy =   -0.686029
                kinetic =    0.576707
    potential(screened) =   -1.262736
       potential(ionic) =   -3.271094

   izeta = 2
                 rmatch =    4.222573
              splitnorm =    0.150000
                 energy =   -0.602132
                kinetic =    0.858975
    potential(screened) =   -1.461107
       potential(ionic) =   -3.582536

SPLIT: Orbitals with angular momentum L= 1

SPLIT: Basis orbitals for state 2p

SPLIT: PAO cut-off radius determined from an
SPLIT: energy shift=  0.007350 Ry

   izeta = 1
                 lambda =    1.000000
                     rc =    6.790259
                 energy =   -0.258578
                kinetic =    1.481412
    potential(screened) =   -1.739989
       potential(ionic) =   -3.657461

   izeta = 2
                 rmatch =    4.608740
              splitnorm =    0.150000
                 energy =   -0.173757
                kinetic =    2.186690
    potential(screened) =   -2.360447
       potential(ionic) =   -4.464260

POLgen: Perturbative polarization orbital with L=  2

POLgen: Polarization orbital for state 2p

   izeta = 1
                     rc =    6.790259
                 energy =    0.684082
                kinetic =    1.471481
    potential(screened) =   -0.787399
       potential(ionic) =   -2.406985
atom: Total number of Sankey-type orbitals: 13

atm_pop: Valence configuration (for local Pseudopot. screening):
 2s( 2.00)                                                            
 2p( 1.00)                                                            
Vna: chval, zval:    3.00000   3.00000

Vna:  Cut-off radius for the neutral-atom potential:   6.790259
comcore: Pseudo-core radius Rcore=  2.122997

atom: _________________________________________________________________________

<basis_specs>
===============================================================================
C                    Z=   6    Mass=  12.010        Charge= 0.17977+309
Lmxo=1 Lmxkb= 3    BasisType=split      Semic=F
L=0  Nsemic=0  Cnfigmx=2
          n=1  nzeta=2  polorb=0
            splnorm:   0.15000    
               vcte:    0.0000    
               rinn:    0.0000    
                rcs:    0.0000      0.0000    
            lambdas:    1.0000      1.0000    
L=1  Nsemic=0  Cnfigmx=2
          n=1  nzeta=2  polorb=1
            splnorm:   0.15000    
               vcte:    0.0000    
               rinn:    0.0000    
                rcs:    0.0000      0.0000    
            lambdas:    1.0000      1.0000    
-------------------------------------------------------------------------------
L=0  Nkbl=1  erefs: 0.17977+309
L=1  Nkbl=1  erefs: 0.17977+309
L=2  Nkbl=1  erefs: 0.17977+309
L=3  Nkbl=1  erefs: 0.17977+309
===============================================================================
</basis_specs>

atom: Called for C                     (Z =   6)

read_vps: Pseudopotential generation method:
read_vps: ATM3      Troullier-Martins                       
Total valence charge:    4.00000

read_vps: Pseudopotential includes a core correction:
read_vps: Pseudo-core for xc-correction

xc_check: Exchange-correlation functional:
xc_check: GGA Perdew, Burke & Ernzerhof 1996
V l=0 = -2*Zval/r beyond r=  1.5227
V l=1 = -2*Zval/r beyond r=  1.5227
V l=2 = -2*Zval/r beyond r=  1.5227
V l=3 = -2*Zval/r beyond r=  1.5038
All V_l potentials equal beyond r=  1.5227
This should be close to max(r_c) in ps generation
All pots = -2*Zval/r beyond r=  1.5227

VLOCAL1: 99.0% of the norm of Vloc inside     18.722 Ry
VLOCAL1: 99.9% of the norm of Vloc inside     42.668 Ry
atom: Maximum radius for 4*pi*r*r*local-pseudopot. charge    1.83678
atom: Maximum radius for r*vlocal+2*Zval:    1.58088
GHOST: No ghost state for L =  0
GHOST: No ghost state for L =  1
GHOST: No ghost state for L =  2
GHOST: No ghost state for L =  3

KBgen: Kleinman-Bylander projectors: 
   l= 0   rc=  1.704034   el= -1.009801   Ekb=  5.335044   kbcos=  0.316824
   l= 1   rc=  1.704034   el= -0.388707   Ekb= -3.785862   kbcos= -0.366464
   l= 2   rc=  1.791422   el=  0.001971   Ekb= -0.970471   kbcos= -0.009212
   l= 3   rc=  1.859892   el=  0.003065   Ekb= -0.399525   kbcos= -0.001223

KBgen: Total number of  Kleinman-Bylander projectors:   16
atom: -------------------------------------------------------------------------

atom: SANKEY-TYPE ORBITALS:
atom: Selected multiple-zeta basis: split     

SPLIT: Orbitals with angular momentum L= 0

SPLIT: Basis orbitals for state 2s

SPLIT: PAO cut-off radius determined from an
SPLIT: energy shift=  0.007350 Ry

   izeta = 1
                 lambda =    1.000000
                     rc =    4.632753
                 energy =   -1.002270
                kinetic =    0.855760
    potential(screened) =   -1.858031
       potential(ionic) =   -5.417575

   izeta = 2
                 rmatch =    3.431921
              splitnorm =    0.150000
                 energy =   -0.867111
                kinetic =    1.300804
    potential(screened) =   -2.167915
       potential(ionic) =   -5.962684

SPLIT: Orbitals with angular momentum L= 1

SPLIT: Basis orbitals for state 2p

SPLIT: PAO cut-off radius determined from an
SPLIT: energy shift=  0.007350 Ry

   izeta = 1
                 lambda =    1.000000
                     rc =    5.658549
                 energy =   -0.381140
                kinetic =    2.399701
    potential(screened) =   -2.780841
       potential(ionic) =   -6.206085

   izeta = 2
                 rmatch =    3.653288
              splitnorm =    0.150000
                 energy =   -0.249149
                kinetic =    3.542762
    potential(screened) =   -3.791911
       potential(ionic) =   -7.581078

POLgen: Perturbative polarization orbital with L=  2

POLgen: Polarization orbital for state 2p

   izeta = 1
                     rc =    5.658549
                 energy =    1.109913
                kinetic =    2.304789
    potential(screened) =   -1.194876
       potential(ionic) =   -4.013592
atom: Total number of Sankey-type orbitals: 13

atm_pop: Valence configuration (for local Pseudopot. screening):
 2s( 2.00)                                                            
 2p( 2.00)                                                            
Vna: chval, zval:    4.00000   4.00000

Vna:  Cut-off radius for the neutral-atom potential:   5.658549
comcore: Pseudo-core radius Rcore=  1.791422

atom: _________________________________________________________________________

prinput: Basis input ----------------------------------------------------------

PAO.BasisType split     

%block ChemicalSpeciesLabel
    1    5 B                       # Species index, atomic number, species label
    2    6 C                       # Species index, atomic number, species label
%endblock ChemicalSpeciesLabel

%block PAO.Basis                 # Define Basis set
B                     2                    # Species label, number of l-shells
 n=2   0   2                         # n, l, Nzeta 
   5.422      4.223   
   1.000      1.000   
 n=2   1   2 P   1                   # n, l, Nzeta, Polarization, NzetaPol
   6.790      4.609   
   1.000      1.000   
C                     2                    # Species label, number of l-shells
 n=2   0   2                         # n, l, Nzeta 
   4.633      3.432   
   1.000      1.000   
 n=2   1   2 P   1                   # n, l, Nzeta, Polarization, NzetaPol
   5.659      3.653   
   1.000      1.000   
%endblock PAO.Basis

prinput: ----------------------------------------------------------------------

coor:   Atomic-coordinates input format  =     Fractional

siesta: Atomic coordinates (Bohr) and species
siesta:      2.30256  38.89134   0.00000  1        1
siesta:      2.30256  41.57980   0.00000  1        2
siesta:      4.63094  34.85847   0.00000  1        3
siesta:      4.63094  37.54693   0.00000  1        4
siesta:      6.95932  30.82560   0.00000  1        5
siesta:      6.95932  33.51406   0.00000  1        6
siesta:      9.28770  26.79272   0.00000  1        7
siesta:      9.28770  29.48119   0.00000  1        8
siesta:      4.63094  10.66124   0.00000  1        9
siesta:      4.63094  13.34970   0.00000  1       10
siesta:      2.30256  14.69411   0.00000  1       11
siesta:      2.30256  25.44831   0.00000  1       12
siesta:     -4.68258  21.41544   0.00000  1       13
siesta:     -2.35420  22.75985   0.00000  1       14
siesta:     -7.01096  22.75985   0.00000  1       15
siesta:     -7.01096  25.44831   0.00000  1       16
siesta:     -9.33934  26.79272   0.00000  1       17
siesta:     -0.02582  26.79272   0.00000  1       18
siesta:     -0.02582  29.48119   0.00000  1       19
siesta:     -0.02582   2.59549   0.00000  2       20
siesta:     -0.02582   5.28395   0.00000  2       21
siesta:     -2.35420  38.89134   0.00000  2       22
siesta:     -2.35420  41.57980   0.00000  2       23
siesta:     -4.68258  34.85847   0.00000  2       24
siesta:     -4.68258  37.54693   0.00000  2       25
siesta:      2.30256   6.62836   0.00000  2       26
siesta:      2.30256   9.31683   0.00000  2       27
siesta:      6.95932  14.69411   0.00000  2       28
siesta:      6.95932  17.38257   0.00000  2       29
siesta:      9.28770  18.72698   0.00000  2       30
siesta:      9.28770  21.41544   0.00000  2       31
siesta:     11.61608  22.75985   0.00000  2       32
siesta:     11.61608  25.44831   0.00000  2       33
siesta:     -2.35420   6.62836   0.00000  2       34
siesta:     -2.35420   9.31683   0.00000  2       35
siesta:     -0.02582  10.66124   0.00000  2       36
siesta:     -0.02582  13.34970   0.00000  2       37
siesta:      2.30256  17.38257   0.00000  2       38
siesta:      4.63094  18.72698   0.00000  2       39
siesta:      4.63094  21.41544   0.00000  2       40
siesta:      6.95932  22.75985   0.00000  2       41
siesta:      6.95932  25.44831   0.00000  2       42
siesta:     -4.68258  10.66124   0.00000  2       43
siesta:     -4.68258  13.34970   0.00000  2       44
siesta:     -2.35420  14.69411   0.00000  2       45
siesta:     -2.35420  17.38257   0.00000  2       46
siesta:     -0.02582  18.72698   0.00000  2       47
siesta:     -0.02582  21.41544   0.00000  2       48
siesta:      2.30256  22.75985   0.00000  2       49
siesta:     -7.01096  14.69411   0.00000  2       50
siesta:     -7.01096  17.38257   0.00000  2       51
siesta:     -4.68258  18.72698   0.00000  2       52
siesta:     -2.35420  25.44831   0.00000  2       53
siesta:     -9.33934  18.72698   0.00000  2       54
siesta:     -9.33934  21.41544   0.00000  2       55
siesta:    -11.66772  22.75985   0.00000  2       56
siesta:    -11.66772  25.44831   0.00000  2       57
siesta:     -9.33934  29.48119   0.00000  2       58
siesta:      4.63094  26.79272   0.00000  2       59
siesta:      4.63094  29.48119   0.00000  2       60
siesta:     -4.68258  26.79272   0.00000  2       61
siesta:     -4.68258  29.48119   0.00000  2       62
siesta:      2.30256  30.82560   0.00000  2       63
siesta:      2.30256  33.51406   0.00000  2       64
siesta:     -2.35420  30.82560   0.00000  2       65
siesta:     -2.35420  33.51406   0.00000  2       66
siesta:     -7.01096  30.82560   0.00000  2       67
siesta:     -7.01096  33.51406   0.00000  2       68
siesta:     -0.02582  34.85847   0.00000  2       69
siesta:     -0.02582  37.54693   0.00000  2       70
siesta:     -0.02582  42.92421   0.00000  2       71
siesta:     -0.02582  45.61267   0.00000  2       72

siesta: System type = slab      

initatomlists: Number of atoms, orbitals, and projectors:     72   936  1152

siesta: ******************** Simulation parameters ****************************
siesta:
siesta: The following are some of the parameters of the simulation.
siesta: A complete list of the parameters used, including default values,
siesta: can be found in file out.fdf
siesta:
redata: Non-Collinear-spin run           =     F
redata: SpinPolarized (Up/Down) run      =     F
redata: Number of spin components        =     1
redata: Long output                      =     F
redata: Number of Atomic Species         =        2
redata: Charge density info will appear in .RHO file
redata: Write Mulliken Pop.              =     NO
redata: Mesh Cutoff                      =   200.0000  Ry
redata: Net charge of the system         =     0.0000 |e|
redata: Max. number of SCF Iter          =      500
redata: SCF convergence failure will abort job
redata: Performing Pulay mixing using    =    10 iterations
redata: Mix DM in first SCF step ?       =     F
redata: Write Pulay info on disk?        =     F
redata: Discard 1st Pulay DM after  kick =     F
redata: New DM Mixing Weight             =     0.0500
redata: New DM Occupancy tolerance       = 0.000000000001
redata: No kicks to SCF
redata: DM Mixing Weight for Kicks       =     0.5000
redata: DM Tolerance for SCF             =     0.000100
redata: Require Energy convergence for SCF =     F
redata: DM Energy tolerance for SCF      =     0.000100 eV
redata: Require Harris convergence for SCF =     F
redata: DM Harris energy tolerance for SCF =     0.000100 eV
redata: Using Saved Data (generic)   =     F
redata: Use continuation files for DM    =     T
redata: Neglect nonoverlap interactions  =     F
redata: Method of Calculation            =     Diagonalization
redata: Divide and Conquer               =     T
redata: Electronic Temperature           =     0.0019  Ry
redata: Fix the spin of the system       =     F
redata: Dynamics option                  =     Verlet MD run
redata: Initial MD time step             =        1
redata:   Final MD time step             =        1
redata: Length of MD time step           =     1.0000  fs
redata: Initial Temperature of MD run    =     0.0000  K
redata: Perform a MD quench              =     F
redata: ***********************************************************************
Total number of electrons:   269.000000
Total ionic charge:   269.000000

* ProcessorY, Blocksize:    2  24

k-point displ. along   1 input, could be:     0.50    0.00
k-point displ. along   2 input, could be:     0.50    0.00
 Kpoints in:          231 . Kpoints trimmed:          231

siesta: k-grid: Number of k-points =   231
siesta: k-grid: Cutoff (effective) =     5.000 Ang
siesta: k-grid: Supercell and displacements
siesta: k-grid:   21   0   0      0.500
siesta: k-grid:    0  21   0      0.500
siesta: k-grid:    0   0   1      0.000
Naive supercell factors:     2    2    2

superc: Internal auxiliary supercell:     2 x     2 x     2  =       8
superc: Number of atoms, orbitals, and projectors:    576   7488   9216

* Maximum dynamic memory allocated =     4 MB

siesta:                 ==============================
                            Begin MD step =      1
                        ==============================

superc: Internal auxiliary supercell:     2 x     2 x     2  =       8
superc: Number of atoms, orbitals, and projectors:    576   7488   9216

outcell: Unit cell vectors (Ang):
       12.804619    7.392750    0.000000
        0.000000   14.785500    0.000000
        0.000000    0.000000   10.000000

outcell: Cell vector modules (Ang)   :   14.785500   14.785500   10.000000
outcell: Cell angles (23,13,12) (deg):     90.0000     90.0000     60.0000
outcell: Cell volume (Ang**3)        :   1893.2269
New_DM. Step:     1
Initializing Density Matrix...

InitMesh: MESH =   120 x   120 x    90 =     1296000
InitMesh: Mesh cutoff (required, used) =   200.000   223.865 Ry

* Maximum dynamic memory allocated =   225 MB

stepf: Fermi-Dirac step function

siesta: Program's energy decomposition (eV):
siesta: Ebs     =     -5517.690254
siesta: Eions   =     15969.933558
siesta: Ena     =      4248.548532
siesta: Ekin    =      5376.155659
siesta: Enl     =       786.362117
siesta: DEna    =        -0.000008
siesta: DUscf   =         0.000000
siesta: DUext   =         0.000000
siesta: Exc     =     -4195.356542
siesta: eta*DQ  =         0.000000
siesta: Emadel  =         0.000000
siesta: Emeta   =         0.000000
siesta: Emolmec =         0.000000
siesta: Ekinion =         0.000000
siesta: Eharris =     -9494.580801
siesta: Etot    =     -9754.223801
siesta: FreeEng =     -9754.223801

siesta: iscf   Eharris(eV)      E_KS(eV)   FreeEng(eV)   dDmax  Ef(eV)
siesta:    1    -9494.5808    -9754.2238    -9754.2238  7.6551 -8.3957
timer: Routine,Calls,Time,% = IterSCF        1    3505.632  99.68
elaps: Routine,Calls,Wall,% = IterSCF        1     439.029  99.68
siesta:    2   -14023.6948    -8734.5933    -8734.6494 18.4176 -4.4404
siesta:    3    -9511.7205    -9570.5617    -9570.6006  2.1718 -6.3787
siesta:    4    -9447.7621    -9501.3687    -9501.4326  1.5406 -5.7708
siesta:    5    -9386.4502    -9431.7551    -9431.7955  1.1893 -5.4811
siesta:    6    -9362.7068    -9395.4679    -9395.5051  0.9373 -5.3492
siesta:    7    -9355.4464    -9379.9869    -9380.0541  0.8920 -5.3035
siesta:    8    -9346.0857    -9364.0238    -9364.1006  0.8207 -5.2419
siesta:    9    -9344.1699    -9355.6410    -9355.6944  0.6753 -5.1525
siesta:   10    -9344.0588    -9342.2286    -9342.2827  0.4219 -4.9895
siesta:   11    -9344.4773    -9333.6701    -9333.7203  0.4204 -4.9647
siesta:   12    -9343.6339    -9331.6854    -9331.7495  0.2987 -4.9726
siesta:   13    -9342.7849    -9330.3905    -9330.4610  0.2903 -4.9966
siesta:   14    -9342.4802    -9331.7923    -9331.8667  0.2539 -5.0147
siesta:   15    -9342.3460    -9332.7918    -9332.8686  0.1967 -5.0386
siesta:   16    -9342.2455    -9334.9037    -9334.9784  0.1301 -5.0716
siesta:   17    -9342.1601    -9336.9813    -9337.0553  0.0743 -5.1021
siesta:   18    -9342.0960    -9338.0678    -9338.1421  0.0648 -5.1172
siesta:   19    -9342.0504    -9339.1899    -9339.2663  0.0568 -5.1218
siesta:   20    -9342.0446    -9340.0172    -9340.0926  0.0547 -5.1172
siesta:   21    -9342.0397    -9340.5665    -9340.6435  0.0382 -5.1122
siesta:   22    -9342.0309    -9341.2360    -9341.3091  0.0285 -5.1145
siesta:   23    -9342.0288    -9341.4351    -9341.5083  0.0217 -5.1121
siesta:   24    -9342.0256    -9341.6446    -9341.7180  0.0122 -5.1082
siesta:   25    -9342.0246    -9341.5812    -9341.6549  0.0122 -5.1086
siesta:   26    -9342.0250    -9341.6601    -9341.7336  0.0110 -5.1069
siesta:   27    -9342.0245    -9341.6853    -9341.7587  0.0091 -5.1067
siesta:   28    -9342.0241    -9341.7180    -9341.7914  0.0070 -5.1068
siesta:   29    -9342.0239    -9341.7952    -9341.8687  0.0040 -5.1078
siesta:   30    -9342.0240    -9341.8515    -9341.9249  0.0031 -5.1083
siesta:   31    -9342.0241    -9341.9413    -9342.0146  0.0016 -5.1087
siesta:   32    -9342.0241    -9341.9627    -9342.0359  0.0012 -5.1089
siesta:   33    -9342.0241    -9341.9880    -9342.0613  0.0008 -5.1089
siesta:   34    -9342.0240    -9341.9849    -9342.0582  0.0004 -5.1090
siesta:   35    -9342.0240    -9341.9932    -9342.0665  0.0004 -5.1091
siesta:   36    -9342.0240    -9342.0029    -9342.0762  0.0003 -5.1090
siesta:   37    -9342.0240    -9342.0124    -9342.0857  0.0001 -5.1090
siesta:   38    -9342.0240    -9342.0176    -9342.0909  0.0001 -5.1091
siesta:   39    -9342.0240    -9342.0189    -9342.0922  0.0001 -5.1090

siesta: E_KS(eV) =            -9342.0204

siesta: E_KS - E_eggbox =     -9342.0204

siesta: Atomic forces (eV/Ang):
----------------------------------------
   Tot   -0.196778   -0.124829    0.000000
----------------------------------------
   Max  564.985847
   Res  143.430971    sqrt( Sum f_i^2 / 3N )
----------------------------------------
   Max  564.985847    constrained

Stress-tensor-Voigt (kbar):     -755.62    -2594.89       -0.66        3.46        0.00        0.00
(Free)E + p*V (eV/cell)    -8022.1267
Target enthalpy (eV/cell)    -9342.0937

siesta: Stress tensor (static) (eV/Ang**3):
        -0.471616    0.002160    0.000000
         0.002160   -1.619587    0.000000
         0.000000    0.000000   -0.000412

siesta: Pressure (static):       1117.05747721  kBar

siesta: Stress tensor (total) (eV/Ang**3):
        -0.471616    0.002160    0.000000
         0.002160   -1.619587    0.000000
         0.000000    0.000000   -0.000412

siesta: Pressure (total):       1117.05747721  kBar

siesta: Temp_ion =       0.000 K

* Maximum dynamic memory allocated =   242 MB
Computing bands...

siesta: Program's energy decomposition (eV):
siesta: Ebs     =     -4205.535636
siesta: Eions   =     15969.933558
siesta: Ena     =      4248.548532
siesta: Ekin    =      8212.106187
siesta: Enl     =      -819.827444
siesta: DEna    =      -754.537984
siesta: DUscf   =       101.191331
siesta: DUext   =         0.000000
siesta: Exc     =     -4359.567511
siesta: eta*DQ  =         0.000000
siesta: Emadel  =         0.000000
siesta: Emeta   =         0.000000
siesta: Emolmec =         0.000000
siesta: Ekinion =         0.000000
siesta: Eharris =     -9342.024009
siesta: Etot    =     -9342.020448
siesta: FreeEng =     -9342.093742

siesta: Final energy (eV):
siesta:  Band Struct. =   -4205.535636
siesta:       Kinetic =    8212.106187
siesta:       Hartree =   26928.392798
siesta:    Ext. field =       0.000000
siesta:   Exch.-corr. =   -4359.567511
siesta:  Ion-electron =  -61811.825386
siesta:       Ion-ion =   21688.873463
siesta:       Ekinion =       0.000000
siesta:         Total =   -9342.020448

siesta: Atomic forces (eV/Ang):
siesta:      1    0.646841  108.322197    0.000000
siesta:      2    5.876730 -292.309977    0.000000
siesta:      3   17.227459    0.523340    0.000000
siesta:      4   23.296323 -282.438291    0.000000
siesta:      5   -0.622381    1.501442    0.000000
siesta:      6    3.556702    3.611245    0.000000
siesta:      7    3.395079   -1.898264    0.000000
siesta:      8    4.076222    3.077156    0.000000
siesta:      9   22.667371  283.821274    0.000000
siesta:     10   20.499767    2.491692    0.000000
siesta:     11   24.754987  302.019605    0.000000
siesta:     12    3.342001   -1.235723    0.000000
siesta:     13   -0.497569   -3.775530    0.000000
siesta:     14    3.740719    1.134616    0.000000
siesta:     15   -3.123097   -2.557593    0.000000
siesta:     16    4.313811    2.751713    0.000000
siesta:     17   -8.635586    3.633032    0.000000
siesta:     18   -3.723744   -0.647643    0.000000
siesta:     19   -0.519235 -408.832910    0.000000
siesta:     20   -0.640246  406.105370    0.000000
siesta:     21    1.558848 -126.068499    0.000000
siesta:     22    1.070908  129.340071    0.000000
siesta:     23  -18.814457 -548.183353    0.000000
siesta:     24  -26.531672    3.398064    0.000000
siesta:     25  -31.251083 -550.229342    0.000000
siesta:     26    9.443508  546.839456    0.000000
siesta:     27    8.949447 -122.131031    0.000000
siesta:     28    1.056432    0.622530    0.000000
siesta:     29    1.658785   -1.704949    0.000000
siesta:     30   -0.043021    0.395239    0.000000
siesta:     31    2.165356   -2.541447    0.000000
siesta:     32    0.352557    7.216343    0.000000
siesta:     33    2.911306   -9.375098    0.000000
siesta:     34  -13.446896  547.815374    0.000000
siesta:     35   -1.082019 -125.563158    0.000000
siesta:     36   -0.481726  544.322383    0.000000
siesta:     37    9.231492 -122.182080    0.000000
siesta:     38   22.074663   -1.133905    0.000000
siesta:     39   -1.870750    2.246354    0.000000
siesta:     40   -0.115875   -0.631339    0.000000
siesta:     41   -0.624629    1.661532    0.000000
siesta:     42   -2.440027   -2.374685    0.000000
siesta:     43  -33.424366  550.204803    0.000000
siesta:     44  -25.973232   -4.820317    0.000000
siesta:     45  -27.436859  556.686701    0.000000
siesta:     46  -21.862379   -6.571605    0.000000
siesta:     47    2.753674  564.985847    0.000000
siesta:     48    2.737835   -0.701222    0.000000
siesta:     49    0.268167   -4.532001    0.000000
siesta:     50    2.550882   -1.584464    0.000000
siesta:     51   -2.330262   -1.287421    0.000000
siesta:     52    1.533805   -1.667200    0.000000
siesta:     53   -2.032671    3.183021    0.000000
siesta:     54    1.266566    0.292440    0.000000
siesta:     55   -6.186424   -4.122050    0.000000
siesta:     56   -0.813579    5.324607    0.000000
siesta:     57   -2.400171   -7.423521    0.000000
siesta:     58    2.997805    2.976993    0.000000
siesta:     59    1.740339    0.973530    0.000000
siesta:     60   -3.176363   -2.904767    0.000000
siesta:     61    3.067956    0.806204    0.000000
siesta:     62    1.844461   -0.898886    0.000000
siesta:     63   21.153987    2.282411    0.000000
siesta:     64   30.487449 -552.949752    0.000000
siesta:     65  -21.976995    1.958357    0.000000
siesta:     66  -26.048325 -556.841963    0.000000
siesta:     67   -2.576287    1.462622    0.000000
siesta:     68    2.764729    2.085759    0.000000
siesta:     69    1.134547  127.227238    0.000000
siesta:     70   10.206787 -540.822385    0.000000
siesta:     71    7.684885  120.173927    0.000000
siesta:     72   -1.556042 -550.656948    0.000000
siesta: ----------------------------------------
siesta:    Tot   -0.196778   -0.124829    0.000000

siesta: Stress tensor (static) (eV/Ang**3):
siesta:    -0.471616    0.002160    0.000000
siesta:     0.002160   -1.619587    0.000000
siesta:     0.000000    0.000000   -0.000412

siesta: Cell volume =       1893.226884 Ang**3

siesta: Pressure (static):
siesta:                Solid            Molecule  Units
siesta:           0.00759345          0.10768352  Ry/Bohr**3
siesta:           0.69720490          9.88713456  eV/Ang**3
siesta:        1117.05747721      15841.10719228  kBar
(Free)E+ p_basis*V_orbitals  =       -9305.353010
(Free)Eharris+ p_basis*V_orbitals  =       -9305.358131

siesta: Electric dipole (a.u.)  =    0.000000    0.000000    0.000000
siesta: Electric dipole (Debye) =    0.000000    0.000000    0.000000

* Maximum dynamic memory allocated : Node    0 =   242 MB
* Maximum dynamic memory allocated : Node    1 =    85 MB
* Maximum dynamic memory allocated : Node    2 =    88 MB
* Maximum dynamic memory allocated : Node    3 =   229 MB
* Maximum dynamic memory allocated : Node    4 =   224 MB
* Maximum dynamic memory allocated : Node    5 =    81 MB
* Maximum dynamic memory allocated : Node    6 =    83 MB
* Maximum dynamic memory allocated : Node    7 =   206 MB

* Maximum memory occured during matrixMtoO                    

timer: CPU execution times:
timer:  Routine       Calls   Time/call    Tot.time        %
timer:  siesta            1  133402.232  133402.232   100.00
timer:  Setup             1       2.704       2.704     0.00
timer:  bands             3     243.690     731.070     0.55
timer:  writewave         1       0.018       0.018     0.00
timer:  KSV_init          1       0.006       0.006     0.00
timer:  IterMD            1  132663.252  132663.252    99.45
timer:  hsparse           1       0.514       0.514     0.00
timer:  overlap           1       7.220       7.220     0.01
timer:  IterSCF          39    3396.256  132453.990    99.29
timer:  kinefsm           2       3.750       7.499     0.01
timer:  nlefsm            2      20.187      40.374     0.03
timer:  DHSCF            40     106.551    4262.046     3.19
timer:  DHSCF1            1       0.992       0.992     0.00
timer:  DHSCF2            1      42.668      42.668     0.03
timer:  REORD           322       0.005       1.571     0.00
timer:  POISON           41       0.865      35.454     0.03
timer:  DHSCF3           40     104.440    4177.618     3.13
timer:  rhoofd           40      23.190     927.597     0.70
timer:  cellXC           40       3.275     131.005     0.10
timer:  vmat             40      49.072    1962.889     1.47
timer:  MolMec            2       0.000       0.001     0.00
timer:  diagon           39    3289.127  128275.948    96.16
timer:  c-eigval       9130       6.033   55082.737    41.29
timer:  c-buildHS      9130       0.053     482.221     0.36
timer:  cdiag         18139       6.174  111983.286    83.94
timer:  cdiag1        18139       0.386    6994.075     5.24
timer:  cdiag2        18139       1.768   32074.960    24.04
timer:  cdiag3        18139       3.732   67697.294    50.75
timer:  cdiag4        18139       0.159    2880.097     2.16
timer:  c-eigvec       9009       6.414   57783.982    43.32
timer:  c-buildD       9009       1.786   16094.314    12.06
timer:  DHSCF4            1      39.982      39.982     0.03
timer:  dfscf             1      37.191      37.191     0.03
timer:  overfsm           1       0.461       0.461     0.00
timer:  optical           1       4.547       4.547     0.00
  

elaps: ELAPSED times:
elaps:  Routine       Calls   Time/call    Tot.time        %
elaps:  siesta            1   16706.126   16706.126   100.00
elaps:  Setup             1       0.339       0.339     0.00
elaps:  bands             3      30.534      91.602     0.55
elaps:  writewave         1       0.002       0.002     0.00
elaps:  KSV_init          1       0.000       0.000     0.00
elaps:  IterMD            1   16613.582   16613.582    99.45
elaps:  hsparse           1       0.069       0.069     0.00
elaps:  overlap           1       0.903       0.903     0.01
elaps:  IterSCF          39     425.317   16587.371    99.29
elaps:  kinefsm           2       0.468       0.936     0.01
elaps:  nlefsm            2       2.539       5.079     0.03
elaps:  DHSCF            40      13.472     538.871     3.23
elaps:  DHSCF1            1       0.127       0.127     0.00
elaps:  DHSCF2            1       5.343       5.343     0.03
elaps:  REORD           322       0.001       0.216     0.00
elaps:  POISON           41       0.109       4.464     0.03
elaps:  DHSCF3           40      13.080     523.196     3.13
elaps:  rhoofd           40       6.393     255.702     1.53
elaps:  cellXC           40       0.410      16.394     0.10
elaps:  vmat             40       6.146     245.826     1.47
elaps:  MolMec            2       0.000       0.000     0.00
elaps:  diagon           39     411.899   16064.067    96.16
elaps:  c-eigval       9130       0.756    6898.009    41.29
elaps:  c-buildHS      9130       0.007      63.832     0.38
elaps:  cdiag         18139       0.774   14034.627    84.01
elaps:  cdiag1        18139       0.048     874.175     5.23
elaps:  cdiag2        18139       0.221    4017.752    24.05
elaps:  cdiag3        18139       0.468    8489.138    50.81
elaps:  cdiag4        18139       0.020     354.782     2.12
elaps:  c-eigvec       9009       0.805    7256.679    43.44
elaps:  c-buildD       9009       0.221    1994.357    11.94
elaps:  DHSCF4            1      10.112      10.112     0.06
elaps:  dfscf             1       9.553       9.553     0.06
elaps:  overfsm           1       0.056       0.056     0.00
elaps:  optical           1       0.000       0.000     0.00
  
>> End of run:  30-APR-2016  11:26:05
