Siesta Version:                                        siesta-3.2-pl-3
Architecture  : x86_64-unknown-linux-gnu--unknown
Compiler flags: mpiifort -g -O2 -fPIC -xSSE4.1 -fp-model source -shared-intel 
PARALLEL version

* Running on    8 nodes in parallel
>> Start of run:  23-APR-2016   1:01:45

                           ***********************       
                           *  WELCOME TO SIESTA  *       
                           ***********************       

reinit: Reading from standard input
************************** Dump of input data file ****************************
#(1) General system descriptors
SystemName            GRP_doping    # Descriptive name of the system
SystemLabel           GRP_doping    # Short name for naming files
%include STRUCT.fdf
%include KPT.fdf
%include BASIS.fdf
#%include TS.fdf # for transiesta calculation
#(4) DFT, Grid, SCF
XC.functional         GGA           # LDA or GGA (default = LDA)
XC.authors            PBE           # CA (Ceperley-Aldr) = PZ
                                    #    (Perdew-Zunger) - LDA - Default
                                    # PW92 (Perdew-Wang-92) - LDA
                                    # PBE (Perdew-Burke-Ernzerhof) - GGA
MeshCutoff            200.000000    Ry      # Default: 50.0 Ry ~ 0.444 Bohr
                                    #         100.0 Ry ~ 0.314 Bohr
MaxSCFIterations      500           # Default: 50
DM.MixingWeight       0.05          # Default: 0.25
DM.NumberPulay        10            # Default: 0
DM.PulayOnFile        F             # SystemLabel.P1, SystemLabel.P2
DM.Tolerance          1.d-4         # Default: 1.d-4
DM.UseSaveDM          .true.        # because of the bug
SCFMustConverge       .true.
NeglNonOverlapInt     F             # Default: F
#(5) Eigenvalue problem: order-N or diagonalization
SolutionMethod        Diagon        # or Transiesta
ElectronicTemperature 300.0 K       # Default: 300.0 K
#(6) Molecular dynamics and relaxations
#MD.TypeOfRun          CG            # Type of dynamics:
#MD.VariableCell       F
#MD.NumCGsteps         0           # 0 for single-point / 100 for gopt
#MD.MaxCGDispl         0.2 Bohr      # Default: 0.2 Bohr
#MD.MaxForceTol        0.02 eV/Ang   # Default: 0.04 eV/Ang
#MD.MaxStressTol       1.0 GPa       # Default: 1.0 GPa
# Geometry Constraints
#%block GeometryConstraints
#	position from 1 to 44
#%endblock GeometryConstraints
BandLinesScale   pi/a
%block BandLines
 1   0.00000000  0.00000000  0.00000000
50   0.00000000  0.07809418  0.00000000
50   0.04509075  0.07809242  0.00000000
20   0.00000000  0.00000000  0.00000000
%endblock BandLines
************************** End of input data file *****************************

reinit: -----------------------------------------------------------------------
reinit: System Name: GRP_doping
reinit: -----------------------------------------------------------------------
reinit: System Label: GRP_doping                                                  
reinit: -----------------------------------------------------------------------

initatom: Reading input for the pseudopotentials and atomic orbitals ----------
 Species number:            1  Label: N Atomic number:           7
 Species number:            2  Label: C Atomic number:           6
Ground state valence configuration:   2s02  2p03
Reading pseudopotential information in formatted form from N.psf

Valence configuration for pseudopotential generation:
2s( 2.00) rc: 1.48
2p( 3.00) rc: 1.48
3d( 0.00) rc: 1.48
4f( 0.00) rc: 1.48
Ground state valence configuration:   2s02  2p02
Reading pseudopotential information in formatted form from C.psf

Valence configuration for pseudopotential generation:
2s( 2.00) rc: 1.54
2p( 2.00) rc: 1.54
3d( 0.00) rc: 1.54
4f( 0.00) rc: 1.54
For N, standard SIESTA heuristics set lmxkb to 3
 (one more than the basis l, including polarization orbitals).
Use PS.lmax or PS.KBprojectors blocks to override.
For C, standard SIESTA heuristics set lmxkb to 3
 (one more than the basis l, including polarization orbitals).
Use PS.lmax or PS.KBprojectors blocks to override.

<basis_specs>
===============================================================================
N                    Z=   7    Mass=  14.010        Charge= 0.17977+309
Lmxo=1 Lmxkb= 3    BasisType=split      Semic=F
L=0  Nsemic=0  Cnfigmx=2
          n=1  nzeta=2  polorb=0
            splnorm:   0.15000    
               vcte:    0.0000    
               rinn:    0.0000    
                rcs:    0.0000      0.0000    
            lambdas:    1.0000      1.0000    
L=1  Nsemic=0  Cnfigmx=2
          n=1  nzeta=2  polorb=1
            splnorm:   0.15000    
               vcte:    0.0000    
               rinn:    0.0000    
                rcs:    0.0000      0.0000    
            lambdas:    1.0000      1.0000    
-------------------------------------------------------------------------------
L=0  Nkbl=1  erefs: 0.17977+309
L=1  Nkbl=1  erefs: 0.17977+309
L=2  Nkbl=1  erefs: 0.17977+309
L=3  Nkbl=1  erefs: 0.17977+309
===============================================================================
</basis_specs>

atom: Called for N                     (Z =   7)

read_vps: Pseudopotential generation method:
read_vps: ATM3      Troullier-Martins                       
Total valence charge:    5.00000

read_vps: Pseudopotential includes a core correction:
read_vps: Pseudo-core for xc-correction

xc_check: Exchange-correlation functional:
xc_check: GGA Perdew, Burke & Ernzerhof 1996
V l=0 = -2*Zval/r beyond r=  1.4606
V l=1 = -2*Zval/r beyond r=  1.4606
V l=2 = -2*Zval/r beyond r=  1.4606
V l=3 = -2*Zval/r beyond r=  1.4606
All V_l potentials equal beyond r=  1.4606
This should be close to max(r_c) in ps generation
All pots = -2*Zval/r beyond r=  1.4606

VLOCAL1: 99.0% of the norm of Vloc inside     20.347 Ry
VLOCAL1: 99.9% of the norm of Vloc inside     46.372 Ry
atom: Maximum radius for 4*pi*r*r*local-pseudopot. charge    1.76189
atom: Maximum radius for r*vlocal+2*Zval:    1.53550
GHOST: No ghost state for L =  0
GHOST: No ghost state for L =  1
GHOST: No ghost state for L =  2
GHOST: No ghost state for L =  3

KBgen: Kleinman-Bylander projectors: 
   l= 0   rc=  1.634559   el= -1.363963   Ekb=  5.296955   kbcos=  0.335621
   l= 1   rc=  1.614250   el= -0.521451   Ekb= -5.259161   kbcos= -0.433408
   l= 2   rc=  1.718383   el=  0.001991   Ekb= -1.271464   kbcos= -0.007566
   l= 3   rc=  1.761893   el=  0.003093   Ekb= -0.494769   kbcos= -0.001015

KBgen: Total number of  Kleinman-Bylander projectors:   16
atom: -------------------------------------------------------------------------

atom: SANKEY-TYPE ORBITALS:
atom: Selected multiple-zeta basis: split     

SPLIT: Orbitals with angular momentum L= 0

SPLIT: Basis orbitals for state 2s

SPLIT: PAO cut-off radius determined from an
SPLIT: energy shift=  0.007350 Ry

   izeta = 1
                 lambda =    1.000000
                     rc =    4.071465
                 energy =   -1.356470
                kinetic =    1.176977
    potential(screened) =   -2.533447
       potential(ionic) =   -8.057990

   izeta = 2
                 rmatch =    2.905100
              splitnorm =    0.150000
                 energy =   -1.158343
                kinetic =    1.813009
    potential(screened) =   -2.971352
       potential(ionic) =   -8.901931

SPLIT: Orbitals with angular momentum L= 1

SPLIT: Basis orbitals for state 2p

SPLIT: PAO cut-off radius determined from an
SPLIT: energy shift=  0.007350 Ry

   izeta = 1
                 lambda =    1.000000
                     rc =    4.972977
                 energy =   -0.513884
                kinetic =    3.441732
    potential(screened) =   -3.955616
       potential(ionic) =   -9.287901

   izeta = 2
                 rmatch =    3.054066
              splitnorm =    0.150000
                 energy =   -0.318226
                kinetic =    5.125348
    potential(screened) =   -5.443573
       potential(ionic) =  -11.380999

POLgen: Perturbative polarization orbital with L=  2

POLgen: Polarization orbital for state 2p

   izeta = 1
                     rc =    4.972977
                 energy =    1.607437
                kinetic =    3.268125
    potential(screened) =   -1.660688
       potential(ionic) =   -5.973652
atom: Total number of Sankey-type orbitals: 13

atm_pop: Valence configuration (for local Pseudopot. screening):
 2s( 2.00)                                                            
 2p( 3.00)                                                            
Vna: chval, zval:    5.00000   5.00000

Vna:  Cut-off radius for the neutral-atom potential:   4.972977
comcore: Pseudo-core radius Rcore=  1.554824

atom: _________________________________________________________________________

<basis_specs>
===============================================================================
C                    Z=   6    Mass=  12.010        Charge= 0.17977+309
Lmxo=1 Lmxkb= 3    BasisType=split      Semic=F
L=0  Nsemic=0  Cnfigmx=2
          n=1  nzeta=2  polorb=0
            splnorm:   0.15000    
               vcte:    0.0000    
               rinn:    0.0000    
                rcs:    0.0000      0.0000    
            lambdas:    1.0000      1.0000    
L=1  Nsemic=0  Cnfigmx=2
          n=1  nzeta=2  polorb=1
            splnorm:   0.15000    
               vcte:    0.0000    
               rinn:    0.0000    
                rcs:    0.0000      0.0000    
            lambdas:    1.0000      1.0000    
-------------------------------------------------------------------------------
L=0  Nkbl=1  erefs: 0.17977+309
L=1  Nkbl=1  erefs: 0.17977+309
L=2  Nkbl=1  erefs: 0.17977+309
L=3  Nkbl=1  erefs: 0.17977+309
===============================================================================
</basis_specs>

atom: Called for C                     (Z =   6)

read_vps: Pseudopotential generation method:
read_vps: ATM3      Troullier-Martins                       
Total valence charge:    4.00000

read_vps: Pseudopotential includes a core correction:
read_vps: Pseudo-core for xc-correction

xc_check: Exchange-correlation functional:
xc_check: GGA Perdew, Burke & Ernzerhof 1996
V l=0 = -2*Zval/r beyond r=  1.5227
V l=1 = -2*Zval/r beyond r=  1.5227
V l=2 = -2*Zval/r beyond r=  1.5227
V l=3 = -2*Zval/r beyond r=  1.5038
All V_l potentials equal beyond r=  1.5227
This should be close to max(r_c) in ps generation
All pots = -2*Zval/r beyond r=  1.5227

VLOCAL1: 99.0% of the norm of Vloc inside     18.722 Ry
VLOCAL1: 99.9% of the norm of Vloc inside     42.668 Ry
atom: Maximum radius for 4*pi*r*r*local-pseudopot. charge    1.83678
atom: Maximum radius for r*vlocal+2*Zval:    1.58088
GHOST: No ghost state for L =  0
GHOST: No ghost state for L =  1
GHOST: No ghost state for L =  2
GHOST: No ghost state for L =  3

KBgen: Kleinman-Bylander projectors: 
   l= 0   rc=  1.704034   el= -1.009801   Ekb=  5.335044   kbcos=  0.316824
   l= 1   rc=  1.704034   el= -0.388707   Ekb= -3.785862   kbcos= -0.366464
   l= 2   rc=  1.791422   el=  0.001971   Ekb= -0.970471   kbcos= -0.009212
   l= 3   rc=  1.859892   el=  0.003065   Ekb= -0.399525   kbcos= -0.001223

KBgen: Total number of  Kleinman-Bylander projectors:   16
atom: -------------------------------------------------------------------------

atom: SANKEY-TYPE ORBITALS:
atom: Selected multiple-zeta basis: split     

SPLIT: Orbitals with angular momentum L= 0

SPLIT: Basis orbitals for state 2s

SPLIT: PAO cut-off radius determined from an
SPLIT: energy shift=  0.007350 Ry

   izeta = 1
                 lambda =    1.000000
                     rc =    4.632753
                 energy =   -1.002270
                kinetic =    0.855760
    potential(screened) =   -1.858031
       potential(ionic) =   -5.417575

   izeta = 2
                 rmatch =    3.431921
              splitnorm =    0.150000
                 energy =   -0.867111
                kinetic =    1.300804
    potential(screened) =   -2.167915
       potential(ionic) =   -5.962684

SPLIT: Orbitals with angular momentum L= 1

SPLIT: Basis orbitals for state 2p

SPLIT: PAO cut-off radius determined from an
SPLIT: energy shift=  0.007350 Ry

   izeta = 1
                 lambda =    1.000000
                     rc =    5.658549
                 energy =   -0.381140
                kinetic =    2.399701
    potential(screened) =   -2.780841
       potential(ionic) =   -6.206085

   izeta = 2
                 rmatch =    3.653288
              splitnorm =    0.150000
                 energy =   -0.249149
                kinetic =    3.542762
    potential(screened) =   -3.791911
       potential(ionic) =   -7.581078

POLgen: Perturbative polarization orbital with L=  2

POLgen: Polarization orbital for state 2p

   izeta = 1
                     rc =    5.658549
                 energy =    1.109913
                kinetic =    2.304789
    potential(screened) =   -1.194876
       potential(ionic) =   -4.013592
atom: Total number of Sankey-type orbitals: 13

atm_pop: Valence configuration (for local Pseudopot. screening):
 2s( 2.00)                                                            
 2p( 2.00)                                                            
Vna: chval, zval:    4.00000   4.00000

Vna:  Cut-off radius for the neutral-atom potential:   5.658549
comcore: Pseudo-core radius Rcore=  1.791422

atom: _________________________________________________________________________

prinput: Basis input ----------------------------------------------------------

PAO.BasisType split     

%block ChemicalSpeciesLabel
    1    7 N                       # Species index, atomic number, species label
    2    6 C                       # Species index, atomic number, species label
%endblock ChemicalSpeciesLabel

%block PAO.Basis                 # Define Basis set
N                     2                    # Species label, number of l-shells
 n=2   0   2                         # n, l, Nzeta 
   4.071      2.905   
   1.000      1.000   
 n=2   1   2 P   1                   # n, l, Nzeta, Polarization, NzetaPol
   4.973      3.054   
   1.000      1.000   
C                     2                    # Species label, number of l-shells
 n=2   0   2                         # n, l, Nzeta 
   4.633      3.432   
   1.000      1.000   
 n=2   1   2 P   1                   # n, l, Nzeta, Polarization, NzetaPol
   5.659      3.653   
   1.000      1.000   
%endblock PAO.Basis

prinput: ----------------------------------------------------------------------

coor:   Atomic-coordinates input format  =     Fractional

siesta: Atomic coordinates (Bohr) and species
siesta:      9.28770  26.79272   0.00000  1        1
siesta:      9.28770  21.41544   0.00000  1        2
siesta:     11.61608  22.75985   0.00000  1        3
siesta:     11.61608  25.44831   0.00000  1        4
siesta:      2.30256  17.38257   0.00000  1        5
siesta:      4.63094  18.72698   0.00000  1        6
siesta:      4.63094  21.41544   0.00000  1        7
siesta:      6.95932  22.75985   0.00000  1        8
siesta:      6.95932  25.44831   0.00000  1        9
siesta:     -0.02582  21.41544   0.00000  1       10
siesta:      2.30256  22.75985   0.00000  1       11
siesta:      2.30256  25.44831   0.00000  1       12
siesta:     -2.35420  22.75985   0.00000  1       13
siesta:     -2.35420  25.44831   0.00000  1       14
siesta:     -9.33934  21.41544   0.00000  1       15
siesta:     -7.01096  22.75985   0.00000  1       16
siesta:     -7.01096  25.44831   0.00000  1       17
siesta:    -11.66772  22.75985   0.00000  1       18
siesta:    -11.66772  25.44831   0.00000  1       19
siesta:     -9.33934  26.79272   0.00000  1       20
siesta:      4.63094  26.79272   0.00000  1       21
siesta:      4.63094  29.48119   0.00000  1       22
siesta:     -0.02582  26.79272   0.00000  1       23
siesta:      2.30256  30.82560   0.00000  1       24
siesta:     -0.02582   2.59549   0.00000  2       25
siesta:     -0.02582   5.28395   0.00000  2       26
siesta:     -2.35420  38.89134   0.00000  2       27
siesta:     -2.35420  41.57980   0.00000  2       28
siesta:      2.30256  38.89134   0.00000  2       29
siesta:      2.30256  41.57980   0.00000  2       30
siesta:      4.63094  34.85847   0.00000  2       31
siesta:      4.63094  37.54693   0.00000  2       32
siesta:      6.95932  30.82560   0.00000  2       33
siesta:      6.95932  33.51406   0.00000  2       34
siesta:      9.28770  29.48119   0.00000  2       35
siesta:     -4.68258  34.85847   0.00000  2       36
siesta:     -4.68258  37.54693   0.00000  2       37
siesta:      2.30256   6.62836   0.00000  2       38
siesta:      2.30256   9.31683   0.00000  2       39
siesta:      4.63094  10.66124   0.00000  2       40
siesta:      4.63094  13.34970   0.00000  2       41
siesta:      6.95932  14.69411   0.00000  2       42
siesta:      6.95932  17.38257   0.00000  2       43
siesta:      9.28770  18.72698   0.00000  2       44
siesta:     -2.35420   6.62836   0.00000  2       45
siesta:     -2.35420   9.31683   0.00000  2       46
siesta:     -0.02582  10.66124   0.00000  2       47
siesta:     -0.02582  13.34970   0.00000  2       48
siesta:      2.30256  14.69411   0.00000  2       49
siesta:     -4.68258  10.66124   0.00000  2       50
siesta:     -4.68258  13.34970   0.00000  2       51
siesta:     -2.35420  14.69411   0.00000  2       52
siesta:     -2.35420  17.38257   0.00000  2       53
siesta:     -0.02582  18.72698   0.00000  2       54
siesta:     -7.01096  14.69411   0.00000  2       55
siesta:     -7.01096  17.38257   0.00000  2       56
siesta:     -4.68258  18.72698   0.00000  2       57
siesta:     -4.68258  21.41544   0.00000  2       58
siesta:     -9.33934  18.72698   0.00000  2       59
siesta:     -9.33934  29.48119   0.00000  2       60
siesta:     -0.02582  29.48119   0.00000  2       61
siesta:     -4.68258  26.79272   0.00000  2       62
siesta:     -4.68258  29.48119   0.00000  2       63
siesta:      2.30256  33.51406   0.00000  2       64
siesta:     -2.35420  30.82560   0.00000  2       65
siesta:     -2.35420  33.51406   0.00000  2       66
siesta:     -7.01096  30.82560   0.00000  2       67
siesta:     -7.01096  33.51406   0.00000  2       68
siesta:     -0.02582  34.85847   0.00000  2       69
siesta:     -0.02582  37.54693   0.00000  2       70
siesta:     -0.02582  42.92421   0.00000  2       71
siesta:     -0.02582  45.61267   0.00000  2       72

siesta: System type = slab      

initatomlists: Number of atoms, orbitals, and projectors:     72   936  1152

siesta: ******************** Simulation parameters ****************************
siesta:
siesta: The following are some of the parameters of the simulation.
siesta: A complete list of the parameters used, including default values,
siesta: can be found in file out.fdf
siesta:
redata: Non-Collinear-spin run           =     F
redata: SpinPolarized (Up/Down) run      =     F
redata: Number of spin components        =     1
redata: Long output                      =     F
redata: Number of Atomic Species         =        2
redata: Charge density info will appear in .RHO file
redata: Write Mulliken Pop.              =     NO
redata: Mesh Cutoff                      =   200.0000  Ry
redata: Net charge of the system         =     0.0000 |e|
redata: Max. number of SCF Iter          =      500
redata: SCF convergence failure will abort job
redata: Performing Pulay mixing using    =    10 iterations
redata: Mix DM in first SCF step ?       =     F
redata: Write Pulay info on disk?        =     F
redata: Discard 1st Pulay DM after  kick =     F
redata: New DM Mixing Weight             =     0.0500
redata: New DM Occupancy tolerance       = 0.000000000001
redata: No kicks to SCF
redata: DM Mixing Weight for Kicks       =     0.5000
redata: DM Tolerance for SCF             =     0.000100
redata: Require Energy convergence for SCF =     F
redata: DM Energy tolerance for SCF      =     0.000100 eV
redata: Require Harris convergence for SCF =     F
redata: DM Harris energy tolerance for SCF =     0.000100 eV
redata: Using Saved Data (generic)   =     F
redata: Use continuation files for DM    =     T
redata: Neglect nonoverlap interactions  =     F
redata: Method of Calculation            =     Diagonalization
redata: Divide and Conquer               =     T
redata: Electronic Temperature           =     0.0019  Ry
redata: Fix the spin of the system       =     F
redata: Dynamics option                  =     Verlet MD run
redata: Initial MD time step             =        1
redata:   Final MD time step             =        1
redata: Length of MD time step           =     1.0000  fs
redata: Initial Temperature of MD run    =     0.0000  K
redata: Perform a MD quench              =     F
redata: ***********************************************************************
Total number of electrons:   312.000000
Total ionic charge:   312.000000

* ProcessorY, Blocksize:    2  24

k-point displ. along   1 input, could be:     0.50    0.00
k-point displ. along   2 input, could be:     0.50    0.00
 Kpoints in:          231 . Kpoints trimmed:          231

siesta: k-grid: Number of k-points =   231
siesta: k-grid: Cutoff (effective) =     5.000 Ang
siesta: k-grid: Supercell and displacements
siesta: k-grid:   21   0   0      0.500
siesta: k-grid:    0  21   0      0.500
siesta: k-grid:    0   0   1      0.000
Naive supercell factors:     2    2    2

superc: Internal auxiliary supercell:     2 x     2 x     2  =       8
superc: Number of atoms, orbitals, and projectors:    576   7488   9216

* Maximum dynamic memory allocated =     4 MB

siesta:                 ==============================
                            Begin MD step =      1
                        ==============================

superc: Internal auxiliary supercell:     2 x     2 x     2  =       8
superc: Number of atoms, orbitals, and projectors:    576   7488   9216

outcell: Unit cell vectors (Ang):
       12.804619    7.392750    0.000000
        0.000000   14.785500    0.000000
        0.000000    0.000000   10.000000

outcell: Cell vector modules (Ang)   :   14.785500   14.785500   10.000000
outcell: Cell angles (23,13,12) (deg):     90.0000     90.0000     60.0000
outcell: Cell volume (Ang**3)        :   1893.2269
New_DM. Step:     1
Initializing Density Matrix...

InitMesh: MESH =   120 x   120 x    90 =     1296000
InitMesh: Mesh cutoff (required, used) =   200.000   223.865 Ry

* Maximum dynamic memory allocated =   184 MB

stepf: Fermi-Dirac step function

siesta: Program's energy decomposition (eV):
siesta: Ebs     =     -6219.711375
siesta: Eions   =     22260.935331
siesta: Ena     =      4948.765209
siesta: Ekin    =      8392.322035
siesta: Enl     =       -35.655521
siesta: DEna    =        -0.000014
siesta: DUscf   =         0.000000
siesta: DUext   =         0.000000
siesta: Exc     =     -4757.642435
siesta: eta*DQ  =         0.000000
siesta: Emadel  =         0.000000
siesta: Emeta   =         0.000000
siesta: Emolmec =         0.000000
siesta: Ekinion =         0.000000
siesta: Eharris =    -13372.742247
siesta: Etot    =    -13713.146059
siesta: FreeEng =    -13713.146059

siesta: iscf   Eharris(eV)      E_KS(eV)   FreeEng(eV)   dDmax  Ef(eV)
siesta:    1   -13372.7422   -13713.1461   -13713.1461  6.2856 -6.6444
timer: Routine,Calls,Time,% = IterSCF        1    4060.530  99.70
elaps: Routine,Calls,Wall,% = IterSCF        1     508.193  99.70
siesta:    2   -22030.8482   -12267.6140   -12267.6206 16.2496-11.2091
siesta:    3   -13340.1033   -13536.4378   -13536.5536  3.0256 -5.1547
siesta:    4   -13264.4684   -13410.6871   -13410.6889  1.5143 -4.6049
siesta:    5   -13224.9770   -13299.7212   -13299.7912  0.9114 -3.9665
siesta:    6   -13210.1591   -13248.9545   -13248.9703  0.7088 -3.5883
siesta:    7   -13196.4665   -13226.2419   -13226.2800  0.6270 -3.7123
siesta:    8   -13189.8196   -13209.6024   -13209.6502  0.5811 -3.7385
siesta:    9   -13188.9957   -13198.7827   -13198.8329  0.4264 -3.8271
siesta:   10   -13187.9655   -13185.2524   -13185.2966  0.2966 -3.8939
siesta:   11   -13187.2877   -13180.4481   -13180.5165  0.2636 -3.7926
siesta:   12   -13187.6512   -13174.1990   -13174.2439  0.2584 -3.6746
siesta:   13   -13187.1696   -13168.8914   -13168.9289  0.2771 -3.6941
siesta:   14   -13186.3471   -13172.7039   -13172.7286  0.2836 -3.7979
siesta:   15   -13185.9636   -13178.4938   -13178.5241  0.2037 -3.9276
siesta:   16   -13185.7573   -13179.3377   -13179.3838  0.1907 -3.8852
siesta:   17   -13185.5968   -13182.4816   -13182.5217  0.0681 -3.8633
siesta:   18   -13185.5882   -13183.1457   -13183.1882  0.0758 -3.8349
siesta:   19   -13185.6004   -13185.0880   -13185.1210  0.0583 -3.8082
siesta:   20   -13185.5642   -13185.4757   -13185.5053  0.0389 -3.8064
siesta:   21   -13185.5221   -13184.2908   -13184.3240  0.0203 -3.8170
siesta:   22   -13185.5121   -13185.3828   -13185.4233  0.0188 -3.8259
siesta:   23   -13185.5114   -13185.5782   -13185.6196  0.0180 -3.8264
siesta:   24   -13185.5089   -13185.7082   -13185.7505  0.0140 -3.8175
siesta:   25   -13185.5093   -13185.5828   -13185.6236  0.0124 -3.8112
siesta:   26   -13185.5080   -13185.3708   -13185.4111  0.0079 -3.8147
siesta:   27   -13185.5089   -13185.3858   -13185.4267  0.0075 -3.8130
siesta:   28   -13185.5077   -13185.4147   -13185.4548  0.0032 -3.8182
siesta:   29   -13185.5077   -13185.5078   -13185.5489  0.0027 -3.8171
siesta:   30   -13185.5076   -13185.5523   -13185.5932  0.0020 -3.8167
siesta:   31   -13185.5076   -13185.5843   -13185.6250  0.0008 -3.8167
siesta:   32   -13185.5075   -13185.5711   -13185.6119  0.0005 -3.8167
siesta:   33   -13185.5075   -13185.5559   -13185.5967  0.0003 -3.8165
siesta:   34   -13185.5075   -13185.5450   -13185.5859  0.0003 -3.8167
siesta:   35   -13185.5075   -13185.5287   -13185.5696  0.0003 -3.8166
siesta:   36   -13185.5075   -13185.5185   -13185.5594  0.0003 -3.8165
siesta:   37   -13185.5075   -13185.5129   -13185.5537  0.0002 -3.8165
siesta:   38   -13185.5075   -13185.5130   -13185.5538  0.0001 -3.8165

siesta: E_KS(eV) =           -13185.5137

siesta: E_KS - E_eggbox =    -13185.5137

siesta: Atomic forces (eV/Ang):
----------------------------------------
   Tot    0.021844   -0.077825    0.000000
----------------------------------------
   Max  577.649780
   Res  161.852062    sqrt( Sum f_i^2 / 3N )
----------------------------------------
   Max  577.649780    constrained

Stress-tensor-Voigt (kbar):     -712.08    -2835.10        0.03       -0.09        0.00        0.00
(Free)E + p*V (eV/cell)   -11788.3928
Target enthalpy (eV/cell)   -13185.5546

siesta: Stress tensor (static) (eV/Ang**3):
        -0.444442   -0.000055    0.000000
        -0.000055   -1.769513    0.000000
         0.000000    0.000000    0.000019

siesta: Pressure (static):       1182.38552326  kBar

siesta: Stress tensor (total) (eV/Ang**3):
        -0.444442   -0.000055    0.000000
        -0.000055   -1.769513    0.000000
         0.000000    0.000000    0.000019

siesta: Pressure (total):       1182.38552326  kBar

siesta: Temp_ion =       0.000 K

* Maximum dynamic memory allocated =   201 MB
Computing bands...

siesta: Program's energy decomposition (eV):
siesta: Ebs     =     -5115.194906
siesta: Eions   =     22260.935331
siesta: Ena     =      4948.765209
siesta: Ekin    =     11273.060937
siesta: Enl     =     -1620.315904
siesta: DEna    =      -716.835144
siesta: DUscf   =       104.144151
siesta: DUext   =         0.000000
siesta: Exc     =     -4913.397619
siesta: eta*DQ  =         0.000000
siesta: Emadel  =         0.000000
siesta: Emeta   =         0.000000
siesta: Emolmec =         0.000000
siesta: Ekinion =         0.000000
siesta: Eharris =    -13185.507490
siesta: Etot    =    -13185.513701
siesta: FreeEng =    -13185.554570

siesta: Final energy (eV):
siesta:  Band Struct. =   -5115.194906
siesta:       Kinetic =   11273.060937
siesta:       Hartree =   35359.553410
siesta:    Ext. field =       0.000000
siesta:   Exch.-corr. =   -4913.397619
siesta:  Ion-electron =  -81521.380549
siesta:       Ion-ion =   26616.650120
siesta:       Ekinion =       0.000000
siesta:         Total =  -13185.513701

siesta: Atomic forces (eV/Ang):
siesta:      1    1.489517    3.078363    0.000000
siesta:      2    1.485104   -3.075908    0.000000
siesta:      3   -1.665914    3.194558    0.000000
siesta:      4   -1.656816   -3.175500    0.000000
siesta:      5   27.870984  -10.125042    0.000000
siesta:      6    0.716222    2.551761    0.000000
siesta:      7    0.161307    0.138333    0.000000
siesta:      8   -1.225932    1.895332    0.000000
siesta:      9   -1.227140   -1.885770    0.000000
siesta:     10   -2.123599   -4.275298    0.000000
siesta:     11    1.327710   -0.157391    0.000000
siesta:     12    1.333289    0.154268    0.000000
siesta:     13   -0.662336   -0.873796    0.000000
siesta:     14   -0.669124    0.883940    0.000000
siesta:     15   -0.651603   -2.739287    0.000000
siesta:     16    2.200690    0.904136    0.000000
siesta:     17    2.200979   -0.902286    0.000000
siesta:     18    1.318647    3.425319    0.000000
siesta:     19    1.318658   -3.429292    0.000000
siesta:     20   -0.650945    2.740345    0.000000
siesta:     21    0.175653   -0.152285    0.000000
siesta:     22    0.710557   -2.536019    0.000000
siesta:     23   -2.121382    4.265933    0.000000
siesta:     24   27.874950   10.113929    0.000000
siesta:     25   13.053667  546.943859    0.000000
siesta:     26    3.252037 -124.994126    0.000000
siesta:     27   -0.089885  127.804720    0.000000
siesta:     28  -17.053047 -547.622641    0.000000
siesta:     29   -0.636441  126.631057    0.000000
siesta:     30   20.449007 -551.022784    0.000000
siesta:     31   26.310571    6.797927    0.000000
siesta:     32   33.902001 -549.628717    0.000000
siesta:     33    1.534991    0.431313    0.000000
siesta:     34   -2.743963   -0.034643    0.000000
siesta:     35    0.053527   -2.342805    0.000000
siesta:     36  -26.106900    5.997784    0.000000
siesta:     37  -33.281847 -549.475078    0.000000
siesta:     38   20.460087  551.001881    0.000000
siesta:     39   -0.626197 -126.627624    0.000000
siesta:     40   33.908897  549.622157    0.000000
siesta:     41   26.308586   -6.813372    0.000000
siesta:     42   -2.739540    0.036227    0.000000
siesta:     43    1.528639   -0.430746    0.000000
siesta:     44    0.052171    2.342579    0.000000
siesta:     45  -17.064881  547.625938    0.000000
siesta:     46   -0.086142 -127.807874    0.000000
siesta:     47    0.832244  546.482659    0.000000
siesta:     48    1.646225 -128.155327    0.000000
siesta:     49   10.291753  555.035226    0.000000
siesta:     50  -33.273305  549.491626    0.000000
siesta:     51  -26.128693   -5.983684    0.000000
siesta:     52  -22.391398  557.311574    0.000000
siesta:     53  -23.702807   -6.381102    0.000000
siesta:     54  -16.199424  577.643874    0.000000
siesta:     55    2.610097   -0.861507    0.000000
siesta:     56   -1.763518   -0.249327    0.000000
siesta:     57    2.366402    3.203733    0.000000
siesta:     58   -0.236358    0.007577    0.000000
siesta:     59   -0.851663    2.241726    0.000000
siesta:     60   -0.851707   -2.236781    0.000000
siesta:     61  -16.187805 -577.649780    0.000000
siesta:     62   -0.229958   -0.010126    0.000000
siesta:     63    2.362488   -3.203330    0.000000
siesta:     64   10.281627 -555.032347    0.000000
siesta:     65  -23.692087    6.379477    0.000000
siesta:     66  -22.382522 -557.312556    0.000000
siesta:     67   -1.752017    0.250863    0.000000
siesta:     68    2.613789    0.868115    0.000000
siesta:     69    1.620583  128.120912    0.000000
siesta:     70    0.818397 -546.513495    0.000000
siesta:     71    3.240992  124.969398    0.000000
siesta:     72   13.065692 -546.948598    0.000000
siesta: ----------------------------------------
siesta:    Tot    0.021844   -0.077825    0.000000

siesta: Stress tensor (static) (eV/Ang**3):
siesta:    -0.444442   -0.000055    0.000000
siesta:    -0.000055   -1.769513    0.000000
siesta:     0.000000    0.000000    0.000019

siesta: Cell volume =       1893.226884 Ang**3

siesta: Pressure (static):
siesta:                Solid            Molecule  Units
siesta:           0.00803753          0.12605528  Ry/Bohr**3
siesta:           0.73797902         11.57396730  eV/Ang**3
siesta:        1182.38552326      18543.74040684  kBar
(Free)E+ p_basis*V_orbitals  =      -13158.248079
(Free)Eharris+ p_basis*V_orbitals  =      -13158.242617

siesta: Electric dipole (a.u.)  =    0.000000    0.000000    0.000000
siesta: Electric dipole (Debye) =    0.000000    0.000000    0.000000

* Maximum dynamic memory allocated : Node    0 =   201 MB
* Maximum dynamic memory allocated : Node    1 =    70 MB
* Maximum dynamic memory allocated : Node    2 =    72 MB
* Maximum dynamic memory allocated : Node    3 =   192 MB
* Maximum dynamic memory allocated : Node    4 =   179 MB
* Maximum dynamic memory allocated : Node    5 =    70 MB
* Maximum dynamic memory allocated : Node    6 =    72 MB
* Maximum dynamic memory allocated : Node    7 =   164 MB

* Maximum memory occured during matrixMtoO                    

timer: CPU execution times:
timer:  Routine       Calls   Time/call    Tot.time        %
timer:  siesta            1  151708.504  151708.504   100.00
timer:  Setup             1       3.893       3.893     0.00
timer:  bands             3     268.924     806.772     0.53
timer:  writewave         1       0.041       0.041     0.00
timer:  KSV_init          1       0.006       0.006     0.00
timer:  IterMD            1  150892.103  150892.103    99.46
timer:  hsparse           1       0.234       0.234     0.00
timer:  overlap           1       7.684       7.684     0.01
timer:  IterSCF          38    3966.389  150722.792    99.35
timer:  kinefsm           2       3.955       7.910     0.01
timer:  nlefsm            2      18.475      36.949     0.02
timer:  DHSCF            39      87.967    3430.715     2.26
timer:  DHSCF1            1       0.764       0.764     0.00
timer:  DHSCF2            1      33.752      33.752     0.02
timer:  REORD           314       0.010       3.075     0.00
timer:  POISON           40       2.236      89.445     0.06
timer:  DHSCF3           39      86.276    3364.767     2.22
timer:  rhoofd           39      16.509     643.843     0.42
timer:  cellXC           39       3.460     134.951     0.09
timer:  vmat             39      41.425    1615.566     1.06
timer:  MolMec            2       0.000       0.000     0.00
timer:  diagon           38    3876.869  147321.023    97.11
timer:  c-eigval       8899       6.662   59283.234    39.08
timer:  c-buildHS      8899       0.110     978.971     0.65
timer:  cdiag         17677       6.838  120869.857    79.67
timer:  cdiag1        17677       0.426    7523.168     4.96
timer:  cdiag2        17677       1.904   33652.390    22.18
timer:  cdiag3        17677       3.949   69808.107    46.01
timer:  cdiag4        17677       0.204    3608.352     2.38
timer:  c-eigvec       8778       7.182   63045.827    41.56
timer:  c-buildD       8778       2.933   25749.296    16.97
timer:  DHSCF4            1      29.363      29.363     0.02
timer:  dfscf             1      27.590      27.590     0.02
timer:  overfsm           1       0.400       0.400     0.00
timer:  optical           1       5.033       5.033     0.00
  

elaps: ELAPSED times:
elaps:  Routine       Calls   Time/call    Tot.time        %
elaps:  siesta            1   18983.618   18983.618   100.00
elaps:  Setup             1       0.503       0.503     0.00
elaps:  bands             3      33.668     101.004     0.53
elaps:  writewave         1       0.006       0.006     0.00
elaps:  KSV_init          1       0.001       0.001     0.00
elaps:  IterMD            1   18881.447   18881.447    99.46
elaps:  hsparse           1       0.029       0.029     0.00
elaps:  overlap           1       0.966       0.966     0.01
elaps:  IterSCF          38     496.326   18860.379    99.35
elaps:  kinefsm           2       0.496       0.993     0.01
elaps:  nlefsm            2       2.320       4.641     0.02
elaps:  DHSCF            39      11.112     433.386     2.28
elaps:  DHSCF1            1       0.097       0.097     0.00
elaps:  DHSCF2            1       4.220       4.220     0.02
elaps:  REORD           314       0.001       0.413     0.00
elaps:  POISON           40       0.280      11.193     0.06
elaps:  DHSCF3           39      10.793     420.936     2.22
elaps:  rhoofd           39       4.798     187.111     0.99
elaps:  cellXC           39       0.432      16.856     0.09
elaps:  vmat             39       5.182     202.086     1.06
elaps:  MolMec            2       0.000       0.000     0.00
elaps:  diagon           38     485.112   18434.256    97.11
elaps:  c-eigval       8899       0.834    7417.528    39.07
elaps:  c-buildHS      8899       0.015     130.822     0.69
elaps:  cdiag         17677       0.857   15142.483    79.77
elaps:  cdiag1        17677       0.053     934.739     4.92
elaps:  cdiag2        17677       0.238    4210.787    22.18
elaps:  cdiag3        17677       0.495    8746.656    46.07
elaps:  cdiag4        17677       0.026     457.664     2.41
elaps:  c-eigvec       8778       0.906    7951.762    41.89
elaps:  c-buildD       8778       0.359    3155.228    16.62
elaps:  DHSCF4            1       7.853       7.853     0.04
elaps:  dfscf             1       7.461       7.461     0.04
elaps:  overfsm           1       0.048       0.048     0.00
elaps:  optical           1       0.001       0.001     0.00
  
>> End of run:  23-APR-2016   6:18:09
