Siesta Version:                                        siesta-3.2-pl-3
Architecture  : x86_64-unknown-linux-gnu--unknown
Compiler flags: mpiifort -g -O2 -fPIC -xSSE4.1 -fp-model source -shared-intel 
PARALLEL version

* Running on   12 nodes in parallel
>> Start of run:   6-APR-2016  14:33:20

                           ***********************       
                           *  WELCOME TO SIESTA  *       
                           ***********************       

reinit: Reading from standard input
************************** Dump of input data file ****************************
#(1) General system descriptors
SystemName            GRP_doping    # Descriptive name of the system
SystemLabel           GRP_doping    # Short name for naming files
%include STRUCT.fdf
%include KPT.fdf
%include BASIS.fdf
#%include TS.fdf # for transiesta calculation
#(4) DFT, Grid, SCF
XC.functional         GGA           # LDA or GGA (default = LDA)
XC.authors            PBE           # CA (Ceperley-Aldr) = PZ
                                    #    (Perdew-Zunger) - LDA - Default
                                    # PW92 (Perdew-Wang-92) - LDA
                                    # PBE (Perdew-Burke-Ernzerhof) - GGA
MeshCutoff            200.000000    Ry      # Default: 50.0 Ry ~ 0.444 Bohr
                                    #         100.0 Ry ~ 0.314 Bohr
MaxSCFIterations      500           # Default: 50
DM.MixingWeight       0.05          # Default: 0.25
DM.NumberPulay        10            # Default: 0
DM.PulayOnFile        F             # SystemLabel.P1, SystemLabel.P2
DM.Tolerance          1.d-4         # Default: 1.d-4
DM.UseSaveDM          .true.        # because of the bug
SCFMustConverge       .true.
NeglNonOverlapInt     F             # Default: F
Diag.ParallelOverK    .true.
#(5) Eigenvalue problem: order-N or diagonalization
SolutionMethod        Diagon        # or Transiesta
ElectronicTemperature 300.0 K       # Default: 300.0 K
#(6) Molecular dynamics and relaxations
#MD.TypeOfRun          CG            # Type of dynamics:
#MD.VariableCell       F
#MD.NumCGsteps         0           # 0 for single-point / 100 for gopt
#MD.MaxCGDispl         0.2 Bohr      # Default: 0.2 Bohr
#MD.MaxForceTol        0.02 eV/Ang   # Default: 0.04 eV/Ang
#MD.MaxStressTol       1.0 GPa       # Default: 1.0 GPa
************************** End of input data file *****************************

reinit: -----------------------------------------------------------------------
reinit: System Name: GRP_doping
reinit: -----------------------------------------------------------------------
reinit: System Label: GRP_doping                                                  
reinit: -----------------------------------------------------------------------

initatom: Reading input for the pseudopotentials and atomic orbitals ----------
 Species number:            1  Label: N Atomic number:           7
 Species number:            2  Label: C Atomic number:           6
Ground state valence configuration:   2s02  2p03
Reading pseudopotential information in formatted form from N.psf

Valence configuration for pseudopotential generation:
2s( 2.00) rc: 1.48
2p( 3.00) rc: 1.48
3d( 0.00) rc: 1.48
4f( 0.00) rc: 1.48
Ground state valence configuration:   2s02  2p02
Reading pseudopotential information in formatted form from C.psf

Valence configuration for pseudopotential generation:
2s( 2.00) rc: 1.54
2p( 2.00) rc: 1.54
3d( 0.00) rc: 1.54
4f( 0.00) rc: 1.54
For N, standard SIESTA heuristics set lmxkb to 3
 (one more than the basis l, including polarization orbitals).
Use PS.lmax or PS.KBprojectors blocks to override.
For C, standard SIESTA heuristics set lmxkb to 3
 (one more than the basis l, including polarization orbitals).
Use PS.lmax or PS.KBprojectors blocks to override.

<basis_specs>
===============================================================================
N                    Z=   7    Mass=  14.010        Charge= 0.17977+309
Lmxo=1 Lmxkb= 3    BasisType=split      Semic=F
L=0  Nsemic=0  Cnfigmx=2
          n=1  nzeta=2  polorb=0
            splnorm:   0.15000    
               vcte:    0.0000    
               rinn:    0.0000    
                rcs:    0.0000      0.0000    
            lambdas:    1.0000      1.0000    
L=1  Nsemic=0  Cnfigmx=2
          n=1  nzeta=2  polorb=1
            splnorm:   0.15000    
               vcte:    0.0000    
               rinn:    0.0000    
                rcs:    0.0000      0.0000    
            lambdas:    1.0000      1.0000    
-------------------------------------------------------------------------------
L=0  Nkbl=1  erefs: 0.17977+309
L=1  Nkbl=1  erefs: 0.17977+309
L=2  Nkbl=1  erefs: 0.17977+309
L=3  Nkbl=1  erefs: 0.17977+309
===============================================================================
</basis_specs>

atom: Called for N                     (Z =   7)

read_vps: Pseudopotential generation method:
read_vps: ATM3      Troullier-Martins                       
Total valence charge:    5.00000

read_vps: Pseudopotential includes a core correction:
read_vps: Pseudo-core for xc-correction

xc_check: Exchange-correlation functional:
xc_check: GGA Perdew, Burke & Ernzerhof 1996
V l=0 = -2*Zval/r beyond r=  1.4606
V l=1 = -2*Zval/r beyond r=  1.4606
V l=2 = -2*Zval/r beyond r=  1.4606
V l=3 = -2*Zval/r beyond r=  1.4606
All V_l potentials equal beyond r=  1.4606
This should be close to max(r_c) in ps generation
All pots = -2*Zval/r beyond r=  1.4606

VLOCAL1: 99.0% of the norm of Vloc inside     20.347 Ry
VLOCAL1: 99.9% of the norm of Vloc inside     46.372 Ry
atom: Maximum radius for 4*pi*r*r*local-pseudopot. charge    1.76189
atom: Maximum radius for r*vlocal+2*Zval:    1.53550
GHOST: No ghost state for L =  0
GHOST: No ghost state for L =  1
GHOST: No ghost state for L =  2
GHOST: No ghost state for L =  3

KBgen: Kleinman-Bylander projectors: 
   l= 0   rc=  1.634559   el= -1.363963   Ekb=  5.296955   kbcos=  0.335621
   l= 1   rc=  1.614250   el= -0.521451   Ekb= -5.259161   kbcos= -0.433408
   l= 2   rc=  1.718383   el=  0.001991   Ekb= -1.271464   kbcos= -0.007566
   l= 3   rc=  1.761893   el=  0.003093   Ekb= -0.494769   kbcos= -0.001015

KBgen: Total number of  Kleinman-Bylander projectors:   16
atom: -------------------------------------------------------------------------

atom: SANKEY-TYPE ORBITALS:
atom: Selected multiple-zeta basis: split     

SPLIT: Orbitals with angular momentum L= 0

SPLIT: Basis orbitals for state 2s

SPLIT: PAO cut-off radius determined from an
SPLIT: energy shift=  0.007350 Ry

   izeta = 1
                 lambda =    1.000000
                     rc =    4.071465
                 energy =   -1.356470
                kinetic =    1.176977
    potential(screened) =   -2.533447
       potential(ionic) =   -8.057990

   izeta = 2
                 rmatch =    2.905100
              splitnorm =    0.150000
                 energy =   -1.158343
                kinetic =    1.813009
    potential(screened) =   -2.971352
       potential(ionic) =   -8.901931

SPLIT: Orbitals with angular momentum L= 1

SPLIT: Basis orbitals for state 2p

SPLIT: PAO cut-off radius determined from an
SPLIT: energy shift=  0.007350 Ry

   izeta = 1
                 lambda =    1.000000
                     rc =    4.972977
                 energy =   -0.513884
                kinetic =    3.441732
    potential(screened) =   -3.955616
       potential(ionic) =   -9.287901

   izeta = 2
                 rmatch =    3.054066
              splitnorm =    0.150000
                 energy =   -0.318226
                kinetic =    5.125348
    potential(screened) =   -5.443573
       potential(ionic) =  -11.380999

POLgen: Perturbative polarization orbital with L=  2

POLgen: Polarization orbital for state 2p

   izeta = 1
                     rc =    4.972977
                 energy =    1.607437
                kinetic =    3.268125
    potential(screened) =   -1.660688
       potential(ionic) =   -5.973652
atom: Total number of Sankey-type orbitals: 13

atm_pop: Valence configuration (for local Pseudopot. screening):
 2s( 2.00)                                                            
 2p( 3.00)                                                            
Vna: chval, zval:    5.00000   5.00000

Vna:  Cut-off radius for the neutral-atom potential:   4.972977
comcore: Pseudo-core radius Rcore=  1.554824

atom: _________________________________________________________________________

<basis_specs>
===============================================================================
C                    Z=   6    Mass=  12.010        Charge= 0.17977+309
Lmxo=1 Lmxkb= 3    BasisType=split      Semic=F
L=0  Nsemic=0  Cnfigmx=2
          n=1  nzeta=2  polorb=0
            splnorm:   0.15000    
               vcte:    0.0000    
               rinn:    0.0000    
                rcs:    0.0000      0.0000    
            lambdas:    1.0000      1.0000    
L=1  Nsemic=0  Cnfigmx=2
          n=1  nzeta=2  polorb=1
            splnorm:   0.15000    
               vcte:    0.0000    
               rinn:    0.0000    
                rcs:    0.0000      0.0000    
            lambdas:    1.0000      1.0000    
-------------------------------------------------------------------------------
L=0  Nkbl=1  erefs: 0.17977+309
L=1  Nkbl=1  erefs: 0.17977+309
L=2  Nkbl=1  erefs: 0.17977+309
L=3  Nkbl=1  erefs: 0.17977+309
===============================================================================
</basis_specs>

atom: Called for C                     (Z =   6)

read_vps: Pseudopotential generation method:
read_vps: ATM3      Troullier-Martins                       
Total valence charge:    4.00000

read_vps: Pseudopotential includes a core correction:
read_vps: Pseudo-core for xc-correction

xc_check: Exchange-correlation functional:
xc_check: GGA Perdew, Burke & Ernzerhof 1996
V l=0 = -2*Zval/r beyond r=  1.5227
V l=1 = -2*Zval/r beyond r=  1.5227
V l=2 = -2*Zval/r beyond r=  1.5227
V l=3 = -2*Zval/r beyond r=  1.5038
All V_l potentials equal beyond r=  1.5227
This should be close to max(r_c) in ps generation
All pots = -2*Zval/r beyond r=  1.5227

VLOCAL1: 99.0% of the norm of Vloc inside     18.722 Ry
VLOCAL1: 99.9% of the norm of Vloc inside     42.668 Ry
atom: Maximum radius for 4*pi*r*r*local-pseudopot. charge    1.83678
atom: Maximum radius for r*vlocal+2*Zval:    1.58088
GHOST: No ghost state for L =  0
GHOST: No ghost state for L =  1
GHOST: No ghost state for L =  2
GHOST: No ghost state for L =  3

KBgen: Kleinman-Bylander projectors: 
   l= 0   rc=  1.704034   el= -1.009801   Ekb=  5.335044   kbcos=  0.316824
   l= 1   rc=  1.704034   el= -0.388707   Ekb= -3.785862   kbcos= -0.366464
   l= 2   rc=  1.791422   el=  0.001971   Ekb= -0.970471   kbcos= -0.009212
   l= 3   rc=  1.859892   el=  0.003065   Ekb= -0.399525   kbcos= -0.001223

KBgen: Total number of  Kleinman-Bylander projectors:   16
atom: -------------------------------------------------------------------------

atom: SANKEY-TYPE ORBITALS:
atom: Selected multiple-zeta basis: split     

SPLIT: Orbitals with angular momentum L= 0

SPLIT: Basis orbitals for state 2s

SPLIT: PAO cut-off radius determined from an
SPLIT: energy shift=  0.007350 Ry

   izeta = 1
                 lambda =    1.000000
                     rc =    4.632753
                 energy =   -1.002270
                kinetic =    0.855760
    potential(screened) =   -1.858031
       potential(ionic) =   -5.417575

   izeta = 2
                 rmatch =    3.431921
              splitnorm =    0.150000
                 energy =   -0.867111
                kinetic =    1.300804
    potential(screened) =   -2.167915
       potential(ionic) =   -5.962684

SPLIT: Orbitals with angular momentum L= 1

SPLIT: Basis orbitals for state 2p

SPLIT: PAO cut-off radius determined from an
SPLIT: energy shift=  0.007350 Ry

   izeta = 1
                 lambda =    1.000000
                     rc =    5.658549
                 energy =   -0.381140
                kinetic =    2.399701
    potential(screened) =   -2.780841
       potential(ionic) =   -6.206085

   izeta = 2
                 rmatch =    3.653288
              splitnorm =    0.150000
                 energy =   -0.249149
                kinetic =    3.542762
    potential(screened) =   -3.791911
       potential(ionic) =   -7.581078

POLgen: Perturbative polarization orbital with L=  2

POLgen: Polarization orbital for state 2p

   izeta = 1
                     rc =    5.658549
                 energy =    1.109913
                kinetic =    2.304789
    potential(screened) =   -1.194876
       potential(ionic) =   -4.013592
atom: Total number of Sankey-type orbitals: 13

atm_pop: Valence configuration (for local Pseudopot. screening):
 2s( 2.00)                                                            
 2p( 2.00)                                                            
Vna: chval, zval:    4.00000   4.00000

Vna:  Cut-off radius for the neutral-atom potential:   5.658549
comcore: Pseudo-core radius Rcore=  1.791422

atom: _________________________________________________________________________

prinput: Basis input ----------------------------------------------------------

PAO.BasisType split     

%block ChemicalSpeciesLabel
    1    7 N                       # Species index, atomic number, species label
    2    6 C                       # Species index, atomic number, species label
%endblock ChemicalSpeciesLabel

%block PAO.Basis                 # Define Basis set
N                     2                    # Species label, number of l-shells
 n=2   0   2                         # n, l, Nzeta 
   4.071      2.905   
   1.000      1.000   
 n=2   1   2 P   1                   # n, l, Nzeta, Polarization, NzetaPol
   4.973      3.054   
   1.000      1.000   
C                     2                    # Species label, number of l-shells
 n=2   0   2                         # n, l, Nzeta 
   4.633      3.432   
   1.000      1.000   
 n=2   1   2 P   1                   # n, l, Nzeta, Polarization, NzetaPol
   5.659      3.653   
   1.000      1.000   
%endblock PAO.Basis

prinput: ----------------------------------------------------------------------

coor:   Atomic-coordinates input format  =     Cartesian coordinates
coor:                                          (in Angstroms)

siesta: Atomic coordinates (Bohr) and species
siesta:      2.23554   1.32097   0.00000  1        1
siesta:     11.54782   1.32097   0.00000  1        2
siesta:      4.56367   2.66461   0.00000  2        3
siesta:     32.50328  21.48508   0.00000  2        4
siesta:     34.83141  22.82873   0.00000  2        5
siesta:     34.83116  17.45226   0.00000  2        6
siesta:     37.15930  18.79590   0.00000  2        7
siesta:     32.50291  13.41944   0.00000  2        8
siesta:     34.83104  14.76308   0.00000  2        9
siesta:     30.17465   9.38661   0.00000  2       10
siesta:     32.50278  10.73026   0.00000  2       11
siesta:     27.84639   5.35379   0.00000  2       12
siesta:     30.17453   6.69743   0.00000  2       13
siesta:     27.84714  21.48508   0.00000  2       14
siesta:     30.17527  22.82873   0.00000  2       15
siesta:      6.89168   1.32097   0.00000  2       16
siesta:      9.21981   2.66461   0.00000  2       17
siesta:     13.87595   2.66461   0.00000  2       18
siesta:     16.20396   1.32097   0.00000  2       19
siesta:     18.53210   2.66461   0.00000  2       20
siesta:     20.86199   1.32097   0.00000  2       21
siesta:     23.19013   2.66461   0.00000  2       22
siesta:     25.51813   1.32097   0.00000  2       23
siesta:     27.84627   2.66461   0.00000  2       24
siesta:      4.56380   5.35379   0.00000  2       25
siesta:      6.89193   6.69743   0.00000  2       26
siesta:      9.21994   5.35379   0.00000  2       27
siesta:     11.54807   6.69743   0.00000  2       28
siesta:     13.87608   5.35379   0.00000  2       29
siesta:     16.20421   6.69743   0.00000  2       30
siesta:     18.53411   5.35379   0.00000  2       31
siesta:     20.86224   6.69743   0.00000  2       32
siesta:     23.19025   5.35379   0.00000  2       33
siesta:     25.51838   6.69743   0.00000  2       34
siesta:      6.89205   9.38661   0.00000  2       35
siesta:      9.22019  10.73026   0.00000  2       36
siesta:     11.54820   9.38661   0.00000  2       37
siesta:     13.87633  10.73026   0.00000  2       38
siesta:     16.20434   9.38661   0.00000  2       39
siesta:     18.53247  10.73026   0.00000  2       40
siesta:     20.86237   9.38661   0.00000  2       41
siesta:     23.19050  10.73026   0.00000  2       42
siesta:      9.22031  13.41944   0.00000  2       43
siesta:     11.54845  14.76308   0.00000  2       44
siesta:     13.87645  13.41944   0.00000  2       45
siesta:     16.20459  14.76308   0.00000  2       46
siesta:     18.53448  13.41944   0.00000  2       47
siesta:     20.86262  14.76308   0.00000  2       48
siesta:     11.54857  17.45226   0.00000  2       49
siesta:     13.87670  18.79590   0.00000  2       50
siesta:     16.20471  17.45226   0.00000  2       51
siesta:     18.53284  18.79590   0.00000  2       52
siesta:     13.87683  21.48508   0.00000  2       53
siesta:     16.20496  22.82873   0.00000  2       54
siesta:     18.53486  21.48508   0.00000  2       55
siesta:     20.86299  22.82873   0.00000  2       56
siesta:     25.51851   9.38661   0.00000  2       57
siesta:     27.84664  10.73026   0.00000  2       58
siesta:     23.19063  13.41944   0.00000  2       59
siesta:     25.51876  14.76308   0.00000  2       60
siesta:     20.86274  17.45226   0.00000  2       61
siesta:     23.19088  18.79590   0.00000  2       62
siesta:     27.84677  13.41944   0.00000  2       63
siesta:     30.17490  14.76308   0.00000  2       64
siesta:     25.51888  17.45226   0.00000  2       65
siesta:     27.84702  18.79590   0.00000  2       66
siesta:     23.19100  21.48508   0.00000  2       67
siesta:     25.51913  22.82873   0.00000  2       68
siesta:     30.17503  17.45226   0.00000  2       69
siesta:     32.50316  18.79590   0.00000  2       70
siesta:     37.16131  21.48508   0.00000  2       71
siesta:     39.48945  22.82873   0.00000  2       72

siesta: System type = slab      

initatomlists: Number of atoms, orbitals, and projectors:     72   936  1152

siesta: ******************** Simulation parameters ****************************
siesta:
siesta: The following are some of the parameters of the simulation.
siesta: A complete list of the parameters used, including default values,
siesta: can be found in file out.fdf
siesta:
redata: Non-Collinear-spin run           =     F
redata: SpinPolarized (Up/Down) run      =     F
redata: Number of spin components        =     1
redata: Long output                      =     F
redata: Number of Atomic Species         =        2
redata: Charge density info will appear in .RHO file
redata: Write Mulliken Pop.              =     NO
redata: Mesh Cutoff                      =   200.0000  Ry
redata: Net charge of the system         =     0.0000 |e|
redata: Max. number of SCF Iter          =      500
redata: SCF convergence failure will abort job
redata: Performing Pulay mixing using    =    10 iterations
redata: Mix DM in first SCF step ?       =     F
redata: Write Pulay info on disk?        =     F
redata: Discard 1st Pulay DM after  kick =     F
redata: New DM Mixing Weight             =     0.0500
redata: New DM Occupancy tolerance       = 0.000000000001
redata: No kicks to SCF
redata: DM Mixing Weight for Kicks       =     0.5000
redata: DM Tolerance for SCF             =     0.000100
redata: Require Energy convergence for SCF =     F
redata: DM Energy tolerance for SCF      =     0.000100 eV
redata: Require Harris convergence for SCF =     F
redata: DM Harris energy tolerance for SCF =     0.000100 eV
redata: Using Saved Data (generic)   =     F
redata: Use continuation files for DM    =     T
redata: Neglect nonoverlap interactions  =     F
redata: Method of Calculation            =     Diagonalization
redata: Divide and Conquer               =     T
redata: Electronic Temperature           =     0.0019  Ry
redata: Fix the spin of the system       =     F
redata: Dynamics option                  =     Verlet MD run
redata: Initial MD time step             =        1
redata:   Final MD time step             =        1
redata: Length of MD time step           =     1.0000  fs
redata: Initial Temperature of MD run    =     0.0000  K
redata: Perform a MD quench              =     F
redata: ***********************************************************************
Total number of electrons:   290.000000
Total ionic charge:   290.000000

* ProcessorY, Blocksize:    3  24

k-point displ. along   1 input, could be:     0.50    0.00
k-point displ. along   2 input, could be:     0.50    0.00
 Kpoints in:          231 . Kpoints trimmed:          231

siesta: k-grid: Number of k-points =   231
siesta: k-grid: Cutoff (effective) =     5.000 Ang
siesta: k-grid: Supercell and displacements
siesta: k-grid:   21   0   0      0.500
siesta: k-grid:    0  21   0      0.500
siesta: k-grid:    0   0   1      0.000
Naive supercell factors:     2    2    2

superc: Internal auxiliary supercell:     2 x     2 x     2  =       8
superc: Number of atoms, orbitals, and projectors:    576   7488   9216

* Maximum dynamic memory allocated =     4 MB

siesta:                 ==============================
                            Begin MD step =      1
                        ==============================

superc: Internal auxiliary supercell:     2 x     2 x     2  =       8
superc: Number of atoms, orbitals, and projectors:    576   7488   9216

outcell: Unit cell vectors (Ang):
       14.785000    0.000000    0.000000
        7.393000   12.805052    0.000000
        0.000000    0.000000   10.000000

outcell: Cell vector modules (Ang)   :   14.785000   14.786000   10.000000
outcell: Cell angles (23,13,12) (deg):     90.0000     90.0000     60.0000
outcell: Cell volume (Ang**3)        :   1893.2269
New_DM. Step:     1
Initializing Density Matrix...

iodm: Reading Density Matrix from files

InitMesh: MESH =   120 x   120 x    90 =     1296000
InitMesh: Mesh cutoff (required, used) =   200.000   223.865 Ry

* Maximum dynamic memory allocated =   137 MB

stepf: Fermi-Dirac step function

siesta: Program's energy decomposition (eV):
siesta: Ebs     =     -3990.751735
siesta: Eions   =     18724.504759
siesta: Ena     =      3995.658420
siesta: Ekin    =      7998.562609
siesta: Enl     =      -852.043043
siesta: DEna    =      -277.814182
siesta: DUscf   =        24.473156
siesta: DUext   =         0.000000
siesta: Exc     =     -4086.003594
siesta: eta*DQ  =         0.000000
siesta: Emadel  =         0.000000
siesta: Emeta   =         0.000000
siesta: Emolmec =         0.000000
siesta: Ekinion =         0.000000
siesta: Eharris =    -11921.667938
siesta: Etot    =    -11921.671393
siesta: FreeEng =    -11921.671393

siesta: iscf   Eharris(eV)      E_KS(eV)   FreeEng(eV)   dDmax  Ef(eV)
siesta:    1   -11921.6679   -11921.6714   -11921.6714  0.0000 -3.8149
timer: Routine,Calls,Time,% = IterSCF        1    1175.618  98.96
elaps: Routine,Calls,Wall,% = IterSCF        1      98.207  98.95

siesta: E_KS(eV) =           -11921.6679

siesta: E_KS - E_eggbox =    -11921.6679

siesta: Atomic forces (eV/Ang):
----------------------------------------
   Tot    0.190073   -0.320373    0.000000
----------------------------------------
   Max    0.649187
   Res    0.178394    sqrt( Sum f_i^2 / 3N )
----------------------------------------
   Max    0.649187    constrained

Stress-tensor-Voigt (kbar):      -28.14      -27.52        0.04       -0.33        0.00        0.00
(Free)E + p*V (eV/cell)   -11899.7785
Target enthalpy (eV/cell)   -11921.6874

siesta: Stress tensor (static) (eV/Ang**3):
        -0.017566   -0.000205    0.000000
        -0.000205   -0.017177    0.000000
         0.000000    0.000000    0.000026

siesta: Pressure (static):         18.54106002  kBar

siesta: Stress tensor (total) (eV/Ang**3):
        -0.017566   -0.000205    0.000000
        -0.000205   -0.017177    0.000000
         0.000000    0.000000    0.000026

siesta: Pressure (total):         18.54106002  kBar

siesta: Temp_ion =       0.000 K

* Maximum dynamic memory allocated =   231 MB

siesta: Program's energy decomposition (eV):
siesta: Ebs     =     -3990.751735
siesta: Eions   =     18724.504759
siesta: Ena     =      3995.658420
siesta: Ekin    =      7998.570719
siesta: Enl     =      -852.043991
siesta: DEna    =      -277.817026
siesta: DUscf   =        24.473117
siesta: DUext   =         0.000000
siesta: Exc     =     -4086.004417
siesta: eta*DQ  =         0.000000
siesta: Emadel  =         0.000000
siesta: Emeta   =         0.000000
siesta: Emolmec =         0.000000
siesta: Ekinion =         0.000000
siesta: Eharris =    -11921.667938
siesta: Etot    =    -11921.667938
siesta: FreeEng =    -11921.687447

siesta: Final energy (eV):
siesta:  Band Struct. =   -3990.751735
siesta:       Kinetic =    7998.570719
siesta:       Hartree =   23484.218867
siesta:    Ext. field =       0.000000
siesta:   Exch.-corr. =   -4086.004417
siesta:  Ion-electron =  -54359.877179
siesta:       Ion-ion =   15041.424072
siesta:       Ekinion =       0.000000
siesta:         Total =  -11921.667938

siesta: Atomic forces (eV/Ang):
siesta:      1   -0.017224   -0.064955    0.000000
siesta:      2    0.011821   -0.065316    0.000000
siesta:      3   -0.491070   -0.132374    0.000000
siesta:      4   -0.204374    0.152955    0.000000
siesta:      5    0.035985    0.194953    0.000000
siesta:      6    0.007377    0.077451    0.000000
siesta:      7    0.036228   -0.154923    0.000000
siesta:      8    0.045912   -0.017463    0.000000
siesta:      9    0.013561   -0.074698    0.000000
siesta:     10    0.027598   -0.289006    0.000000
siesta:     11    0.101268    0.007968    0.000000
siesta:     12    0.318684   -0.377467    0.000000
siesta:     13   -0.004105    0.343232    0.000000
siesta:     14   -0.260258    0.468139    0.000000
siesta:     15    0.321045   -0.053776    0.000000
siesta:     16    0.010610   -0.127743    0.000000
siesta:     17    0.487676   -0.130008    0.000000
siesta:     18   -0.605533   -0.257606    0.000000
siesta:     19   -0.405189   -0.213831    0.000000
siesta:     20   -0.028983    0.242585    0.000000
siesta:     21   -0.029524   -0.242178    0.000000
siesta:     22    0.061431    0.245989    0.000000
siesta:     23    0.430544   -0.215782    0.000000
siesta:     24    0.615412   -0.255567    0.000000
siesta:     25   -0.315311   -0.365653    0.000000
siesta:     26   -0.002985   -0.318620    0.000000
siesta:     27    0.315572   -0.368147    0.000000
siesta:     28    0.015498    0.349934    0.000000
siesta:     29   -0.298890   -0.379559    0.000000
siesta:     30    0.195261   -0.171364    0.000000
siesta:     31   -0.057599   -0.011699    0.000000
siesta:     32   -0.003588    0.052491    0.000000
siesta:     33    0.031352   -0.020533    0.000000
siesta:     34   -0.168209   -0.161973    0.000000
siesta:     35   -0.007137    0.087465    0.000000
siesta:     36   -0.092225    0.014845    0.000000
siesta:     37   -0.011825   -0.288611    0.000000
siesta:     38    0.116364    0.061039    0.000000
siesta:     39   -0.061775    0.034791    0.000000
siesta:     40    0.040386   -0.053357    0.000000
siesta:     41   -0.023043   -0.026351    0.000000
siesta:     42   -0.006818   -0.045883    0.000000
siesta:     43   -0.044872   -0.010467    0.000000
siesta:     44    0.029019    0.001256    0.000000
siesta:     45   -0.002583   -0.057218    0.000000
siesta:     46    0.096974   -0.089302    0.000000
siesta:     47   -0.102773    0.048206    0.000000
siesta:     48   -0.003346    0.012921    0.000000
siesta:     49   -0.086870    0.059995    0.000000
siesta:     50    0.198554   -0.076734    0.000000
siesta:     51    0.045227    0.063353    0.000000
siesta:     52   -0.189338   -0.181846    0.000000
siesta:     53    0.293686    0.464732    0.000000
siesta:     54   -0.135389    0.642990    0.000000
siesta:     55    0.117485    0.596836    0.000000
siesta:     56   -0.009673   -0.392967    0.000000
siesta:     57    0.077282    0.034345    0.000000
siesta:     58   -0.119439    0.061257    0.000000
siesta:     59    0.075909    0.040787    0.000000
siesta:     60   -0.070420   -0.081647    0.000000
siesta:     61   -0.023296    0.083852    0.000000
siesta:     62    0.221809   -0.173999    0.000000
siesta:     63    0.020940   -0.056036    0.000000
siesta:     64   -0.033941   -0.000554    0.000000
siesta:     65   -0.029387    0.062938    0.000000
siesta:     66   -0.204269   -0.076646    0.000000
siesta:     67   -0.142476    0.593043    0.000000
siesta:     68    0.166301    0.649187    0.000000
siesta:     69    0.087719    0.057650    0.000000
siesta:     70   -0.014437   -0.153300    0.000000
siesta:     71    0.179396    0.157566    0.000000
siesta:     72   -0.351638   -0.049965    0.000000
siesta: ----------------------------------------
siesta:    Tot    0.190073   -0.320373    0.000000

siesta: Stress tensor (static) (eV/Ang**3):
siesta:    -0.017566   -0.000205    0.000000
siesta:    -0.000205   -0.017177    0.000000
siesta:     0.000000    0.000000    0.000026

siesta: Cell volume =       1893.226895 Ang**3

siesta: Pressure (static):
siesta:                Solid            Molecule  Units
siesta:           0.00012604          0.00005630  Ry/Bohr**3
siesta:           0.01157229          0.00516956  eV/Ang**3
siesta:          18.54106002          8.28263870  kBar
(Free)E+ p_basis*V_orbitals  =      -11891.235755
(Free)Eharris+ p_basis*V_orbitals  =      -11891.232300

siesta: Electric dipole (a.u.)  =    0.000000    0.000000    0.000000
siesta: Electric dipole (Debye) =    0.000000    0.000000    0.000000

* Maximum dynamic memory allocated : Node    0 =   231 MB
* Maximum dynamic memory allocated : Node    1 =   145 MB
* Maximum dynamic memory allocated : Node    2 =   147 MB
* Maximum dynamic memory allocated : Node    3 =   221 MB
* Maximum dynamic memory allocated : Node    4 =   229 MB
* Maximum dynamic memory allocated : Node    5 =   141 MB
* Maximum dynamic memory allocated : Node    6 =   143 MB
* Maximum dynamic memory allocated : Node    7 =   222 MB
* Maximum dynamic memory allocated : Node    8 =   228 MB
* Maximum dynamic memory allocated : Node    9 =   141 MB
* Maximum dynamic memory allocated : Node   10 =   143 MB
* Maximum dynamic memory allocated : Node   11 =   222 MB

* Maximum memory occured during cdiag                         

timer: CPU execution times:
timer:  Routine       Calls   Time/call    Tot.time        %
timer:  siesta            1    1306.918    1306.918   100.00
timer:  Setup             1       3.339       3.339     0.26
timer:  bands             1       0.012       0.012     0.00
timer:  writewave         1       0.024       0.024     0.00
timer:  KSV_init          1       0.004       0.004     0.00
timer:  IterMD            1    1297.208    1297.208    99.26
timer:  hsparse           1       0.179       0.179     0.01
timer:  overlap           1       4.802       4.802     0.37
timer:  IterSCF           1    1175.618    1175.618    89.95
timer:  kinefsm           2       2.439       4.877     0.37
timer:  nlefsm            2      18.869      37.738     2.89
timer:  DHSCF             2      83.401     166.803    12.76
timer:  DHSCF1            1       0.900       0.900     0.07
timer:  DHSCF2            1      24.198      24.198     1.85
timer:  REORD            18       0.003       0.051     0.00
timer:  POISON            3       0.477       1.432     0.11
timer:  DHSCF3            2      59.864     119.728     9.16
timer:  rhoofd            2      12.013      24.026     1.84
timer:  cellXC            2       2.441       4.882     0.37
timer:  vmat              2      30.307      60.615     4.64
timer:  MolMec            2       0.000       0.000     0.00
timer:  diagon            1    1051.327    1051.327    80.44
timer:  cdiag            40      17.839     686.628    52.54
timer:  cdiag1           40       0.871      33.526     2.57
timer:  cdiag2           40       3.010     115.858     8.86
timer:  cdiag3           40      13.754     529.399    40.51
timer:  cdiag4           40       0.200       7.703     0.59
timer:  DHSCF4            1      21.929      21.929     1.68
timer:  dfscf             1      20.477      20.477     1.57
timer:  overfsm           1       0.268       0.268     0.02
timer:  optical           1       5.833       5.833     0.45
  

elaps: ELAPSED times:
elaps:  Routine       Calls   Time/call    Tot.time        %
elaps:  siesta            1     109.175     109.175   100.00
elaps:  Setup             1       0.279       0.279     0.26
elaps:  bands             1       0.001       0.001     0.00
elaps:  writewave         1       0.002       0.002     0.00
elaps:  KSV_init          1       0.000       0.000     0.00
elaps:  IterMD            1     108.364     108.364    99.26
elaps:  hsparse           1       0.017       0.017     0.02
elaps:  overlap           1       0.708       0.708     0.65
elaps:  IterSCF           1      98.207      98.207    89.95
elaps:  kinefsm           2       0.360       0.720     0.66
elaps:  nlefsm            2       1.713       3.425     3.14
elaps:  DHSCF             2       7.713      15.426    14.13
elaps:  DHSCF1            1       0.077       0.077     0.07
elaps:  DHSCF2            1       2.020       2.020     1.85
elaps:  REORD            18       0.000       0.005     0.00
elaps:  POISON            3       0.040       0.121     0.11
elaps:  DHSCF3            2       5.000      10.000     9.16
elaps:  rhoofd            2       1.762       3.525     3.23
elaps:  cellXC            2       0.204       0.407     0.37
elaps:  vmat              2       2.532       5.063     4.64
elaps:  MolMec            2       0.000       0.000     0.00
elaps:  diagon            1      87.825      87.825    80.44
elaps:  cdiag            40       1.466      58.638    53.71
elaps:  cdiag1           40       0.071       2.823     2.59
elaps:  cdiag2           40       0.246       9.825     9.00
elaps:  cdiag3           40       1.132      45.266    41.46
elaps:  cdiag4           40       0.018       0.715     0.66
elaps:  DHSCF4            1       3.325       3.325     3.05
elaps:  dfscf             1       3.136       3.136     2.87
elaps:  overfsm           1       0.027       0.027     0.02
elaps:  optical           1       0.000       0.000     0.00
  
>> End of run:   6-APR-2016  14:35:10
