Siesta Version:                                        siesta-3.2-pl-3
Architecture  : x86_64-unknown-linux-gnu--unknown
Compiler flags: mpiifort -g -O2 -fPIC -xSSE4.1 -fp-model source -shared-intel 
PARALLEL version

* Running on    8 nodes in parallel
>> Start of run:  15-APR-2016   9:33:37

                           ***********************       
                           *  WELCOME TO SIESTA  *       
                           ***********************       

reinit: Reading from standard input
************************** Dump of input data file ****************************
#(1) General system descriptors
SystemName            GRP_doping    # Descriptive name of the system
SystemLabel           GRP_doping    # Short name for naming files
%include STRUCT.fdf
%include KPT.fdf
%include BASIS.fdf
#%include TS.fdf # for transiesta calculation
#(4) DFT, Grid, SCF
XC.functional         GGA           # LDA or GGA (default = LDA)
XC.authors            PBE           # CA (Ceperley-Aldr) = PZ
                                    #    (Perdew-Zunger) - LDA - Default
                                    # PW92 (Perdew-Wang-92) - LDA
                                    # PBE (Perdew-Burke-Ernzerhof) - GGA
MeshCutoff            200.000000    Ry      # Default: 50.0 Ry ~ 0.444 Bohr
                                    #         100.0 Ry ~ 0.314 Bohr
MaxSCFIterations      500           # Default: 50
DM.MixingWeight       0.05          # Default: 0.25
DM.NumberPulay        10            # Default: 0
DM.PulayOnFile        F             # SystemLabel.P1, SystemLabel.P2
DM.Tolerance          1.d-4         # Default: 1.d-4
DM.UseSaveDM          .true.        # because of the bug
SCFMustConverge       .true.
NeglNonOverlapInt     F             # Default: F
#(5) Eigenvalue problem: order-N or diagonalization
SolutionMethod        Diagon        # or Transiesta
ElectronicTemperature 300.0 K       # Default: 300.0 K
#(6) Molecular dynamics and relaxations
#MD.TypeOfRun          CG            # Type of dynamics:
#MD.VariableCell       F
#MD.NumCGsteps         0           # 0 for single-point / 100 for gopt
#MD.MaxCGDispl         0.2 Bohr      # Default: 0.2 Bohr
#MD.MaxForceTol        0.02 eV/Ang   # Default: 0.04 eV/Ang
#MD.MaxStressTol       1.0 GPa       # Default: 1.0 GPa
# Geometry Constraints
#%block GeometryConstraints
#	position from 1 to 44
#%endblock GeometryConstraints
BandLinesScale   pi/a
%block BandLines
 1   0.00000000  0.00000000  0.00000000
50   0.00000000  0.07809418  0.00000000
50   0.04509075  0.07809242  0.00000000
20   0.00000000  0.00000000  0.00000000
%endblock BandLines
************************** End of input data file *****************************

reinit: -----------------------------------------------------------------------
reinit: System Name: GRP_doping
reinit: -----------------------------------------------------------------------
reinit: System Label: GRP_doping                                                  
reinit: -----------------------------------------------------------------------

initatom: Reading input for the pseudopotentials and atomic orbitals ----------
 Species number:            1  Label: N Atomic number:           7
 Species number:            2  Label: C Atomic number:           6
Ground state valence configuration:   2s02  2p03
Reading pseudopotential information in formatted form from N.psf

Valence configuration for pseudopotential generation:
2s( 2.00) rc: 1.48
2p( 3.00) rc: 1.48
3d( 0.00) rc: 1.48
4f( 0.00) rc: 1.48
Ground state valence configuration:   2s02  2p02
Reading pseudopotential information in formatted form from C.psf

Valence configuration for pseudopotential generation:
2s( 2.00) rc: 1.54
2p( 2.00) rc: 1.54
3d( 0.00) rc: 1.54
4f( 0.00) rc: 1.54
For N, standard SIESTA heuristics set lmxkb to 3
 (one more than the basis l, including polarization orbitals).
Use PS.lmax or PS.KBprojectors blocks to override.
For C, standard SIESTA heuristics set lmxkb to 3
 (one more than the basis l, including polarization orbitals).
Use PS.lmax or PS.KBprojectors blocks to override.

<basis_specs>
===============================================================================
N                    Z=   7    Mass=  14.010        Charge= 0.17977+309
Lmxo=1 Lmxkb= 3    BasisType=split      Semic=F
L=0  Nsemic=0  Cnfigmx=2
          n=1  nzeta=2  polorb=0
            splnorm:   0.15000    
               vcte:    0.0000    
               rinn:    0.0000    
                rcs:    0.0000      0.0000    
            lambdas:    1.0000      1.0000    
L=1  Nsemic=0  Cnfigmx=2
          n=1  nzeta=2  polorb=1
            splnorm:   0.15000    
               vcte:    0.0000    
               rinn:    0.0000    
                rcs:    0.0000      0.0000    
            lambdas:    1.0000      1.0000    
-------------------------------------------------------------------------------
L=0  Nkbl=1  erefs: 0.17977+309
L=1  Nkbl=1  erefs: 0.17977+309
L=2  Nkbl=1  erefs: 0.17977+309
L=3  Nkbl=1  erefs: 0.17977+309
===============================================================================
</basis_specs>

atom: Called for N                     (Z =   7)

read_vps: Pseudopotential generation method:
read_vps: ATM3      Troullier-Martins                       
Total valence charge:    5.00000

read_vps: Pseudopotential includes a core correction:
read_vps: Pseudo-core for xc-correction

xc_check: Exchange-correlation functional:
xc_check: GGA Perdew, Burke & Ernzerhof 1996
V l=0 = -2*Zval/r beyond r=  1.4606
V l=1 = -2*Zval/r beyond r=  1.4606
V l=2 = -2*Zval/r beyond r=  1.4606
V l=3 = -2*Zval/r beyond r=  1.4606
All V_l potentials equal beyond r=  1.4606
This should be close to max(r_c) in ps generation
All pots = -2*Zval/r beyond r=  1.4606

VLOCAL1: 99.0% of the norm of Vloc inside     20.347 Ry
VLOCAL1: 99.9% of the norm of Vloc inside     46.372 Ry
atom: Maximum radius for 4*pi*r*r*local-pseudopot. charge    1.76189
atom: Maximum radius for r*vlocal+2*Zval:    1.53550
GHOST: No ghost state for L =  0
GHOST: No ghost state for L =  1
GHOST: No ghost state for L =  2
GHOST: No ghost state for L =  3

KBgen: Kleinman-Bylander projectors: 
   l= 0   rc=  1.634559   el= -1.363963   Ekb=  5.296955   kbcos=  0.335621
   l= 1   rc=  1.614250   el= -0.521451   Ekb= -5.259161   kbcos= -0.433408
   l= 2   rc=  1.718383   el=  0.001991   Ekb= -1.271464   kbcos= -0.007566
   l= 3   rc=  1.761893   el=  0.003093   Ekb= -0.494769   kbcos= -0.001015

KBgen: Total number of  Kleinman-Bylander projectors:   16
atom: -------------------------------------------------------------------------

atom: SANKEY-TYPE ORBITALS:
atom: Selected multiple-zeta basis: split     

SPLIT: Orbitals with angular momentum L= 0

SPLIT: Basis orbitals for state 2s

SPLIT: PAO cut-off radius determined from an
SPLIT: energy shift=  0.007350 Ry

   izeta = 1
                 lambda =    1.000000
                     rc =    4.071465
                 energy =   -1.356470
                kinetic =    1.176977
    potential(screened) =   -2.533447
       potential(ionic) =   -8.057990

   izeta = 2
                 rmatch =    2.905100
              splitnorm =    0.150000
                 energy =   -1.158343
                kinetic =    1.813009
    potential(screened) =   -2.971352
       potential(ionic) =   -8.901931

SPLIT: Orbitals with angular momentum L= 1

SPLIT: Basis orbitals for state 2p

SPLIT: PAO cut-off radius determined from an
SPLIT: energy shift=  0.007350 Ry

   izeta = 1
                 lambda =    1.000000
                     rc =    4.972977
                 energy =   -0.513884
                kinetic =    3.441732
    potential(screened) =   -3.955616
       potential(ionic) =   -9.287901

   izeta = 2
                 rmatch =    3.054066
              splitnorm =    0.150000
                 energy =   -0.318226
                kinetic =    5.125348
    potential(screened) =   -5.443573
       potential(ionic) =  -11.380999

POLgen: Perturbative polarization orbital with L=  2

POLgen: Polarization orbital for state 2p

   izeta = 1
                     rc =    4.972977
                 energy =    1.607437
                kinetic =    3.268125
    potential(screened) =   -1.660688
       potential(ionic) =   -5.973652
atom: Total number of Sankey-type orbitals: 13

atm_pop: Valence configuration (for local Pseudopot. screening):
 2s( 2.00)                                                            
 2p( 3.00)                                                            
Vna: chval, zval:    5.00000   5.00000

Vna:  Cut-off radius for the neutral-atom potential:   4.972977
comcore: Pseudo-core radius Rcore=  1.554824

atom: _________________________________________________________________________

<basis_specs>
===============================================================================
C                    Z=   6    Mass=  12.010        Charge= 0.17977+309
Lmxo=1 Lmxkb= 3    BasisType=split      Semic=F
L=0  Nsemic=0  Cnfigmx=2
          n=1  nzeta=2  polorb=0
            splnorm:   0.15000    
               vcte:    0.0000    
               rinn:    0.0000    
                rcs:    0.0000      0.0000    
            lambdas:    1.0000      1.0000    
L=1  Nsemic=0  Cnfigmx=2
          n=1  nzeta=2  polorb=1
            splnorm:   0.15000    
               vcte:    0.0000    
               rinn:    0.0000    
                rcs:    0.0000      0.0000    
            lambdas:    1.0000      1.0000    
-------------------------------------------------------------------------------
L=0  Nkbl=1  erefs: 0.17977+309
L=1  Nkbl=1  erefs: 0.17977+309
L=2  Nkbl=1  erefs: 0.17977+309
L=3  Nkbl=1  erefs: 0.17977+309
===============================================================================
</basis_specs>

atom: Called for C                     (Z =   6)

read_vps: Pseudopotential generation method:
read_vps: ATM3      Troullier-Martins                       
Total valence charge:    4.00000

read_vps: Pseudopotential includes a core correction:
read_vps: Pseudo-core for xc-correction

xc_check: Exchange-correlation functional:
xc_check: GGA Perdew, Burke & Ernzerhof 1996
V l=0 = -2*Zval/r beyond r=  1.5227
V l=1 = -2*Zval/r beyond r=  1.5227
V l=2 = -2*Zval/r beyond r=  1.5227
V l=3 = -2*Zval/r beyond r=  1.5038
All V_l potentials equal beyond r=  1.5227
This should be close to max(r_c) in ps generation
All pots = -2*Zval/r beyond r=  1.5227

VLOCAL1: 99.0% of the norm of Vloc inside     18.722 Ry
VLOCAL1: 99.9% of the norm of Vloc inside     42.668 Ry
atom: Maximum radius for 4*pi*r*r*local-pseudopot. charge    1.83678
atom: Maximum radius for r*vlocal+2*Zval:    1.58088
GHOST: No ghost state for L =  0
GHOST: No ghost state for L =  1
GHOST: No ghost state for L =  2
GHOST: No ghost state for L =  3

KBgen: Kleinman-Bylander projectors: 
   l= 0   rc=  1.704034   el= -1.009801   Ekb=  5.335044   kbcos=  0.316824
   l= 1   rc=  1.704034   el= -0.388707   Ekb= -3.785862   kbcos= -0.366464
   l= 2   rc=  1.791422   el=  0.001971   Ekb= -0.970471   kbcos= -0.009212
   l= 3   rc=  1.859892   el=  0.003065   Ekb= -0.399525   kbcos= -0.001223

KBgen: Total number of  Kleinman-Bylander projectors:   16
atom: -------------------------------------------------------------------------

atom: SANKEY-TYPE ORBITALS:
atom: Selected multiple-zeta basis: split     

SPLIT: Orbitals with angular momentum L= 0

SPLIT: Basis orbitals for state 2s

SPLIT: PAO cut-off radius determined from an
SPLIT: energy shift=  0.007350 Ry

   izeta = 1
                 lambda =    1.000000
                     rc =    4.632753
                 energy =   -1.002270
                kinetic =    0.855760
    potential(screened) =   -1.858031
       potential(ionic) =   -5.417575

   izeta = 2
                 rmatch =    3.431921
              splitnorm =    0.150000
                 energy =   -0.867111
                kinetic =    1.300804
    potential(screened) =   -2.167915
       potential(ionic) =   -5.962684

SPLIT: Orbitals with angular momentum L= 1

SPLIT: Basis orbitals for state 2p

SPLIT: PAO cut-off radius determined from an
SPLIT: energy shift=  0.007350 Ry

   izeta = 1
                 lambda =    1.000000
                     rc =    5.658549
                 energy =   -0.381140
                kinetic =    2.399701
    potential(screened) =   -2.780841
       potential(ionic) =   -6.206085

   izeta = 2
                 rmatch =    3.653288
              splitnorm =    0.150000
                 energy =   -0.249149
                kinetic =    3.542762
    potential(screened) =   -3.791911
       potential(ionic) =   -7.581078

POLgen: Perturbative polarization orbital with L=  2

POLgen: Polarization orbital for state 2p

   izeta = 1
                     rc =    5.658549
                 energy =    1.109913
                kinetic =    2.304789
    potential(screened) =   -1.194876
       potential(ionic) =   -4.013592
atom: Total number of Sankey-type orbitals: 13

atm_pop: Valence configuration (for local Pseudopot. screening):
 2s( 2.00)                                                            
 2p( 2.00)                                                            
Vna: chval, zval:    4.00000   4.00000

Vna:  Cut-off radius for the neutral-atom potential:   5.658549
comcore: Pseudo-core radius Rcore=  1.791422

atom: _________________________________________________________________________

prinput: Basis input ----------------------------------------------------------

PAO.BasisType split     

%block ChemicalSpeciesLabel
    1    7 N                       # Species index, atomic number, species label
    2    6 C                       # Species index, atomic number, species label
%endblock ChemicalSpeciesLabel

%block PAO.Basis                 # Define Basis set
N                     2                    # Species label, number of l-shells
 n=2   0   2                         # n, l, Nzeta 
   4.071      2.905   
   1.000      1.000   
 n=2   1   2 P   1                   # n, l, Nzeta, Polarization, NzetaPol
   4.973      3.054   
   1.000      1.000   
C                     2                    # Species label, number of l-shells
 n=2   0   2                         # n, l, Nzeta 
   4.633      3.432   
   1.000      1.000   
 n=2   1   2 P   1                   # n, l, Nzeta, Polarization, NzetaPol
   5.659      3.653   
   1.000      1.000   
%endblock PAO.Basis

prinput: ----------------------------------------------------------------------

coor:   Atomic-coordinates input format  =     Fractional

siesta: Atomic coordinates (Bohr) and species
siesta:     -0.02582  18.72698   0.00000  1        1
siesta:     -0.02582  21.41544   0.00000  1        2
siesta:      2.30256  22.75985   0.00000  1        3
siesta:      2.30256  25.44831   0.00000  1        4
siesta:     -2.35420  22.75985   0.00000  1        5
siesta:     -2.35420  25.44831   0.00000  1        6
siesta:     -0.02582  26.79272   0.00000  1        7
siesta:     -0.02582   2.59549   0.00000  2        8
siesta:     -0.02582   5.28395   0.00000  2        9
siesta:     -2.35420  38.89134   0.00000  2       10
siesta:     -2.35420  41.57980   0.00000  2       11
siesta:      2.30256  38.89134   0.00000  2       12
siesta:      2.30256  41.57980   0.00000  2       13
siesta:      4.63094  34.85847   0.00000  2       14
siesta:      4.63094  37.54693   0.00000  2       15
siesta:      6.95932  30.82560   0.00000  2       16
siesta:      6.95932  33.51406   0.00000  2       17
siesta:      9.28770  26.79272   0.00000  2       18
siesta:      9.28770  29.48119   0.00000  2       19
siesta:     -4.68258  34.85847   0.00000  2       20
siesta:     -4.68258  37.54693   0.00000  2       21
siesta:      2.30256   6.62836   0.00000  2       22
siesta:      2.30256   9.31683   0.00000  2       23
siesta:      4.63094  10.66124   0.00000  2       24
siesta:      4.63094  13.34970   0.00000  2       25
siesta:      6.95932  14.69411   0.00000  2       26
siesta:      6.95932  17.38257   0.00000  2       27
siesta:      9.28770  18.72698   0.00000  2       28
siesta:      9.28770  21.41544   0.00000  2       29
siesta:     11.61608  22.75985   0.00000  2       30
siesta:     11.61608  25.44831   0.00000  2       31
siesta:     -2.35420   6.62836   0.00000  2       32
siesta:     -2.35420   9.31683   0.00000  2       33
siesta:     -0.02582  10.66124   0.00000  2       34
siesta:     -0.02582  13.34970   0.00000  2       35
siesta:      2.30256  14.69411   0.00000  2       36
siesta:      2.30256  17.38257   0.00000  2       37
siesta:      4.63094  18.72698   0.00000  2       38
siesta:      4.63094  21.41544   0.00000  2       39
siesta:      6.95932  22.75985   0.00000  2       40
siesta:      6.95932  25.44831   0.00000  2       41
siesta:     -4.68258  10.66124   0.00000  2       42
siesta:     -4.68258  13.34970   0.00000  2       43
siesta:     -2.35420  14.69411   0.00000  2       44
siesta:     -2.35420  17.38257   0.00000  2       45
siesta:     -7.01096  14.69411   0.00000  2       46
siesta:     -7.01096  17.38257   0.00000  2       47
siesta:     -4.68258  18.72698   0.00000  2       48
siesta:     -4.68258  21.41544   0.00000  2       49
siesta:     -9.33934  18.72698   0.00000  2       50
siesta:     -9.33934  21.41544   0.00000  2       51
siesta:     -7.01096  22.75985   0.00000  2       52
siesta:     -7.01096  25.44831   0.00000  2       53
siesta:    -11.66772  22.75985   0.00000  2       54
siesta:    -11.66772  25.44831   0.00000  2       55
siesta:     -9.33934  26.79272   0.00000  2       56
siesta:     -9.33934  29.48119   0.00000  2       57
siesta:      4.63094  26.79272   0.00000  2       58
siesta:      4.63094  29.48119   0.00000  2       59
siesta:     -0.02582  29.48119   0.00000  2       60
siesta:     -4.68258  26.79272   0.00000  2       61
siesta:     -4.68258  29.48119   0.00000  2       62
siesta:      2.30256  30.82560   0.00000  2       63
siesta:      2.30256  33.51406   0.00000  2       64
siesta:     -2.35420  30.82560   0.00000  2       65
siesta:     -2.35420  33.51406   0.00000  2       66
siesta:     -7.01096  30.82560   0.00000  2       67
siesta:     -7.01096  33.51406   0.00000  2       68
siesta:     -0.02582  34.85847   0.00000  2       69
siesta:     -0.02582  37.54693   0.00000  2       70
siesta:     -0.02582  42.92421   0.00000  2       71
siesta:     -0.02582  45.61267   0.00000  2       72

siesta: System type = slab      

initatomlists: Number of atoms, orbitals, and projectors:     72   936  1152

siesta: ******************** Simulation parameters ****************************
siesta:
siesta: The following are some of the parameters of the simulation.
siesta: A complete list of the parameters used, including default values,
siesta: can be found in file out.fdf
siesta:
redata: Non-Collinear-spin run           =     F
redata: SpinPolarized (Up/Down) run      =     F
redata: Number of spin components        =     1
redata: Long output                      =     F
redata: Number of Atomic Species         =        2
redata: Charge density info will appear in .RHO file
redata: Write Mulliken Pop.              =     NO
redata: Mesh Cutoff                      =   200.0000  Ry
redata: Net charge of the system         =     0.0000 |e|
redata: Max. number of SCF Iter          =      500
redata: SCF convergence failure will abort job
redata: Performing Pulay mixing using    =    10 iterations
redata: Mix DM in first SCF step ?       =     F
redata: Write Pulay info on disk?        =     F
redata: Discard 1st Pulay DM after  kick =     F
redata: New DM Mixing Weight             =     0.0500
redata: New DM Occupancy tolerance       = 0.000000000001
redata: No kicks to SCF
redata: DM Mixing Weight for Kicks       =     0.5000
redata: DM Tolerance for SCF             =     0.000100
redata: Require Energy convergence for SCF =     F
redata: DM Energy tolerance for SCF      =     0.000100 eV
redata: Require Harris convergence for SCF =     F
redata: DM Harris energy tolerance for SCF =     0.000100 eV
redata: Using Saved Data (generic)   =     F
redata: Use continuation files for DM    =     T
redata: Neglect nonoverlap interactions  =     F
redata: Method of Calculation            =     Diagonalization
redata: Divide and Conquer               =     T
redata: Electronic Temperature           =     0.0019  Ry
redata: Fix the spin of the system       =     F
redata: Dynamics option                  =     Verlet MD run
redata: Initial MD time step             =        1
redata:   Final MD time step             =        1
redata: Length of MD time step           =     1.0000  fs
redata: Initial Temperature of MD run    =     0.0000  K
redata: Perform a MD quench              =     F
redata: ***********************************************************************
Total number of electrons:   295.000000
Total ionic charge:   295.000000

* ProcessorY, Blocksize:    2  24

k-point displ. along   1 input, could be:     0.50    0.00
k-point displ. along   2 input, could be:     0.50    0.00
 Kpoints in:          231 . Kpoints trimmed:          231

siesta: k-grid: Number of k-points =   231
siesta: k-grid: Cutoff (effective) =     5.000 Ang
siesta: k-grid: Supercell and displacements
siesta: k-grid:   21   0   0      0.500
siesta: k-grid:    0  21   0      0.500
siesta: k-grid:    0   0   1      0.000
Naive supercell factors:     2    2    2

superc: Internal auxiliary supercell:     2 x     2 x     2  =       8
superc: Number of atoms, orbitals, and projectors:    576   7488   9216

* Maximum dynamic memory allocated =     4 MB

siesta:                 ==============================
                            Begin MD step =      1
                        ==============================

superc: Internal auxiliary supercell:     2 x     2 x     2  =       8
superc: Number of atoms, orbitals, and projectors:    576   7488   9216

outcell: Unit cell vectors (Ang):
       12.804619    7.392750    0.000000
        0.000000   14.785500    0.000000
        0.000000    0.000000   10.000000

outcell: Cell vector modules (Ang)   :   14.785500   14.785500   10.000000
outcell: Cell angles (23,13,12) (deg):     90.0000     90.0000     60.0000
outcell: Cell volume (Ang**3)        :   1893.2269
New_DM. Step:     1
Initializing Density Matrix...

iodm: Reading Density Matrix from files

InitMesh: MESH =   120 x   120 x    90 =     1296000
InitMesh: Mesh cutoff (required, used) =   200.000   223.865 Ry

* Maximum dynamic memory allocated =   196 MB

stepf: Fermi-Dirac step function

siesta: Program's energy decomposition (eV):
siesta: Ebs     =     -4746.056759
siesta: Eions   =     19528.238980
siesta: Ena     =      4789.643004
siesta: Ekin    =      9444.993064
siesta: Enl     =      -760.389300
siesta: DEna    =      -793.004581
siesta: DUscf   =        97.302346
siesta: DUext   =         0.000000
siesta: Exc     =     -4498.207773
siesta: eta*DQ  =         0.000000
siesta: Emadel  =         0.000000
siesta: Emeta   =         0.000000
siesta: Emolmec =         0.000000
siesta: Ekinion =         0.000000
siesta: Eharris =    -11204.094884
siesta: Etot    =    -11247.902221
siesta: FreeEng =    -11247.902221

siesta: iscf   Eharris(eV)      E_KS(eV)   FreeEng(eV)   dDmax  Ef(eV)
siesta:    1   -11204.0949   -11247.9022   -11247.9022  0.7964 -4.0262
timer: Routine,Calls,Time,% = IterSCF        1    4213.628  99.69
elaps: Routine,Calls,Wall,% = IterSCF        1     527.393  99.69
siesta:    2   -11467.3638   -11155.8187   -11155.8768  2.0434 -5.0302
siesta:    3   -11196.9890   -11226.5603   -11226.5908  0.6147 -4.2994
siesta:    4   -11196.1127   -11222.5159   -11222.5817  0.5602 -4.3005
siesta:    5   -11195.3313   -11213.6725   -11213.7441  0.4240 -4.2846
siesta:    6   -11194.4706   -11205.3865   -11205.4615  0.2823 -4.1388
siesta:    7   -11194.9786   -11193.7764   -11193.8037  0.2614 -4.1791
siesta:    8   -11194.2227   -11191.1610   -11191.2074  0.6454 -4.1262
siesta:    9   -11194.1042   -11191.3004   -11191.3625  0.3018 -4.1129
siesta:   10   -11193.4658   -11189.1386   -11189.2002  0.1971 -4.0828
siesta:   11   -11193.0530   -11187.2615   -11187.3224  0.0841 -4.0817
siesta:   12   -11192.9887   -11186.8856   -11186.9428  0.0860 -4.0953
siesta:   13   -11192.9498   -11187.6649   -11187.7194  0.0630 -4.1033
siesta:   14   -11192.9394   -11189.2989   -11189.3515  0.0436 -4.0976
siesta:   15   -11192.9360   -11190.0745   -11190.1257  0.0453 -4.0944
siesta:   16   -11192.9261   -11190.7212   -11190.7716  0.0326 -4.0919
siesta:   17   -11192.9177   -11191.2905   -11191.3422  0.0172 -4.0927
siesta:   18   -11192.9135   -11191.8112   -11191.8661  0.0117 -4.0993
siesta:   19   -11192.9118   -11192.3895   -11192.4441  0.0073 -4.0994
siesta:   20   -11192.9119   -11192.6336   -11192.6881  0.0048 -4.0988
siesta:   21   -11192.9114   -11192.7090   -11192.7633  0.0042 -4.0972
siesta:   22   -11192.9108   -11192.7328   -11192.7870  0.0039 -4.0961
siesta:   23   -11192.9105   -11192.7911   -11192.8454  0.0020 -4.0953
siesta:   24   -11192.9105   -11192.8407   -11192.8951  0.0009 -4.0954
siesta:   25   -11192.9105   -11192.8832   -11192.9377  0.0009 -4.0956
siesta:   26   -11192.9105   -11192.8843   -11192.9387  0.0007 -4.0957
siesta:   27   -11192.9105   -11192.8982   -11192.9526  0.0005 -4.0957
siesta:   28   -11192.9105   -11192.9091   -11192.9635  0.0004 -4.0956
siesta:   29   -11192.9105   -11192.9151   -11192.9695  0.0003 -4.0957
siesta:   30   -11192.9105   -11192.9158   -11192.9703  0.0002 -4.0957
siesta:   31   -11192.9105   -11192.9106   -11192.9650  0.0001 -4.0958
siesta:   32   -11192.9105   -11192.9104   -11192.9648  0.0001 -4.0957
siesta:   33   -11192.9105   -11192.9087   -11192.9631  0.0001 -4.0957
siesta:   34   -11192.9105   -11192.9086   -11192.9630  0.0001 -4.0957

siesta: E_KS(eV) =           -11192.9093

siesta: E_KS - E_eggbox =    -11192.9093

siesta: Atomic forces (eV/Ang):
----------------------------------------
   Tot   -0.109706    0.057414    0.000000
----------------------------------------
   Max  678.684502
   Res  165.058181    sqrt( Sum f_i^2 / 3N )
----------------------------------------
   Max  678.684502    constrained

Stress-tensor-Voigt (kbar):     -711.92    -2882.77       -0.17        0.01        0.00        0.00
(Free)E + p*V (eV/cell)    -9777.0124
Target enthalpy (eV/cell)   -11192.9637

siesta: Stress tensor (static) (eV/Ang**3):
        -0.444340    0.000006    0.000000
         0.000006   -1.799267    0.000000
         0.000000    0.000000   -0.000104

siesta: Pressure (static):       1198.28673669  kBar

siesta: Stress tensor (total) (eV/Ang**3):
        -0.444340    0.000006    0.000000
         0.000006   -1.799267    0.000000
         0.000000    0.000000   -0.000104

siesta: Pressure (total):       1198.28673669  kBar

siesta: Temp_ion =       0.000 K

* Maximum dynamic memory allocated =   212 MB
Computing bands...

siesta: Program's energy decomposition (eV):
siesta: Ebs     =     -4776.038449
siesta: Eions   =     19528.238980
siesta: Ena     =      4789.643004
siesta: Ekin    =      9957.712253
siesta: Enl     =     -1242.946754
siesta: DEna    =      -765.409454
siesta: DUscf   =       103.661720
siesta: DUext   =         0.000000
siesta: Exc     =     -4507.331087
siesta: eta*DQ  =         0.000000
siesta: Emadel  =         0.000000
siesta: Emeta   =         0.000000
siesta: Emolmec =         0.000000
siesta: Ekinion =         0.000000
siesta: Eharris =    -11192.910479
siesta: Etot    =    -11192.909300
siesta: FreeEng =    -11192.963732

siesta: Final energy (eV):
siesta:  Band Struct. =   -4776.038449
siesta:       Kinetic =    9957.712253
siesta:       Hartree =   32439.865350
siesta:    Ext. field =       0.000000
siesta:   Exch.-corr. =   -4507.331087
siesta:  Ion-electron =  -74499.121386
siesta:       Ion-ion =   25415.965571
siesta:       Ekinion =       0.000000
siesta:         Total =  -11192.909300

siesta: Atomic forces (eV/Ang):
siesta:      1   -0.021463  678.684502    0.000000
siesta:      2   -0.011850   -1.016301    0.000000
siesta:      3    1.005829   -0.411018    0.000000
siesta:      4    0.301439    0.860270    0.000000
siesta:      5   -0.952216   -0.466292    0.000000
siesta:      6   -0.260254    0.897259    0.000000
siesta:      7   -0.003702    0.806394    0.000000
siesta:      8   -0.013658  545.465068    0.000000
siesta:      9    0.008852 -128.822547    0.000000
siesta:     10    1.426409  127.482930    0.000000
siesta:     11  -16.195927 -548.287835    0.000000
siesta:     12   -1.466356  127.506719    0.000000
siesta:     13   16.178442 -548.276214    0.000000
siesta:     14   26.483433    6.726683    0.000000
siesta:     15   34.525960 -550.034411    0.000000
siesta:     16    2.459048    0.112450    0.000000
siesta:     17   -2.550001    1.551192    0.000000
siesta:     18    2.034293    2.083445    0.000000
siesta:     19   -1.159684    0.553590    0.000000
siesta:     20  -26.498615    6.720939    0.000000
siesta:     21  -34.550931 -550.020753    0.000000
siesta:     22   16.033885  548.897228    0.000000
siesta:     23   -1.389634 -127.182657    0.000000
siesta:     24   33.503048  549.493207    0.000000
siesta:     25   26.223001   -6.458228    0.000000
siesta:     26   -2.618182   -1.660682    0.000000
siesta:     27    2.369031   -0.143084    0.000000
siesta:     28   -1.177847   -0.549621    0.000000
siesta:     29    1.998524   -2.029817    0.000000
siesta:     30   -0.296386    7.315208    0.000000
siesta:     31   -0.267173   -7.337030    0.000000
siesta:     32  -16.060985  548.940220    0.000000
siesta:     33    1.362956 -127.172446    0.000000
siesta:     34    0.032606  543.446251    0.000000
siesta:     35    0.039865 -126.852633    0.000000
siesta:     36   19.862157  558.406887    0.000000
siesta:     37   26.123061   -9.994895    0.000000
siesta:     38   -1.846477    3.747544    0.000000
siesta:     39   -0.334962   -0.841775    0.000000
siesta:     40   -0.364319    1.044020    0.000000
siesta:     41   -0.410537   -1.014697    0.000000
siesta:     42  -33.508836  549.504401    0.000000
siesta:     43  -26.257315   -6.416101    0.000000
siesta:     44  -19.863643  558.411651    0.000000
siesta:     45  -26.165277   -9.980212    0.000000
siesta:     46    2.618448   -1.667916    0.000000
siesta:     47   -2.357127   -0.151159    0.000000
siesta:     48    1.826013    3.782522    0.000000
siesta:     49    0.324577   -0.852083    0.000000
siesta:     50    1.181302   -0.544782    0.000000
siesta:     51   -1.998659   -2.017138    0.000000
siesta:     52    0.362395    1.047721    0.000000
siesta:     53    0.390461   -1.026521    0.000000
siesta:     54    0.309512    7.316295    0.000000
siesta:     55    0.270842   -7.341397    0.000000
siesta:     56   -2.023391    2.075110    0.000000
siesta:     57    1.164571    0.546546    0.000000
siesta:     58   -0.358925    0.800612    0.000000
siesta:     59   -2.274206   -3.490538    0.000000
siesta:     60    0.008170 -563.510012    0.000000
siesta:     61    0.352102    0.797810    0.000000
siesta:     62    2.242192   -3.519677    0.000000
siesta:     63   22.904638    6.173093    0.000000
siesta:     64   20.287829 -558.315256    0.000000
siesta:     65  -22.933765    6.153936    0.000000
siesta:     66  -20.290143 -558.309885    0.000000
siesta:     67   -2.420640    0.124236    0.000000
siesta:     68    2.550041    1.562890    0.000000
siesta:     69    0.012393  128.607286    0.000000
siesta:     70    0.020327 -545.790596    0.000000
siesta:     71   -0.002550  117.852283    0.000000
siesta:     72   -0.001726 -643.934779    0.000000
siesta: ----------------------------------------
siesta:    Tot   -0.109706    0.057414    0.000000

siesta: Stress tensor (static) (eV/Ang**3):
siesta:    -0.444340    0.000006    0.000000
siesta:     0.000006   -1.799267    0.000000
siesta:     0.000000    0.000000   -0.000104

siesta: Cell volume =       1893.226884 Ang**3

siesta: Pressure (static):
siesta:                Solid            Molecule  Units
siesta:           0.00814563          0.12867287  Ry/Bohr**3
siesta:           0.74790367         11.81430560  eV/Ang**3
siesta:        1198.28673669      18928.80897401  kBar
(Free)E+ p_basis*V_orbitals  =      -11163.226858
(Free)Eharris+ p_basis*V_orbitals  =      -11163.228733

siesta: Electric dipole (a.u.)  =    0.000000    0.000000    0.000000
siesta: Electric dipole (Debye) =    0.000000    0.000000    0.000000

* Maximum dynamic memory allocated : Node    0 =   212 MB
* Maximum dynamic memory allocated : Node    1 =    74 MB
* Maximum dynamic memory allocated : Node    2 =    76 MB
* Maximum dynamic memory allocated : Node    3 =   201 MB
* Maximum dynamic memory allocated : Node    4 =   192 MB
* Maximum dynamic memory allocated : Node    5 =    71 MB
* Maximum dynamic memory allocated : Node    6 =    73 MB
* Maximum dynamic memory allocated : Node    7 =   177 MB

* Maximum memory occured during matrixMtoO                    

timer: CPU execution times:
timer:  Routine       Calls   Time/call    Tot.time        %
timer:  siesta            1  142142.225  142142.225   100.00
timer:  Setup             1       3.885       3.885     0.00
timer:  bands             3     268.222     804.667     0.57
timer:  writewave         1       0.038       0.038     0.00
timer:  KSV_init          1       0.007       0.007     0.00
timer:  IterMD            1  141325.670  141325.670    99.43
timer:  hsparse           1       0.233       0.233     0.00
timer:  overlap           1       5.921       5.921     0.00
timer:  IterSCF          34    4151.217  141141.393    99.30
timer:  kinefsm           2       3.072       6.143     0.00
timer:  nlefsm            2      19.208      38.416     0.03
timer:  DHSCF            35      95.947    3358.162     2.36
timer:  DHSCF1            1       0.763       0.763     0.00
timer:  DHSCF2            1      34.640      34.640     0.02
timer:  REORD           282       0.010       2.808     0.00
timer:  POISON           36       2.246      80.862     0.06
timer:  DHSCF3           35      93.953    3288.349     2.31
timer:  rhoofd           35      18.446     645.608     0.45
timer:  cellXC           35       3.463     121.197     0.09
timer:  vmat             35      45.319    1586.180     1.12
timer:  MolMec            2       0.000       0.000     0.00
timer:  diagon           34    4053.651  137824.149    96.96
timer:  c-eigval       7975       6.654   53065.734    37.33
timer:  c-buildHS      7975       0.115     915.462     0.64
timer:  cdiag         15829       6.845  108354.873    76.23
timer:  cdiag1        15829       0.427    6759.918     4.76
timer:  cdiag2        15829       1.902   30110.623    21.18
timer:  cdiag3        15829       3.934   62271.769    43.81
timer:  cdiag4        15829       0.202    3195.448     2.25
timer:  c-eigvec       7854       7.226   56753.990    39.93
timer:  c-buildD       7854       3.663   28766.269    20.24
timer:  DHSCF4            1      32.525      32.525     0.02
timer:  dfscf             1      30.672      30.672     0.02
timer:  overfsm           1       0.410       0.410     0.00
timer:  optical           1       7.311       7.311     0.01
  

elaps: ELAPSED times:
elaps:  Routine       Calls   Time/call    Tot.time        %
elaps:  siesta            1   17790.669   17790.669   100.00
elaps:  Setup             1       0.503       0.503     0.00
elaps:  bands             3      33.640     100.921     0.57
elaps:  writewave         1       0.005       0.005     0.00
elaps:  KSV_init          1       0.001       0.001     0.00
elaps:  IterMD            1   17688.433   17688.433    99.43
elaps:  hsparse           1       0.028       0.028     0.00
elaps:  overlap           1       0.969       0.969     0.01
elaps:  IterSCF          34     519.573   17665.489    99.30
elaps:  kinefsm           2       0.499       0.998     0.01
elaps:  nlefsm            2       2.394       4.789     0.03
elaps:  DHSCF            35      12.132     424.605     2.39
elaps:  DHSCF1            1       0.101       0.101     0.00
elaps:  DHSCF2            1       4.332       4.332     0.02
elaps:  REORD           282       0.001       0.377     0.00
elaps:  POISON           36       0.282      10.134     0.06
elaps:  DHSCF3           35      11.754     411.393     2.31
elaps:  rhoofd           35       5.188     181.580     1.02
elaps:  cellXC           35       0.433      15.142     0.09
elaps:  vmat             35       5.669     198.429     1.12
elaps:  MolMec            2       0.000       0.000     0.00
elaps:  diagon           34     507.374   17250.731    96.97
elaps:  c-eigval       7975       0.833    6639.602    37.32
elaps:  c-buildHS      7975       0.016     124.900     0.70
elaps:  cdiag         15829       0.844   13358.661    75.09
elaps:  cdiag1        15829       0.053     835.756     4.70
elaps:  cdiag2        15829       0.238    3767.701    21.18
elaps:  cdiag3        15829       0.493    7801.595    43.85
elaps:  cdiag4        15829       0.026     404.648     2.27
elaps:  c-eigvec       7854       0.883    6938.977    39.00
elaps:  c-buildD       7854       0.476    3741.739    21.03
elaps:  DHSCF4            1       8.524       8.524     0.05
elaps:  dfscf             1       8.111       8.111     0.05
elaps:  overfsm           1       0.051       0.051     0.00
elaps:  optical           1       0.001       0.001     0.00
  
>> End of run:  15-APR-2016  14:30:08
