Siesta Version:                                        siesta-3.2-pl-3
Architecture  : x86_64-unknown-linux-gnu--unknown
Compiler flags: mpiifort -g -O2 -fPIC -xSSE4.1 -fp-model source -shared-intel 
PARALLEL version

* Running on    8 nodes in parallel
>> Start of run:   1-MAY-2016  10:53:27

                           ***********************       
                           *  WELCOME TO SIESTA  *       
                           ***********************       

reinit: Reading from standard input
************************** Dump of input data file ****************************
#(1) General system descriptors
SystemName            GRP_doping    # Descriptive name of the system
SystemLabel           GRP_doping    # Short name for naming files
%include STRUCT.fdf
%include KPT.fdf
%include BASIS.fdf
#%include TS.fdf # for transiesta calculation
#(4) DFT, Grid, SCF
XC.functional         GGA           # LDA or GGA (default = LDA)
XC.authors            PBE           # CA (Ceperley-Aldr) = PZ
                                    #    (Perdew-Zunger) - LDA - Default
                                    # PW92 (Perdew-Wang-92) - LDA
                                    # PBE (Perdew-Burke-Ernzerhof) - GGA
MeshCutoff            200.000000    Ry      # Default: 50.0 Ry ~ 0.444 Bohr
                                    #         100.0 Ry ~ 0.314 Bohr
MaxSCFIterations      500           # Default: 50
DM.MixingWeight       0.05          # Default: 0.25
DM.NumberPulay        10            # Default: 0
DM.PulayOnFile        F             # SystemLabel.P1, SystemLabel.P2
DM.Tolerance          1.d-4         # Default: 1.d-4
DM.UseSaveDM          .true.        # because of the bug
SCFMustConverge       .true.
NeglNonOverlapInt     F             # Default: F
#(5) Eigenvalue problem: order-N or diagonalization
SolutionMethod        Diagon        # or Transiesta
ElectronicTemperature 300.0 K       # Default: 300.0 K
#(6) Molecular dynamics and relaxations
#MD.TypeOfRun          CG            # Type of dynamics:
#MD.VariableCell       F
#MD.NumCGsteps         0           # 0 for single-point / 100 for gopt
#MD.MaxCGDispl         0.2 Bohr      # Default: 0.2 Bohr
#MD.MaxForceTol        0.02 eV/Ang   # Default: 0.04 eV/Ang
#MD.MaxStressTol       1.0 GPa       # Default: 1.0 GPa
# Geometry Constraints
#%block GeometryConstraints
#	position from 1 to 44
#%endblock GeometryConstraints
BandLinesScale   pi/a
%block BandLines
 1   0.00000000  0.00000000  0.00000000
50   0.00000000  0.07809418  0.00000000
50   0.04509075  0.07809242  0.00000000
20   0.00000000  0.00000000  0.00000000
%endblock BandLines
************************** End of input data file *****************************

reinit: -----------------------------------------------------------------------
reinit: System Name: GRP_doping
reinit: -----------------------------------------------------------------------
reinit: System Label: GRP_doping                                                  
reinit: -----------------------------------------------------------------------

initatom: Reading input for the pseudopotentials and atomic orbitals ----------
 Species number:            1  Label: N Atomic number:           7
 Species number:            2  Label: C Atomic number:           6
Ground state valence configuration:   2s02  2p03
Reading pseudopotential information in formatted form from N.psf

Valence configuration for pseudopotential generation:
2s( 2.00) rc: 1.48
2p( 3.00) rc: 1.48
3d( 0.00) rc: 1.48
4f( 0.00) rc: 1.48
Ground state valence configuration:   2s02  2p02
Reading pseudopotential information in formatted form from C.psf

Valence configuration for pseudopotential generation:
2s( 2.00) rc: 1.54
2p( 2.00) rc: 1.54
3d( 0.00) rc: 1.54
4f( 0.00) rc: 1.54
For N, standard SIESTA heuristics set lmxkb to 3
 (one more than the basis l, including polarization orbitals).
Use PS.lmax or PS.KBprojectors blocks to override.
For C, standard SIESTA heuristics set lmxkb to 3
 (one more than the basis l, including polarization orbitals).
Use PS.lmax or PS.KBprojectors blocks to override.

<basis_specs>
===============================================================================
N                    Z=   7    Mass=  14.010        Charge= 0.17977+309
Lmxo=1 Lmxkb= 3    BasisType=split      Semic=F
L=0  Nsemic=0  Cnfigmx=2
          n=1  nzeta=2  polorb=0
            splnorm:   0.15000    
               vcte:    0.0000    
               rinn:    0.0000    
                rcs:    0.0000      0.0000    
            lambdas:    1.0000      1.0000    
L=1  Nsemic=0  Cnfigmx=2
          n=1  nzeta=2  polorb=1
            splnorm:   0.15000    
               vcte:    0.0000    
               rinn:    0.0000    
                rcs:    0.0000      0.0000    
            lambdas:    1.0000      1.0000    
-------------------------------------------------------------------------------
L=0  Nkbl=1  erefs: 0.17977+309
L=1  Nkbl=1  erefs: 0.17977+309
L=2  Nkbl=1  erefs: 0.17977+309
L=3  Nkbl=1  erefs: 0.17977+309
===============================================================================
</basis_specs>

atom: Called for N                     (Z =   7)

read_vps: Pseudopotential generation method:
read_vps: ATM3      Troullier-Martins                       
Total valence charge:    5.00000

read_vps: Pseudopotential includes a core correction:
read_vps: Pseudo-core for xc-correction

xc_check: Exchange-correlation functional:
xc_check: GGA Perdew, Burke & Ernzerhof 1996
V l=0 = -2*Zval/r beyond r=  1.4606
V l=1 = -2*Zval/r beyond r=  1.4606
V l=2 = -2*Zval/r beyond r=  1.4606
V l=3 = -2*Zval/r beyond r=  1.4606
All V_l potentials equal beyond r=  1.4606
This should be close to max(r_c) in ps generation
All pots = -2*Zval/r beyond r=  1.4606

VLOCAL1: 99.0% of the norm of Vloc inside     20.347 Ry
VLOCAL1: 99.9% of the norm of Vloc inside     46.372 Ry
atom: Maximum radius for 4*pi*r*r*local-pseudopot. charge    1.76189
atom: Maximum radius for r*vlocal+2*Zval:    1.53550
GHOST: No ghost state for L =  0
GHOST: No ghost state for L =  1
GHOST: No ghost state for L =  2
GHOST: No ghost state for L =  3

KBgen: Kleinman-Bylander projectors: 
   l= 0   rc=  1.634559   el= -1.363963   Ekb=  5.296955   kbcos=  0.335621
   l= 1   rc=  1.614250   el= -0.521451   Ekb= -5.259161   kbcos= -0.433408
   l= 2   rc=  1.718383   el=  0.001991   Ekb= -1.271464   kbcos= -0.007566
   l= 3   rc=  1.761893   el=  0.003093   Ekb= -0.494769   kbcos= -0.001015

KBgen: Total number of  Kleinman-Bylander projectors:   16
atom: -------------------------------------------------------------------------

atom: SANKEY-TYPE ORBITALS:
atom: Selected multiple-zeta basis: split     

SPLIT: Orbitals with angular momentum L= 0

SPLIT: Basis orbitals for state 2s

SPLIT: PAO cut-off radius determined from an
SPLIT: energy shift=  0.007350 Ry

   izeta = 1
                 lambda =    1.000000
                     rc =    4.071465
                 energy =   -1.356470
                kinetic =    1.176977
    potential(screened) =   -2.533447
       potential(ionic) =   -8.057990

   izeta = 2
                 rmatch =    2.905100
              splitnorm =    0.150000
                 energy =   -1.158343
                kinetic =    1.813009
    potential(screened) =   -2.971352
       potential(ionic) =   -8.901931

SPLIT: Orbitals with angular momentum L= 1

SPLIT: Basis orbitals for state 2p

SPLIT: PAO cut-off radius determined from an
SPLIT: energy shift=  0.007350 Ry

   izeta = 1
                 lambda =    1.000000
                     rc =    4.972977
                 energy =   -0.513884
                kinetic =    3.441732
    potential(screened) =   -3.955616
       potential(ionic) =   -9.287901

   izeta = 2
                 rmatch =    3.054066
              splitnorm =    0.150000
                 energy =   -0.318226
                kinetic =    5.125348
    potential(screened) =   -5.443573
       potential(ionic) =  -11.380999

POLgen: Perturbative polarization orbital with L=  2

POLgen: Polarization orbital for state 2p

   izeta = 1
                     rc =    4.972977
                 energy =    1.607437
                kinetic =    3.268125
    potential(screened) =   -1.660688
       potential(ionic) =   -5.973652
atom: Total number of Sankey-type orbitals: 13

atm_pop: Valence configuration (for local Pseudopot. screening):
 2s( 2.00)                                                            
 2p( 3.00)                                                            
Vna: chval, zval:    5.00000   5.00000

Vna:  Cut-off radius for the neutral-atom potential:   4.972977
comcore: Pseudo-core radius Rcore=  1.554824

atom: _________________________________________________________________________

<basis_specs>
===============================================================================
C                    Z=   6    Mass=  12.010        Charge= 0.17977+309
Lmxo=1 Lmxkb= 3    BasisType=split      Semic=F
L=0  Nsemic=0  Cnfigmx=2
          n=1  nzeta=2  polorb=0
            splnorm:   0.15000    
               vcte:    0.0000    
               rinn:    0.0000    
                rcs:    0.0000      0.0000    
            lambdas:    1.0000      1.0000    
L=1  Nsemic=0  Cnfigmx=2
          n=1  nzeta=2  polorb=1
            splnorm:   0.15000    
               vcte:    0.0000    
               rinn:    0.0000    
                rcs:    0.0000      0.0000    
            lambdas:    1.0000      1.0000    
-------------------------------------------------------------------------------
L=0  Nkbl=1  erefs: 0.17977+309
L=1  Nkbl=1  erefs: 0.17977+309
L=2  Nkbl=1  erefs: 0.17977+309
L=3  Nkbl=1  erefs: 0.17977+309
===============================================================================
</basis_specs>

atom: Called for C                     (Z =   6)

read_vps: Pseudopotential generation method:
read_vps: ATM3      Troullier-Martins                       
Total valence charge:    4.00000

read_vps: Pseudopotential includes a core correction:
read_vps: Pseudo-core for xc-correction

xc_check: Exchange-correlation functional:
xc_check: GGA Perdew, Burke & Ernzerhof 1996
V l=0 = -2*Zval/r beyond r=  1.5227
V l=1 = -2*Zval/r beyond r=  1.5227
V l=2 = -2*Zval/r beyond r=  1.5227
V l=3 = -2*Zval/r beyond r=  1.5038
All V_l potentials equal beyond r=  1.5227
This should be close to max(r_c) in ps generation
All pots = -2*Zval/r beyond r=  1.5227

VLOCAL1: 99.0% of the norm of Vloc inside     18.722 Ry
VLOCAL1: 99.9% of the norm of Vloc inside     42.668 Ry
atom: Maximum radius for 4*pi*r*r*local-pseudopot. charge    1.83678
atom: Maximum radius for r*vlocal+2*Zval:    1.58088
GHOST: No ghost state for L =  0
GHOST: No ghost state for L =  1
GHOST: No ghost state for L =  2
GHOST: No ghost state for L =  3

KBgen: Kleinman-Bylander projectors: 
   l= 0   rc=  1.704034   el= -1.009801   Ekb=  5.335044   kbcos=  0.316824
   l= 1   rc=  1.704034   el= -0.388707   Ekb= -3.785862   kbcos= -0.366464
   l= 2   rc=  1.791422   el=  0.001971   Ekb= -0.970471   kbcos= -0.009212
   l= 3   rc=  1.859892   el=  0.003065   Ekb= -0.399525   kbcos= -0.001223

KBgen: Total number of  Kleinman-Bylander projectors:   16
atom: -------------------------------------------------------------------------

atom: SANKEY-TYPE ORBITALS:
atom: Selected multiple-zeta basis: split     

SPLIT: Orbitals with angular momentum L= 0

SPLIT: Basis orbitals for state 2s

SPLIT: PAO cut-off radius determined from an
SPLIT: energy shift=  0.007350 Ry

   izeta = 1
                 lambda =    1.000000
                     rc =    4.632753
                 energy =   -1.002270
                kinetic =    0.855760
    potential(screened) =   -1.858031
       potential(ionic) =   -5.417575

   izeta = 2
                 rmatch =    3.431921
              splitnorm =    0.150000
                 energy =   -0.867111
                kinetic =    1.300804
    potential(screened) =   -2.167915
       potential(ionic) =   -5.962684

SPLIT: Orbitals with angular momentum L= 1

SPLIT: Basis orbitals for state 2p

SPLIT: PAO cut-off radius determined from an
SPLIT: energy shift=  0.007350 Ry

   izeta = 1
                 lambda =    1.000000
                     rc =    5.658549
                 energy =   -0.381140
                kinetic =    2.399701
    potential(screened) =   -2.780841
       potential(ionic) =   -6.206085

   izeta = 2
                 rmatch =    3.653288
              splitnorm =    0.150000
                 energy =   -0.249149
                kinetic =    3.542762
    potential(screened) =   -3.791911
       potential(ionic) =   -7.581078

POLgen: Perturbative polarization orbital with L=  2

POLgen: Polarization orbital for state 2p

   izeta = 1
                     rc =    5.658549
                 energy =    1.109913
                kinetic =    2.304789
    potential(screened) =   -1.194876
       potential(ionic) =   -4.013592
atom: Total number of Sankey-type orbitals: 13

atm_pop: Valence configuration (for local Pseudopot. screening):
 2s( 2.00)                                                            
 2p( 2.00)                                                            
Vna: chval, zval:    4.00000   4.00000

Vna:  Cut-off radius for the neutral-atom potential:   5.658549
comcore: Pseudo-core radius Rcore=  1.791422

atom: _________________________________________________________________________

prinput: Basis input ----------------------------------------------------------

PAO.BasisType split     

%block ChemicalSpeciesLabel
    1    7 N                       # Species index, atomic number, species label
    2    6 C                       # Species index, atomic number, species label
%endblock ChemicalSpeciesLabel

%block PAO.Basis                 # Define Basis set
N                     2                    # Species label, number of l-shells
 n=2   0   2                         # n, l, Nzeta 
   4.071      2.905   
   1.000      1.000   
 n=2   1   2 P   1                   # n, l, Nzeta, Polarization, NzetaPol
   4.973      3.054   
   1.000      1.000   
C                     2                    # Species label, number of l-shells
 n=2   0   2                         # n, l, Nzeta 
   4.633      3.432   
   1.000      1.000   
 n=2   1   2 P   1                   # n, l, Nzeta, Polarization, NzetaPol
   5.659      3.653   
   1.000      1.000   
%endblock PAO.Basis

prinput: ----------------------------------------------------------------------

coor:   Atomic-coordinates input format  =     Fractional

siesta: Atomic coordinates (Bohr) and species
siesta:      6.95932  30.82560   0.00000  1        1
siesta:      9.28770  26.79272   0.00000  1        2
siesta:      9.28770  29.48119   0.00000  1        3
siesta:     11.61608  25.44831   0.00000  1        4
siesta:      2.30256  14.69411   0.00000  1        5
siesta:      2.30256  17.38257   0.00000  1        6
siesta:     -0.02582  18.72698   0.00000  1        7
siesta:     -0.02582  21.41544   0.00000  1        8
siesta:      2.30256  22.75985   0.00000  1        9
siesta:      2.30256  25.44831   0.00000  1       10
siesta:     -4.68258  21.41544   0.00000  1       11
siesta:     -2.35420  22.75985   0.00000  1       12
siesta:     -9.33934  21.41544   0.00000  1       13
siesta:     -7.01096  22.75985   0.00000  1       14
siesta:     -7.01096  25.44831   0.00000  1       15
siesta:    -11.66772  22.75985   0.00000  1       16
siesta:      4.63094  26.79272   0.00000  1       17
siesta:      4.63094  29.48119   0.00000  1       18
siesta:      2.30256  30.82560   0.00000  1       19
siesta:     -0.02582   2.59549   0.00000  2       20
siesta:     -0.02582   5.28395   0.00000  2       21
siesta:     -2.35420  38.89134   0.00000  2       22
siesta:     -2.35420  41.57980   0.00000  2       23
siesta:      2.30256  38.89134   0.00000  2       24
siesta:      2.30256  41.57980   0.00000  2       25
siesta:      4.63094  34.85847   0.00000  2       26
siesta:      4.63094  37.54693   0.00000  2       27
siesta:      6.95932  33.51406   0.00000  2       28
siesta:     -4.68258  34.85847   0.00000  2       29
siesta:     -4.68258  37.54693   0.00000  2       30
siesta:      2.30256   6.62836   0.00000  2       31
siesta:      2.30256   9.31683   0.00000  2       32
siesta:      4.63094  10.66124   0.00000  2       33
siesta:      4.63094  13.34970   0.00000  2       34
siesta:      6.95932  14.69411   0.00000  2       35
siesta:      6.95932  17.38257   0.00000  2       36
siesta:      9.28770  18.72698   0.00000  2       37
siesta:      9.28770  21.41544   0.00000  2       38
siesta:     11.61608  22.75985   0.00000  2       39
siesta:     -2.35420   6.62836   0.00000  2       40
siesta:     -2.35420   9.31683   0.00000  2       41
siesta:     -0.02582  10.66124   0.00000  2       42
siesta:     -0.02582  13.34970   0.00000  2       43
siesta:      4.63094  18.72698   0.00000  2       44
siesta:      4.63094  21.41544   0.00000  2       45
siesta:      6.95932  22.75985   0.00000  2       46
siesta:      6.95932  25.44831   0.00000  2       47
siesta:     -4.68258  10.66124   0.00000  2       48
siesta:     -4.68258  13.34970   0.00000  2       49
siesta:     -2.35420  14.69411   0.00000  2       50
siesta:     -2.35420  17.38257   0.00000  2       51
siesta:     -7.01096  14.69411   0.00000  2       52
siesta:     -7.01096  17.38257   0.00000  2       53
siesta:     -4.68258  18.72698   0.00000  2       54
siesta:     -2.35420  25.44831   0.00000  2       55
siesta:     -9.33934  18.72698   0.00000  2       56
siesta:    -11.66772  25.44831   0.00000  2       57
siesta:     -9.33934  26.79272   0.00000  2       58
siesta:     -9.33934  29.48119   0.00000  2       59
siesta:     -0.02582  26.79272   0.00000  2       60
siesta:     -0.02582  29.48119   0.00000  2       61
siesta:     -4.68258  26.79272   0.00000  2       62
siesta:     -4.68258  29.48119   0.00000  2       63
siesta:      2.30256  33.51406   0.00000  2       64
siesta:     -2.35420  30.82560   0.00000  2       65
siesta:     -2.35420  33.51406   0.00000  2       66
siesta:     -7.01096  30.82560   0.00000  2       67
siesta:     -7.01096  33.51406   0.00000  2       68
siesta:     -0.02582  34.85847   0.00000  2       69
siesta:     -0.02582  37.54693   0.00000  2       70
siesta:     -0.02582  42.92421   0.00000  2       71
siesta:     -0.02582  45.61267   0.00000  2       72

siesta: System type = slab      

initatomlists: Number of atoms, orbitals, and projectors:     72   936  1152

siesta: ******************** Simulation parameters ****************************
siesta:
siesta: The following are some of the parameters of the simulation.
siesta: A complete list of the parameters used, including default values,
siesta: can be found in file out.fdf
siesta:
redata: Non-Collinear-spin run           =     F
redata: SpinPolarized (Up/Down) run      =     F
redata: Number of spin components        =     1
redata: Long output                      =     F
redata: Number of Atomic Species         =        2
redata: Charge density info will appear in .RHO file
redata: Write Mulliken Pop.              =     NO
redata: Mesh Cutoff                      =   200.0000  Ry
redata: Net charge of the system         =     0.0000 |e|
redata: Max. number of SCF Iter          =      500
redata: SCF convergence failure will abort job
redata: Performing Pulay mixing using    =    10 iterations
redata: Mix DM in first SCF step ?       =     F
redata: Write Pulay info on disk?        =     F
redata: Discard 1st Pulay DM after  kick =     F
redata: New DM Mixing Weight             =     0.0500
redata: New DM Occupancy tolerance       = 0.000000000001
redata: No kicks to SCF
redata: DM Mixing Weight for Kicks       =     0.5000
redata: DM Tolerance for SCF             =     0.000100
redata: Require Energy convergence for SCF =     F
redata: DM Energy tolerance for SCF      =     0.000100 eV
redata: Require Harris convergence for SCF =     F
redata: DM Harris energy tolerance for SCF =     0.000100 eV
redata: Using Saved Data (generic)   =     F
redata: Use continuation files for DM    =     T
redata: Neglect nonoverlap interactions  =     F
redata: Method of Calculation            =     Diagonalization
redata: Divide and Conquer               =     T
redata: Electronic Temperature           =     0.0019  Ry
redata: Fix the spin of the system       =     F
redata: Dynamics option                  =     Verlet MD run
redata: Initial MD time step             =        1
redata:   Final MD time step             =        1
redata: Length of MD time step           =     1.0000  fs
redata: Initial Temperature of MD run    =     0.0000  K
redata: Perform a MD quench              =     F
redata: ***********************************************************************
Total number of electrons:   307.000000
Total ionic charge:   307.000000

* ProcessorY, Blocksize:    2  24

k-point displ. along   1 input, could be:     0.50    0.00
k-point displ. along   2 input, could be:     0.50    0.00
 Kpoints in:          231 . Kpoints trimmed:          231

siesta: k-grid: Number of k-points =   231
siesta: k-grid: Cutoff (effective) =     5.000 Ang
siesta: k-grid: Supercell and displacements
siesta: k-grid:   21   0   0      0.500
siesta: k-grid:    0  21   0      0.500
siesta: k-grid:    0   0   1      0.000
Naive supercell factors:     2    2    2

superc: Internal auxiliary supercell:     2 x     2 x     2  =       8
superc: Number of atoms, orbitals, and projectors:    576   7488   9216

* Maximum dynamic memory allocated =     4 MB

siesta:                 ==============================
                            Begin MD step =      1
                        ==============================

superc: Internal auxiliary supercell:     2 x     2 x     2  =       8
superc: Number of atoms, orbitals, and projectors:    576   7488   9216

outcell: Unit cell vectors (Ang):
       12.804619    7.392750    0.000000
        0.000000   14.785500    0.000000
        0.000000    0.000000   10.000000

outcell: Cell vector modules (Ang)   :   14.785500   14.785500   10.000000
outcell: Cell angles (23,13,12) (deg):     90.0000     90.0000     60.0000
outcell: Cell volume (Ang**3)        :   1893.2269
New_DM. Step:     1
Initializing Density Matrix...

InitMesh: MESH =   120 x   120 x    90 =     1296000
InitMesh: Mesh cutoff (required, used) =   200.000   223.865 Ry

* Maximum dynamic memory allocated =   188 MB

stepf: Fermi-Dirac step function

siesta: Program's energy decomposition (eV):
siesta: Ebs     =     -6200.152706
siesta: Eions   =     21457.201110
siesta: Ena     =      4912.743221
siesta: Ekin    =      7972.707975
siesta: Enl     =        97.141318
siesta: DEna    =        -0.000015
siesta: DUscf   =         0.000000
siesta: DUext   =         0.000000
siesta: Exc     =     -4639.561143
siesta: eta*DQ  =         0.000000
siesta: Emadel  =         0.000000
siesta: Emeta   =         0.000000
siesta: Emolmec =         0.000000
siesta: Ekinion =         0.000000
siesta: Eharris =    -12773.300037
siesta: Etot    =    -13114.169754
siesta: FreeEng =    -13114.169754

siesta: iscf   Eharris(eV)      E_KS(eV)   FreeEng(eV)   dDmax  Ef(eV)
siesta:    1   -12773.3000   -13114.1698   -13114.1698  6.3540 -7.0041
timer: Routine,Calls,Time,% = IterSCF        1    4140.023  99.71
elaps: Routine,Calls,Wall,% = IterSCF        1     518.160  99.70
siesta:    2   -19422.0103   -11876.3781   -11876.4285 14.3658 -8.0521
siesta:    3   -12804.6187   -12873.3452   -12873.3898  1.9874 -4.7148
siesta:    4   -12686.9356   -12790.4258   -12790.4937  1.4081 -4.2146
siesta:    5   -12636.9721   -12717.8252   -12717.8756  0.9388 -4.2181
siesta:    6   -12626.2551   -12677.3979   -12677.4402  0.7775 -4.0108
siesta:    7   -12603.5730   -12650.4812   -12650.5282  0.7014 -3.8334
siesta:    8   -12600.0238   -12640.1163   -12640.1607  0.6308 -3.8224
siesta:    9   -12598.1606   -12626.9482   -12626.9804  0.5510 -3.8177
siesta:   10   -12597.2818   -12617.6564   -12617.7025  0.3719 -3.8036
siesta:   11   -12597.7630   -12602.6006   -12602.6570  0.3407 -3.8440
siesta:   12   -12597.5228   -12595.4108   -12595.4594  0.3982 -3.8538
siesta:   13   -12596.7046   -12593.9324   -12593.9844  0.3518 -3.8692
siesta:   14   -12596.1743   -12596.8008   -12596.8570  0.2774 -3.8628
siesta:   15   -12595.8328   -12597.9516   -12597.9980  0.1588 -3.8954
siesta:   16   -12595.6926   -12598.4297   -12598.4982  0.1009 -3.8999
siesta:   17   -12595.5846   -12598.0047   -12598.0779  0.0783 -3.9173
siesta:   18   -12595.5528   -12598.5589   -12598.6279  0.0650 -3.9117
siesta:   19   -12595.5332   -12598.2161   -12598.2934  0.0384 -3.9018
siesta:   20   -12595.5232   -12597.7984   -12597.8635  0.0442 -3.8985
siesta:   21   -12595.5193   -12597.9959   -12598.0679  0.0268 -3.8862
siesta:   22   -12595.5088   -12597.8024   -12597.8730  0.0307 -3.8852
siesta:   23   -12595.5071   -12597.4743   -12597.5482  0.0280 -3.8835
siesta:   24   -12595.5035   -12596.7228   -12596.7927  0.0204 -3.8854
siesta:   25   -12595.5028   -12595.9680   -12596.0388  0.0100 -3.8853
siesta:   26   -12595.5020   -12595.6968   -12595.7679  0.0054 -3.8846
siesta:   27   -12595.5017   -12595.5767   -12595.6476  0.0027 -3.8836
siesta:   28   -12595.5021   -12595.5423   -12595.6132  0.0033 -3.8835
siesta:   29   -12595.5019   -12595.5372   -12595.6077  0.0020 -3.8836
siesta:   30   -12595.5016   -12595.5103   -12595.5809  0.0010 -3.8852
siesta:   31   -12595.5016   -12595.4908   -12595.5616  0.0008 -3.8856
siesta:   32   -12595.5016   -12595.4833   -12595.5541  0.0005 -3.8857
siesta:   33   -12595.5016   -12595.4857   -12595.5565  0.0004 -3.8857
siesta:   34   -12595.5016   -12595.4925   -12595.5633  0.0002 -3.8856
siesta:   35   -12595.5016   -12595.4936   -12595.5644  0.0002 -3.8856
siesta:   36   -12595.5016   -12595.4981   -12595.5689  0.0001 -3.8855
siesta:   37   -12595.5016   -12595.5004   -12595.5712  0.0001 -3.8855

siesta: E_KS(eV) =           -12595.4989

siesta: E_KS - E_eggbox =    -12595.4989

siesta: Atomic forces (eV/Ang):
----------------------------------------
   Tot    0.089880    0.093546    0.000000
----------------------------------------
   Max  684.295948
   Res  169.074545    sqrt( Sum f_i^2 / 3N )
----------------------------------------
   Max  684.295948    constrained

Stress-tensor-Voigt (kbar):     -716.64    -2954.98       -0.06       -5.37        0.00        0.00
(Free)E + p*V (eV/cell)   -11149.3626
Target enthalpy (eV/cell)   -12595.5697

siesta: Stress tensor (static) (eV/Ang**3):
        -0.447287   -0.003350    0.000000
        -0.003350   -1.844331    0.000000
         0.000000    0.000000   -0.000037

siesta: Pressure (static):       1223.89149376  kBar

siesta: Stress tensor (total) (eV/Ang**3):
        -0.447287   -0.003350    0.000000
        -0.003350   -1.844331    0.000000
         0.000000    0.000000   -0.000037

siesta: Pressure (total):       1223.89149376  kBar

siesta: Temp_ion =       0.000 K

* Maximum dynamic memory allocated =   204 MB
Computing bands...

siesta: Program's energy decomposition (eV):
siesta: Ebs     =     -5020.855891
siesta: Eions   =     21457.201110
siesta: Ena     =      4912.743221
siesta: Ekin    =     10955.158144
siesta: Enl     =     -1546.614352
siesta: DEna    =      -761.861563
siesta: DUscf   =       107.611832
siesta: DUext   =         0.000000
siesta: Exc     =     -4805.335118
siesta: eta*DQ  =         0.000000
siesta: Emadel  =         0.000000
siesta: Emeta   =         0.000000
siesta: Emolmec =         0.000000
siesta: Ekinion =         0.000000
siesta: Eharris =    -12595.501613
siesta: Etot    =    -12595.498946
siesta: FreeEng =    -12595.569742

siesta: Final energy (eV):
siesta:  Band Struct. =   -5020.855891
siesta:       Kinetic =   10955.158144
siesta:       Hartree =   34774.864893
siesta:    Ext. field =       0.000000
siesta:   Exch.-corr. =   -4805.335118
siesta:  Ion-electron =  -80063.821840
siesta:       Ion-ion =   26543.634975
siesta:       Ekinion =       0.000000
siesta:         Total =  -12595.498946

siesta: Atomic forces (eV/Ang):
siesta:      1    1.036062    2.307327    0.000000
siesta:      2   -2.935623    1.051248    0.000000
siesta:      3    0.910431   -1.173732    0.000000
siesta:      4   -0.081751   -2.853493    0.000000
siesta:      5    4.079375  671.144079    0.000000
siesta:      6   34.204034   -9.839879    0.000000
siesta:      7  -17.901503  684.295948    0.000000
siesta:      8   -0.993389   -5.815200    0.000000
siesta:      9    1.998682    0.961098    0.000000
siesta:     10   -0.829598    1.908005    0.000000
siesta:     11    0.627909   -1.910611    0.000000
siesta:     12   -1.329138    1.578032    0.000000
siesta:     13   -0.659563   -4.952233    0.000000
siesta:     14    1.021003    2.508452    0.000000
siesta:     15    1.699837    0.607202    0.000000
siesta:     16    0.299802    4.558056    0.000000
siesta:     17    1.542343   -1.028528    0.000000
siesta:     18    0.385044   -3.637867    0.000000
siesta:     19   27.908478    9.892449    0.000000
siesta:     20   11.320611  551.864176    0.000000
siesta:     21    2.612363 -125.042821    0.000000
siesta:     22   -0.455265  127.465755    0.000000
siesta:     23  -13.905662 -547.291745    0.000000
siesta:     24    0.430559  123.485700    0.000000
siesta:     25   26.687172 -654.689467    0.000000
siesta:     26   25.395350    6.763049    0.000000
siesta:     27   35.695625 -551.445316    0.000000
siesta:     28   -1.582229   -2.683877    0.000000
siesta:     29  -26.281876    6.603323    0.000000
siesta:     30  -34.360419 -550.237624    0.000000
siesta:     31   20.525252  548.147799    0.000000
siesta:     32   -1.986548 -126.640888    0.000000
siesta:     33   30.626527  548.707274    0.000000
siesta:     34   25.254673   -9.752233    0.000000
siesta:     35   -2.394895   -1.329455    0.000000
siesta:     36    1.776882   -0.886411    0.000000
siesta:     37   -1.004965    0.482366    0.000000
siesta:     38    1.073597   -2.328475    0.000000
siesta:     39    0.323320    5.578136    0.000000
siesta:     40  -17.699179  549.346362    0.000000
siesta:     41    0.268416 -128.331259    0.000000
siesta:     42    1.773346  545.879002    0.000000
siesta:     43   -3.942495 -130.200158    0.000000
siesta:     44   -1.365212    3.712318    0.000000
siesta:     45   -1.104112   -1.105375    0.000000
siesta:     46   -0.471249    1.493421    0.000000
siesta:     47    0.481128    0.171189    0.000000
siesta:     48  -32.473054  550.037430    0.000000
siesta:     49  -26.166395   -6.087395    0.000000
siesta:     50  -20.582405  555.879742    0.000000
siesta:     51  -25.948737   -9.365420    0.000000
siesta:     52    2.691206   -0.878315    0.000000
siesta:     53   -0.318874    0.056433    0.000000
siesta:     54    1.452558    3.273641    0.000000
siesta:     55    1.118468   -0.600208    0.000000
siesta:     56   -1.310335    3.414077    0.000000
siesta:     57   -0.651607   -5.338634    0.000000
siesta:     58   -0.254405    1.509550    0.000000
siesta:     59    0.352069   -1.487435    0.000000
siesta:     60    0.306953   -2.176040    0.000000
siesta:     61  -14.021977 -576.861503    0.000000
siesta:     62   -1.672944   -1.203244    0.000000
siesta:     63    0.635154   -2.252771    0.000000
siesta:     64   11.786550 -556.065281    0.000000
siesta:     65  -23.817018    6.092562    0.000000
siesta:     66  -20.775804 -558.653321    0.000000
siesta:     67   -1.380196    0.470546    0.000000
siesta:     68    3.090487    1.701935    0.000000
siesta:     69    1.176568  127.967249    0.000000
siesta:     70    2.093456 -546.456767    0.000000
siesta:     71    2.181444  119.266501    0.000000
siesta:     72   13.905567 -639.484904    0.000000
siesta: ----------------------------------------
siesta:    Tot    0.089880    0.093546    0.000000

siesta: Stress tensor (static) (eV/Ang**3):
siesta:    -0.447287   -0.003350    0.000000
siesta:    -0.003350   -1.844331    0.000000
siesta:     0.000000    0.000000   -0.000037

siesta: Cell volume =       1893.226884 Ang**3

siesta: Pressure (static):
siesta:                Solid            Molecule  Units
siesta:           0.00831968          0.13204177  Ry/Bohr**3
siesta:           0.76388473         12.12362671  eV/Ang**3
siesta:        1223.89149376      19424.40138979  kBar
(Free)E+ p_basis*V_orbitals  =      -12567.548432
(Free)Eharris+ p_basis*V_orbitals  =      -12567.549615

siesta: Electric dipole (a.u.)  =    0.000000    0.000000    0.000000
siesta: Electric dipole (Debye) =    0.000000    0.000000    0.000000

* Maximum dynamic memory allocated : Node    0 =   204 MB
* Maximum dynamic memory allocated : Node    1 =    71 MB
* Maximum dynamic memory allocated : Node    2 =    75 MB
* Maximum dynamic memory allocated : Node    3 =   195 MB
* Maximum dynamic memory allocated : Node    4 =   182 MB
* Maximum dynamic memory allocated : Node    5 =    70 MB
* Maximum dynamic memory allocated : Node    6 =    71 MB
* Maximum dynamic memory allocated : Node    7 =   167 MB

* Maximum memory occured during matrixMtoO                    

timer: CPU execution times:
timer:  Routine       Calls   Time/call    Tot.time        %
timer:  siesta            1  151213.837  151213.837   100.00
timer:  Setup             1       3.886       3.886     0.00
timer:  bands             3     268.834     806.501     0.53
timer:  writewave         1       0.040       0.040     0.00
timer:  KSV_init          1       0.006       0.006     0.00
timer:  IterMD            1  150397.684  150397.684    99.46
timer:  hsparse           1       0.236       0.236     0.00
timer:  overlap           1       7.717       7.717     0.01
timer:  IterSCF          37    4059.916  150216.901    99.34
timer:  kinefsm           2       3.957       7.914     0.01
timer:  nlefsm            2      18.603      37.206     0.02
timer:  DHSCF            38      89.993    3419.720     2.26
timer:  DHSCF1            1       0.763       0.763     0.00
timer:  DHSCF2            1      33.913      33.913     0.02
timer:  REORD           306       0.010       3.051     0.00
timer:  POISON           39       2.242      87.442     0.06
timer:  DHSCF3           38      88.236    3352.959     2.22
timer:  rhoofd           38      16.979     645.212     0.43
timer:  cellXC           38       3.479     132.220     0.09
timer:  vmat             38      42.536    1616.368     1.07
timer:  MolMec            2       0.000       0.000     0.00
timer:  diagon           37    3968.435  146832.080    97.10
timer:  c-eigval       8668       6.660   57725.396    38.17
timer:  c-buildHS      8668       0.111     964.581     0.64
timer:  cdiag         17215       6.867  118221.646    78.18
timer:  cdiag1        17215       0.425    7311.274     4.84
timer:  cdiag2        17215       1.905   32799.548    21.69
timer:  cdiag3        17215       3.941   67848.832    44.87
timer:  cdiag4        17215       0.203    3500.520     2.31
timer:  c-eigvec       8547       7.252   61982.738    40.99
timer:  c-buildD       8547       3.262   27883.449    18.44
timer:  DHSCF4            1      30.033      30.033     0.02
timer:  dfscf             1      28.230      28.230     0.02
timer:  overfsm           1       0.404       0.404     0.00
timer:  optical           1       5.062       5.062     0.00
  

elaps: ELAPSED times:
elaps:  Routine       Calls   Time/call    Tot.time        %
elaps:  siesta            1   18922.125   18922.125   100.00
elaps:  Setup             1       0.503       0.503     0.00
elaps:  bands             3      33.657     100.970     0.53
elaps:  writewave         1       0.006       0.006     0.00
elaps:  KSV_init          1       0.001       0.001     0.00
elaps:  IterMD            1   18819.983   18819.983    99.46
elaps:  hsparse           1       0.028       0.028     0.00
elaps:  overlap           1       0.967       0.967     0.01
elaps:  IterSCF          37     508.040   18797.483    99.34
elaps:  kinefsm           2       0.496       0.992     0.01
elaps:  nlefsm            2       2.259       4.518     0.02
elaps:  DHSCF            38      11.372     432.145     2.28
elaps:  DHSCF1            1       0.098       0.098     0.00
elaps:  DHSCF2            1       4.242       4.242     0.02
elaps:  REORD           306       0.001       0.392     0.00
elaps:  POISON           39       0.281      10.949     0.06
elaps:  DHSCF3           38      11.039     419.467     2.22
elaps:  rhoofd           38       4.910     186.566     0.99
elaps:  cellXC           38       0.435      16.520     0.09
elaps:  vmat             38       5.321     202.204     1.07
elaps:  MolMec            2       0.000       0.000     0.00
elaps:  diagon           37     496.583   18373.581    97.10
elaps:  c-eigval       8668       0.833    7222.576    38.17
elaps:  c-buildHS      8668       0.015     131.668     0.70
elaps:  cdiag         17215       0.858   14778.972    78.10
elaps:  cdiag1        17215       0.053     912.157     4.82
elaps:  cdiag2        17215       0.238    4104.139    21.69
elaps:  cdiag3        17215       0.494    8500.840    44.93
elaps:  cdiag4        17215       0.026     439.217     2.32
elaps:  c-eigvec       8547       0.910    7781.607    41.12
elaps:  c-buildD       8547       0.405    3463.365    18.30
elaps:  DHSCF4            1       8.066       8.066     0.04
elaps:  dfscf             1       7.675       7.675     0.04
elaps:  overfsm           1       0.048       0.048     0.00
elaps:  optical           1       0.001       0.001     0.00
  
>> End of run:   1-MAY-2016  16:08:49
