Siesta Version:                                        siesta-3.2-pl-3
Architecture  : x86_64-unknown-linux-gnu--unknown
Compiler flags: mpiifort -g -O2 -fPIC -xSSE4.1 -fp-model source -shared-intel 
PARALLEL version

* Running on    8 nodes in parallel
>> Start of run:  26-APR-2016  10:21:37

                           ***********************       
                           *  WELCOME TO SIESTA  *       
                           ***********************       

reinit: Reading from standard input
************************** Dump of input data file ****************************
#(1) General system descriptors
SystemName            GRP_doping    # Descriptive name of the system
SystemLabel           GRP_doping    # Short name for naming files
%include STRUCT.fdf
%include KPT.fdf
%include BASIS.fdf
#%include TS.fdf # for transiesta calculation
#(4) DFT, Grid, SCF
XC.functional         GGA           # LDA or GGA (default = LDA)
XC.authors            PBE           # CA (Ceperley-Aldr) = PZ
                                    #    (Perdew-Zunger) - LDA - Default
                                    # PW92 (Perdew-Wang-92) - LDA
                                    # PBE (Perdew-Burke-Ernzerhof) - GGA
MeshCutoff            200.000000    Ry      # Default: 50.0 Ry ~ 0.444 Bohr
                                    #         100.0 Ry ~ 0.314 Bohr
MaxSCFIterations      500           # Default: 50
DM.MixingWeight       0.05          # Default: 0.25
DM.NumberPulay        10            # Default: 0
DM.PulayOnFile        F             # SystemLabel.P1, SystemLabel.P2
DM.Tolerance          1.d-4         # Default: 1.d-4
DM.UseSaveDM          .true.        # because of the bug
SCFMustConverge       .true.
NeglNonOverlapInt     F             # Default: F
#(5) Eigenvalue problem: order-N or diagonalization
SolutionMethod        Diagon        # or Transiesta
ElectronicTemperature 300.0 K       # Default: 300.0 K
#(6) Molecular dynamics and relaxations
#MD.TypeOfRun          CG            # Type of dynamics:
#MD.VariableCell       F
#MD.NumCGsteps         0           # 0 for single-point / 100 for gopt
#MD.MaxCGDispl         0.2 Bohr      # Default: 0.2 Bohr
#MD.MaxForceTol        0.02 eV/Ang   # Default: 0.04 eV/Ang
#MD.MaxStressTol       1.0 GPa       # Default: 1.0 GPa
# Geometry Constraints
#%block GeometryConstraints
#	position from 1 to 44
#%endblock GeometryConstraints
BandLinesScale   pi/a
%block BandLines
 1   0.00000000  0.00000000  0.00000000
50   0.00000000  0.07809418  0.00000000
50   0.04509075  0.07809242  0.00000000
20   0.00000000  0.00000000  0.00000000
%endblock BandLines
************************** End of input data file *****************************

reinit: -----------------------------------------------------------------------
reinit: System Name: GRP_doping
reinit: -----------------------------------------------------------------------
reinit: System Label: GRP_doping                                                  
reinit: -----------------------------------------------------------------------

initatom: Reading input for the pseudopotentials and atomic orbitals ----------
 Species number:            1  Label: N Atomic number:           7
 Species number:            2  Label: C Atomic number:           6
Ground state valence configuration:   2s02  2p03
Reading pseudopotential information in formatted form from N.psf

Valence configuration for pseudopotential generation:
2s( 2.00) rc: 1.48
2p( 3.00) rc: 1.48
3d( 0.00) rc: 1.48
4f( 0.00) rc: 1.48
Ground state valence configuration:   2s02  2p02
Reading pseudopotential information in formatted form from C.psf

Valence configuration for pseudopotential generation:
2s( 2.00) rc: 1.54
2p( 2.00) rc: 1.54
3d( 0.00) rc: 1.54
4f( 0.00) rc: 1.54
For N, standard SIESTA heuristics set lmxkb to 3
 (one more than the basis l, including polarization orbitals).
Use PS.lmax or PS.KBprojectors blocks to override.
For C, standard SIESTA heuristics set lmxkb to 3
 (one more than the basis l, including polarization orbitals).
Use PS.lmax or PS.KBprojectors blocks to override.

<basis_specs>
===============================================================================
N                    Z=   7    Mass=  14.010        Charge= 0.17977+309
Lmxo=1 Lmxkb= 3    BasisType=split      Semic=F
L=0  Nsemic=0  Cnfigmx=2
          n=1  nzeta=2  polorb=0
            splnorm:   0.15000    
               vcte:    0.0000    
               rinn:    0.0000    
                rcs:    0.0000      0.0000    
            lambdas:    1.0000      1.0000    
L=1  Nsemic=0  Cnfigmx=2
          n=1  nzeta=2  polorb=1
            splnorm:   0.15000    
               vcte:    0.0000    
               rinn:    0.0000    
                rcs:    0.0000      0.0000    
            lambdas:    1.0000      1.0000    
-------------------------------------------------------------------------------
L=0  Nkbl=1  erefs: 0.17977+309
L=1  Nkbl=1  erefs: 0.17977+309
L=2  Nkbl=1  erefs: 0.17977+309
L=3  Nkbl=1  erefs: 0.17977+309
===============================================================================
</basis_specs>

atom: Called for N                     (Z =   7)

read_vps: Pseudopotential generation method:
read_vps: ATM3      Troullier-Martins                       
Total valence charge:    5.00000

read_vps: Pseudopotential includes a core correction:
read_vps: Pseudo-core for xc-correction

xc_check: Exchange-correlation functional:
xc_check: GGA Perdew, Burke & Ernzerhof 1996
V l=0 = -2*Zval/r beyond r=  1.4606
V l=1 = -2*Zval/r beyond r=  1.4606
V l=2 = -2*Zval/r beyond r=  1.4606
V l=3 = -2*Zval/r beyond r=  1.4606
All V_l potentials equal beyond r=  1.4606
This should be close to max(r_c) in ps generation
All pots = -2*Zval/r beyond r=  1.4606

VLOCAL1: 99.0% of the norm of Vloc inside     20.347 Ry
VLOCAL1: 99.9% of the norm of Vloc inside     46.372 Ry
atom: Maximum radius for 4*pi*r*r*local-pseudopot. charge    1.76189
atom: Maximum radius for r*vlocal+2*Zval:    1.53550
GHOST: No ghost state for L =  0
GHOST: No ghost state for L =  1
GHOST: No ghost state for L =  2
GHOST: No ghost state for L =  3

KBgen: Kleinman-Bylander projectors: 
   l= 0   rc=  1.634559   el= -1.363963   Ekb=  5.296955   kbcos=  0.335621
   l= 1   rc=  1.614250   el= -0.521451   Ekb= -5.259161   kbcos= -0.433408
   l= 2   rc=  1.718383   el=  0.001991   Ekb= -1.271464   kbcos= -0.007566
   l= 3   rc=  1.761893   el=  0.003093   Ekb= -0.494769   kbcos= -0.001015

KBgen: Total number of  Kleinman-Bylander projectors:   16
atom: -------------------------------------------------------------------------

atom: SANKEY-TYPE ORBITALS:
atom: Selected multiple-zeta basis: split     

SPLIT: Orbitals with angular momentum L= 0

SPLIT: Basis orbitals for state 2s

SPLIT: PAO cut-off radius determined from an
SPLIT: energy shift=  0.007350 Ry

   izeta = 1
                 lambda =    1.000000
                     rc =    4.071465
                 energy =   -1.356470
                kinetic =    1.176977
    potential(screened) =   -2.533447
       potential(ionic) =   -8.057990

   izeta = 2
                 rmatch =    2.905100
              splitnorm =    0.150000
                 energy =   -1.158343
                kinetic =    1.813009
    potential(screened) =   -2.971352
       potential(ionic) =   -8.901931

SPLIT: Orbitals with angular momentum L= 1

SPLIT: Basis orbitals for state 2p

SPLIT: PAO cut-off radius determined from an
SPLIT: energy shift=  0.007350 Ry

   izeta = 1
                 lambda =    1.000000
                     rc =    4.972977
                 energy =   -0.513884
                kinetic =    3.441732
    potential(screened) =   -3.955616
       potential(ionic) =   -9.287901

   izeta = 2
                 rmatch =    3.054066
              splitnorm =    0.150000
                 energy =   -0.318226
                kinetic =    5.125348
    potential(screened) =   -5.443573
       potential(ionic) =  -11.380999

POLgen: Perturbative polarization orbital with L=  2

POLgen: Polarization orbital for state 2p

   izeta = 1
                     rc =    4.972977
                 energy =    1.607437
                kinetic =    3.268125
    potential(screened) =   -1.660688
       potential(ionic) =   -5.973652
atom: Total number of Sankey-type orbitals: 13

atm_pop: Valence configuration (for local Pseudopot. screening):
 2s( 2.00)                                                            
 2p( 3.00)                                                            
Vna: chval, zval:    5.00000   5.00000

Vna:  Cut-off radius for the neutral-atom potential:   4.972977
comcore: Pseudo-core radius Rcore=  1.554824

atom: _________________________________________________________________________

<basis_specs>
===============================================================================
C                    Z=   6    Mass=  12.010        Charge= 0.17977+309
Lmxo=1 Lmxkb= 3    BasisType=split      Semic=F
L=0  Nsemic=0  Cnfigmx=2
          n=1  nzeta=2  polorb=0
            splnorm:   0.15000    
               vcte:    0.0000    
               rinn:    0.0000    
                rcs:    0.0000      0.0000    
            lambdas:    1.0000      1.0000    
L=1  Nsemic=0  Cnfigmx=2
          n=1  nzeta=2  polorb=1
            splnorm:   0.15000    
               vcte:    0.0000    
               rinn:    0.0000    
                rcs:    0.0000      0.0000    
            lambdas:    1.0000      1.0000    
-------------------------------------------------------------------------------
L=0  Nkbl=1  erefs: 0.17977+309
L=1  Nkbl=1  erefs: 0.17977+309
L=2  Nkbl=1  erefs: 0.17977+309
L=3  Nkbl=1  erefs: 0.17977+309
===============================================================================
</basis_specs>

atom: Called for C                     (Z =   6)

read_vps: Pseudopotential generation method:
read_vps: ATM3      Troullier-Martins                       
Total valence charge:    4.00000

read_vps: Pseudopotential includes a core correction:
read_vps: Pseudo-core for xc-correction

xc_check: Exchange-correlation functional:
xc_check: GGA Perdew, Burke & Ernzerhof 1996
V l=0 = -2*Zval/r beyond r=  1.5227
V l=1 = -2*Zval/r beyond r=  1.5227
V l=2 = -2*Zval/r beyond r=  1.5227
V l=3 = -2*Zval/r beyond r=  1.5038
All V_l potentials equal beyond r=  1.5227
This should be close to max(r_c) in ps generation
All pots = -2*Zval/r beyond r=  1.5227

VLOCAL1: 99.0% of the norm of Vloc inside     18.722 Ry
VLOCAL1: 99.9% of the norm of Vloc inside     42.668 Ry
atom: Maximum radius for 4*pi*r*r*local-pseudopot. charge    1.83678
atom: Maximum radius for r*vlocal+2*Zval:    1.58088
GHOST: No ghost state for L =  0
GHOST: No ghost state for L =  1
GHOST: No ghost state for L =  2
GHOST: No ghost state for L =  3

KBgen: Kleinman-Bylander projectors: 
   l= 0   rc=  1.704034   el= -1.009801   Ekb=  5.335044   kbcos=  0.316824
   l= 1   rc=  1.704034   el= -0.388707   Ekb= -3.785862   kbcos= -0.366464
   l= 2   rc=  1.791422   el=  0.001971   Ekb= -0.970471   kbcos= -0.009212
   l= 3   rc=  1.859892   el=  0.003065   Ekb= -0.399525   kbcos= -0.001223

KBgen: Total number of  Kleinman-Bylander projectors:   16
atom: -------------------------------------------------------------------------

atom: SANKEY-TYPE ORBITALS:
atom: Selected multiple-zeta basis: split     

SPLIT: Orbitals with angular momentum L= 0

SPLIT: Basis orbitals for state 2s

SPLIT: PAO cut-off radius determined from an
SPLIT: energy shift=  0.007350 Ry

   izeta = 1
                 lambda =    1.000000
                     rc =    4.632753
                 energy =   -1.002270
                kinetic =    0.855760
    potential(screened) =   -1.858031
       potential(ionic) =   -5.417575

   izeta = 2
                 rmatch =    3.431921
              splitnorm =    0.150000
                 energy =   -0.867111
                kinetic =    1.300804
    potential(screened) =   -2.167915
       potential(ionic) =   -5.962684

SPLIT: Orbitals with angular momentum L= 1

SPLIT: Basis orbitals for state 2p

SPLIT: PAO cut-off radius determined from an
SPLIT: energy shift=  0.007350 Ry

   izeta = 1
                 lambda =    1.000000
                     rc =    5.658549
                 energy =   -0.381140
                kinetic =    2.399701
    potential(screened) =   -2.780841
       potential(ionic) =   -6.206085

   izeta = 2
                 rmatch =    3.653288
              splitnorm =    0.150000
                 energy =   -0.249149
                kinetic =    3.542762
    potential(screened) =   -3.791911
       potential(ionic) =   -7.581078

POLgen: Perturbative polarization orbital with L=  2

POLgen: Polarization orbital for state 2p

   izeta = 1
                     rc =    5.658549
                 energy =    1.109913
                kinetic =    2.304789
    potential(screened) =   -1.194876
       potential(ionic) =   -4.013592
atom: Total number of Sankey-type orbitals: 13

atm_pop: Valence configuration (for local Pseudopot. screening):
 2s( 2.00)                                                            
 2p( 2.00)                                                            
Vna: chval, zval:    4.00000   4.00000

Vna:  Cut-off radius for the neutral-atom potential:   5.658549
comcore: Pseudo-core radius Rcore=  1.791422

atom: _________________________________________________________________________

prinput: Basis input ----------------------------------------------------------

PAO.BasisType split     

%block ChemicalSpeciesLabel
    1    7 N                       # Species index, atomic number, species label
    2    6 C                       # Species index, atomic number, species label
%endblock ChemicalSpeciesLabel

%block PAO.Basis                 # Define Basis set
N                     2                    # Species label, number of l-shells
 n=2   0   2                         # n, l, Nzeta 
   4.071      2.905   
   1.000      1.000   
 n=2   1   2 P   1                   # n, l, Nzeta, Polarization, NzetaPol
   4.973      3.054   
   1.000      1.000   
C                     2                    # Species label, number of l-shells
 n=2   0   2                         # n, l, Nzeta 
   4.633      3.432   
   1.000      1.000   
 n=2   1   2 P   1                   # n, l, Nzeta, Polarization, NzetaPol
   5.659      3.653   
   1.000      1.000   
%endblock PAO.Basis

prinput: ----------------------------------------------------------------------

coor:   Atomic-coordinates input format  =     Fractional

siesta: Atomic coordinates (Bohr) and species
siesta:     -4.68258  34.85847   0.00000  1        1
siesta:      4.63094  10.66124   0.00000  1        2
siesta:      4.63094  13.34970   0.00000  1        3
siesta:      6.95932  17.38257   0.00000  1        4
siesta:      2.30256  14.69411   0.00000  1        5
siesta:      2.30256  17.38257   0.00000  1        6
siesta:      4.63094  18.72698   0.00000  1        7
siesta:      4.63094  21.41544   0.00000  1        8
siesta:     -0.02582  18.72698   0.00000  1        9
siesta:     -0.02582  21.41544   0.00000  1       10
siesta:      2.30256  22.75985   0.00000  1       11
siesta:     -4.68258  21.41544   0.00000  1       12
siesta:     -2.35420  22.75985   0.00000  1       13
siesta:     -7.01096  22.75985   0.00000  1       14
siesta:     -7.01096  25.44831   0.00000  1       15
siesta:     -9.33934  26.79272   0.00000  1       16
siesta:     -9.33934  29.48119   0.00000  1       17
siesta:     -4.68258  26.79272   0.00000  1       18
siesta:     -4.68258  29.48119   0.00000  1       19
siesta:     -2.35420  30.82560   0.00000  1       20
siesta:     -2.35420  33.51406   0.00000  1       21
siesta:     -7.01096  30.82560   0.00000  1       22
siesta:     -7.01096  33.51406   0.00000  1       23
siesta:     -0.02582   2.59549   0.00000  2       24
siesta:     -0.02582   5.28395   0.00000  2       25
siesta:     -2.35420  38.89134   0.00000  2       26
siesta:     -2.35420  41.57980   0.00000  2       27
siesta:      2.30256  38.89134   0.00000  2       28
siesta:      2.30256  41.57980   0.00000  2       29
siesta:      4.63094  34.85847   0.00000  2       30
siesta:      4.63094  37.54693   0.00000  2       31
siesta:      6.95932  30.82560   0.00000  2       32
siesta:      6.95932  33.51406   0.00000  2       33
siesta:      9.28770  26.79272   0.00000  2       34
siesta:      9.28770  29.48119   0.00000  2       35
siesta:     -4.68258  37.54693   0.00000  2       36
siesta:      2.30256   6.62836   0.00000  2       37
siesta:      2.30256   9.31683   0.00000  2       38
siesta:      6.95932  14.69411   0.00000  2       39
siesta:      9.28770  18.72698   0.00000  2       40
siesta:      9.28770  21.41544   0.00000  2       41
siesta:     11.61608  22.75985   0.00000  2       42
siesta:     11.61608  25.44831   0.00000  2       43
siesta:     -2.35420   6.62836   0.00000  2       44
siesta:     -2.35420   9.31683   0.00000  2       45
siesta:     -0.02582  10.66124   0.00000  2       46
siesta:     -0.02582  13.34970   0.00000  2       47
siesta:      6.95932  22.75985   0.00000  2       48
siesta:      6.95932  25.44831   0.00000  2       49
siesta:     -4.68258  10.66124   0.00000  2       50
siesta:     -4.68258  13.34970   0.00000  2       51
siesta:     -2.35420  14.69411   0.00000  2       52
siesta:     -2.35420  17.38257   0.00000  2       53
siesta:      2.30256  25.44831   0.00000  2       54
siesta:     -7.01096  14.69411   0.00000  2       55
siesta:     -7.01096  17.38257   0.00000  2       56
siesta:     -4.68258  18.72698   0.00000  2       57
siesta:     -2.35420  25.44831   0.00000  2       58
siesta:     -9.33934  18.72698   0.00000  2       59
siesta:     -9.33934  21.41544   0.00000  2       60
siesta:    -11.66772  22.75985   0.00000  2       61
siesta:    -11.66772  25.44831   0.00000  2       62
siesta:      4.63094  26.79272   0.00000  2       63
siesta:      4.63094  29.48119   0.00000  2       64
siesta:     -0.02582  26.79272   0.00000  2       65
siesta:     -0.02582  29.48119   0.00000  2       66
siesta:      2.30256  30.82560   0.00000  2       67
siesta:      2.30256  33.51406   0.00000  2       68
siesta:     -0.02582  34.85847   0.00000  2       69
siesta:     -0.02582  37.54693   0.00000  2       70
siesta:     -0.02582  42.92421   0.00000  2       71
siesta:     -0.02582  45.61267   0.00000  2       72

siesta: System type = slab      

initatomlists: Number of atoms, orbitals, and projectors:     72   936  1152

siesta: ******************** Simulation parameters ****************************
siesta:
siesta: The following are some of the parameters of the simulation.
siesta: A complete list of the parameters used, including default values,
siesta: can be found in file out.fdf
siesta:
redata: Non-Collinear-spin run           =     F
redata: SpinPolarized (Up/Down) run      =     F
redata: Number of spin components        =     1
redata: Long output                      =     F
redata: Number of Atomic Species         =        2
redata: Charge density info will appear in .RHO file
redata: Write Mulliken Pop.              =     NO
redata: Mesh Cutoff                      =   200.0000  Ry
redata: Net charge of the system         =     0.0000 |e|
redata: Max. number of SCF Iter          =      500
redata: SCF convergence failure will abort job
redata: Performing Pulay mixing using    =    10 iterations
redata: Mix DM in first SCF step ?       =     F
redata: Write Pulay info on disk?        =     F
redata: Discard 1st Pulay DM after  kick =     F
redata: New DM Mixing Weight             =     0.0500
redata: New DM Occupancy tolerance       = 0.000000000001
redata: No kicks to SCF
redata: DM Mixing Weight for Kicks       =     0.5000
redata: DM Tolerance for SCF             =     0.000100
redata: Require Energy convergence for SCF =     F
redata: DM Energy tolerance for SCF      =     0.000100 eV
redata: Require Harris convergence for SCF =     F
redata: DM Harris energy tolerance for SCF =     0.000100 eV
redata: Using Saved Data (generic)   =     F
redata: Use continuation files for DM    =     T
redata: Neglect nonoverlap interactions  =     F
redata: Method of Calculation            =     Diagonalization
redata: Divide and Conquer               =     T
redata: Electronic Temperature           =     0.0019  Ry
redata: Fix the spin of the system       =     F
redata: Dynamics option                  =     Verlet MD run
redata: Initial MD time step             =        1
redata:   Final MD time step             =        1
redata: Length of MD time step           =     1.0000  fs
redata: Initial Temperature of MD run    =     0.0000  K
redata: Perform a MD quench              =     F
redata: ***********************************************************************
Total number of electrons:   311.000000
Total ionic charge:   311.000000

* ProcessorY, Blocksize:    2  24

k-point displ. along   1 input, could be:     0.50    0.00
k-point displ. along   2 input, could be:     0.50    0.00
 Kpoints in:          231 . Kpoints trimmed:          231

siesta: k-grid: Number of k-points =   231
siesta: k-grid: Cutoff (effective) =     5.000 Ang
siesta: k-grid: Supercell and displacements
siesta: k-grid:   21   0   0      0.500
siesta: k-grid:    0  21   0      0.500
siesta: k-grid:    0   0   1      0.000
Naive supercell factors:     2    2    2

superc: Internal auxiliary supercell:     2 x     2 x     2  =       8
superc: Number of atoms, orbitals, and projectors:    576   7488   9216

* Maximum dynamic memory allocated =     4 MB

siesta:                 ==============================
                            Begin MD step =      1
                        ==============================

superc: Internal auxiliary supercell:     2 x     2 x     2  =       8
superc: Number of atoms, orbitals, and projectors:    576   7488   9216

outcell: Unit cell vectors (Ang):
       12.804619    7.392750    0.000000
        0.000000   14.785500    0.000000
        0.000000    0.000000   10.000000

outcell: Cell vector modules (Ang)   :   14.785500   14.785500   10.000000
outcell: Cell angles (23,13,12) (deg):     90.0000     90.0000     60.0000
outcell: Cell volume (Ang**3)        :   1893.2269
New_DM. Step:     1
Initializing Density Matrix...

InitMesh: MESH =   120 x   120 x    90 =     1296000
InitMesh: Mesh cutoff (required, used) =   200.000   223.865 Ry

* Maximum dynamic memory allocated =   179 MB

stepf: Fermi-Dirac step function

siesta: Program's energy decomposition (eV):
siesta: Ebs     =     -6300.258138
siesta: Eions   =     22100.188487
siesta: Ena     =      4965.195437
siesta: Ekin    =      8308.399223
siesta: Enl     =       -19.412478
siesta: DEna    =        -0.000015
siesta: DUscf   =         0.000000
siesta: DUext   =         0.000000
siesta: Exc     =     -4743.517186
siesta: eta*DQ  =         0.000000
siesta: Emadel  =         0.000000
siesta: Emeta   =         0.000000
siesta: Emolmec =         0.000000
siesta: Ekinion =         0.000000
siesta: Eharris =    -13235.027629
siesta: Etot    =    -13589.523506
siesta: FreeEng =    -13589.523506

siesta: iscf   Eharris(eV)      E_KS(eV)   FreeEng(eV)   dDmax  Ef(eV)
siesta:    1   -13235.0276   -13589.5235   -13589.5235  6.3604 -6.7710
timer: Routine,Calls,Time,% = IterSCF        1    3348.062  99.69
elaps: Routine,Calls,Wall,% = IterSCF        1     419.313  99.69
siesta:    2   -19848.5992   -12326.3948   -12326.4219 19.2384 -7.1590
siesta:    3   -13206.4464   -13371.8012   -13371.8308  2.3355 -4.8736
siesta:    4   -13137.6312   -13249.0063   -13249.0723  1.2673 -4.3826
siesta:    5   -13085.4332   -13154.6653   -13154.7152  0.9057 -3.7645
siesta:    6   -13075.2138   -13123.1583   -13123.2000  0.8421 -3.6539
siesta:    7   -13054.5907   -13095.3755   -13095.4572  0.7064 -3.5328
siesta:    8   -13052.8251   -13086.2150   -13086.2668  0.6378 -3.5132
siesta:    9   -13052.2585   -13074.0266   -13074.0701  0.5175 -3.5293
siesta:   10   -13052.0333   -13061.5131   -13061.5625  0.3319 -3.6148
siesta:   11   -13051.4507   -13053.2841   -13053.3524  0.2995 -3.5795
siesta:   12   -13051.9132   -13044.1382   -13044.1924  0.2176 -3.5817
siesta:   13   -13051.4452   -13041.7970   -13041.8697  0.2281 -3.5794
siesta:   14   -13051.0520   -13043.7522   -13043.8353  0.1938 -3.5690
siesta:   15   -13050.5452   -13046.9514   -13047.0299  0.1126 -3.5638
siesta:   16   -13050.4843   -13048.0925   -13048.1724  0.0870 -3.5536
siesta:   17   -13050.3761   -13048.7673   -13048.8448  0.0579 -3.5533
siesta:   18   -13050.3578   -13050.2822   -13050.3603  0.0619 -3.5614
siesta:   19   -13050.3542   -13050.9184   -13051.0041  0.0452 -3.5531
siesta:   20   -13050.3514   -13052.2112   -13052.2908  0.0350 -3.5539
siesta:   21   -13050.3385   -13052.4894   -13052.5686  0.0313 -3.5554
siesta:   22   -13050.3377   -13052.8048   -13052.8859  0.0250 -3.5528
siesta:   23   -13050.3367   -13052.9532   -13053.0334  0.0228 -3.5462
siesta:   24   -13050.3378   -13052.8873   -13052.9660  0.0210 -3.5390
siesta:   25   -13050.3360   -13052.5512   -13052.6274  0.0190 -3.5370
siesta:   26   -13050.3356   -13051.3882   -13051.4660  0.0082 -3.5317
siesta:   27   -13050.3352   -13051.1294   -13051.2069  0.0059 -3.5329
siesta:   28   -13050.3348   -13050.8715   -13050.9489  0.0023 -3.5332
siesta:   29   -13050.3346   -13050.7746   -13050.8520  0.0023 -3.5337
siesta:   30   -13050.3347   -13050.6178   -13050.6954  0.0013 -3.5336
siesta:   31   -13050.3348   -13050.4773   -13050.5547  0.0008 -3.5342
siesta:   32   -13050.3349   -13050.3660   -13050.4434  0.0008 -3.5343
siesta:   33   -13050.3349   -13050.3386   -13050.4158  0.0006 -3.5344
siesta:   34   -13050.3348   -13050.3306   -13050.4079  0.0003 -3.5346
siesta:   35   -13050.3347   -13050.3294   -13050.4067  0.0001 -3.5347
siesta:   36   -13050.3348   -13050.3245   -13050.4019  0.0001 -3.5346
siesta:   37   -13050.3347   -13050.3260   -13050.4034  0.0001 -3.5346

siesta: E_KS(eV) =           -13050.3253

siesta: E_KS - E_eggbox =    -13050.3253

siesta: Atomic forces (eV/Ang):
----------------------------------------
   Tot    0.040474    0.028002    0.000000
----------------------------------------
   Max  685.049967
   Res  176.231975    sqrt( Sum f_i^2 / 3N )
----------------------------------------
   Max  685.049967    constrained

Stress-tensor-Voigt (kbar):     -714.09    -3121.27       -0.02       35.05        0.00        0.00
(Free)E + p*V (eV/cell)   -11539.7117
Target enthalpy (eV/cell)   -13050.4026

siesta: Stress tensor (static) (eV/Ang**3):
        -0.445697    0.021878    0.000000
         0.021877   -1.948123    0.000000
         0.000000    0.000000   -0.000015

siesta: Pressure (static):       1278.46268550  kBar

siesta: Stress tensor (total) (eV/Ang**3):
        -0.445697    0.021878    0.000000
         0.021877   -1.948123    0.000000
         0.000000    0.000000   -0.000015

siesta: Pressure (total):       1278.46268550  kBar

siesta: Temp_ion =       0.000 K

* Maximum dynamic memory allocated =   196 MB
Computing bands...

siesta: Program's energy decomposition (eV):
siesta: Ebs     =     -5076.010056
siesta: Eions   =     22100.188487
siesta: Ena     =      4965.195437
siesta: Ekin    =     11368.731715
siesta: Enl     =     -1685.930911
siesta: DEna    =      -794.705368
siesta: DUscf   =       113.450592
siesta: DUext   =         0.000000
siesta: Exc     =     -4916.878236
siesta: eta*DQ  =         0.000000
siesta: Emadel  =         0.000000
siesta: Emeta   =         0.000000
siesta: Emolmec =         0.000000
siesta: Ekinion =         0.000000
siesta: Eharris =    -13050.334747
siesta: Etot    =    -13050.325258
siesta: FreeEng =    -13050.402631

siesta: Final energy (eV):
siesta:  Band Struct. =   -5076.010056
siesta:       Kinetic =   11368.731715
siesta:       Hartree =   36351.952742
siesta:    Ext. field =       0.000000
siesta:   Exch.-corr. =   -4916.878236
siesta:  Ion-electron =  -83555.164955
siesta:       Ion-ion =   27701.033477
siesta:       Ekinion =       0.000000
siesta:         Total =  -13050.325258

siesta: Atomic forces (eV/Ang):
siesta:      1  -30.262494   13.039163    0.000000
siesta:      2   21.647063  652.220256    0.000000
siesta:      3   31.800432   -4.671590    0.000000
siesta:      4    3.245981   -2.429232    0.000000
siesta:      5   -2.394265  677.612746    0.000000
siesta:      6   33.544545  -13.313857    0.000000
siesta:      7   -0.633218    3.262090    0.000000
siesta:      8    1.607571    0.997104    0.000000
siesta:      9  -14.335037  685.049967    0.000000
siesta:     10   -0.340860   -5.649667    0.000000
siesta:     11    1.847160    1.005896    0.000000
siesta:     12    0.895036   -0.973630    0.000000
siesta:     13   -3.222497    2.759105    0.000000
siesta:     14   -1.045494    0.406535    0.000000
siesta:     15    2.445522   -0.154151    0.000000
siesta:     16   -2.965618    0.426692    0.000000
siesta:     17    0.949156    0.286986    0.000000
siesta:     18   -0.119111   -2.147679    0.000000
siesta:     19   -1.982803   -3.735731    0.000000
siesta:     20  -25.962776    5.947029    0.000000
siesta:     21   10.161360 -672.212741    0.000000
siesta:     22   -0.860038    0.059563    0.000000
siesta:     23   -1.053928   -3.839457    0.000000
siesta:     24  -16.843330  550.180100    0.000000
siesta:     25   -6.006389 -123.661276    0.000000
siesta:     26   -0.131767  127.058827    0.000000
siesta:     27  -11.841962 -547.871232    0.000000
siesta:     28   -1.234893  119.261287    0.000000
siesta:     29   32.323845 -652.601970    0.000000
siesta:     30   25.732367    5.480933    0.000000
siesta:     31   35.414847 -656.465461    0.000000
siesta:     32    1.855324    0.326203    0.000000
siesta:     33   -2.389444    1.185157    0.000000
siesta:     34    2.126980    2.373713    0.000000
siesta:     35   -1.057458   -0.053128    0.000000
siesta:     36  -22.696306 -550.425267    0.000000
siesta:     37   13.876335  548.106648    0.000000
siesta:     38   -4.731217 -131.483784    0.000000
siesta:     39   -1.172637    2.412540    0.000000
siesta:     40   -0.778155   -1.229135    0.000000
siesta:     41    0.508977   -2.502061    0.000000
siesta:     42    0.076237    6.545967    0.000000
siesta:     43   -0.153621   -7.363859    0.000000
siesta:     44  -35.790413  653.402430    0.000000
siesta:     45   -1.810506 -119.066992    0.000000
siesta:     46    7.543448  546.666327    0.000000
siesta:     47   -1.297929 -128.892619    0.000000
siesta:     48   -1.566312    0.634817    0.000000
siesta:     49   -0.717505   -0.975918    0.000000
siesta:     50  -34.537518  553.316501    0.000000
siesta:     51  -27.226834   -5.179678    0.000000
siesta:     52  -25.603468  557.663779    0.000000
siesta:     53  -25.650330  -10.221626    0.000000
siesta:     54   -0.881577   -0.312623    0.000000
siesta:     55    2.173525   -1.139183    0.000000
siesta:     56   -1.359074    0.225336    0.000000
siesta:     57    1.130155    3.144619    0.000000
siesta:     58   -1.016759    0.574381    0.000000
siesta:     59    0.729676    0.273616    0.000000
siesta:     60   -1.757343   -1.333175    0.000000
siesta:     61    1.190911    3.085360    0.000000
siesta:     62    1.686948   -0.353007    0.000000
siesta:     63    0.375365    0.284506    0.000000
siesta:     64   -1.243113   -2.892180    0.000000
siesta:     65    0.363689   -1.637773    0.000000
siesta:     66   19.532440 -577.009407    0.000000
siesta:     67   23.271732    5.705208    0.000000
siesta:     68   23.317918 -560.456064    0.000000
siesta:     69    1.827798  128.146488    0.000000
siesta:     70   -0.365403 -546.450693    0.000000
siesta:     71    3.659260  120.444817    0.000000
siesta:     72    8.218271 -640.838844    0.000000
siesta: ----------------------------------------
siesta:    Tot    0.040474    0.028002    0.000000

siesta: Stress tensor (static) (eV/Ang**3):
siesta:    -0.445697    0.021878    0.000000
siesta:     0.021877   -1.948123    0.000000
siesta:     0.000000    0.000000   -0.000015

siesta: Cell volume =       1893.226884 Ang**3

siesta: Pressure (static):
siesta:                Solid            Molecule  Units
siesta:           0.00869064          0.13852652  Ry/Bohr**3
siesta:           0.79794502         12.71903398  eV/Ang**3
siesta:        1278.46268550      20378.35932507  kBar
(Free)E+ p_basis*V_orbitals  =      -13022.953176
(Free)Eharris+ p_basis*V_orbitals  =      -13022.961924

siesta: Electric dipole (a.u.)  =    0.000000    0.000000    0.000000
siesta: Electric dipole (Debye) =    0.000000    0.000000    0.000000

* Maximum dynamic memory allocated : Node    0 =   196 MB
* Maximum dynamic memory allocated : Node    1 =    70 MB
* Maximum dynamic memory allocated : Node    2 =    72 MB
* Maximum dynamic memory allocated : Node    3 =   188 MB
* Maximum dynamic memory allocated : Node    4 =   187 MB
* Maximum dynamic memory allocated : Node    5 =    71 MB
* Maximum dynamic memory allocated : Node    6 =    72 MB
* Maximum dynamic memory allocated : Node    7 =   171 MB

* Maximum memory occured during matrixMtoO                    

timer: CPU execution times:
timer:  Routine       Calls   Time/call    Tot.time        %
timer:  siesta            1  122027.855  122027.855   100.00
timer:  Setup             1       2.696       2.696     0.00
timer:  bands             3     243.188     729.565     0.60
timer:  writewave         1       0.020       0.020     0.00
timer:  KSV_init          1       0.003       0.003     0.00
timer:  IterMD            1  121290.369  121290.369    99.40
timer:  hsparse           1       0.284       0.284     0.00
timer:  overlap           1       7.123       7.123     0.01
timer:  IterSCF          37    3274.161  121143.969    99.28
timer:  kinefsm           2       3.673       7.346     0.01
timer:  nlefsm            2      17.107      34.213     0.03
timer:  DHSCF            38      75.099    2853.775     2.34
timer:  DHSCF1            1       0.742       0.742     0.00
timer:  DHSCF2            1      29.986      29.986     0.02
timer:  REORD           306       0.005       1.483     0.00
timer:  POISON           39       0.865      33.743     0.03
timer:  DHSCF3           38      73.546    2794.754     2.29
timer:  rhoofd           38      15.351     583.337     0.48
timer:  cellXC           38       3.199     121.580     0.10
timer:  vmat             38      33.041    1255.574     1.03
timer:  MolMec            2       0.000       0.000     0.00
timer:  diagon           37    3198.285  118336.529    96.98
timer:  c-eigval       8668       6.022   52194.437    42.77
timer:  c-buildHS      8668       0.045     392.741     0.32
timer:  cdiag         17215       6.143  105744.722    86.66
timer:  cdiag1        17215       0.382    6583.710     5.40
timer:  cdiag2        17215       1.765   30391.971    24.91
timer:  cdiag3        17215       3.740   64385.077    52.76
timer:  cdiag4        17215       0.152    2614.199     2.14
timer:  c-eigvec       8547       6.347   54251.095    44.46
timer:  c-buildD       8547       1.472   12577.042    10.31
timer:  DHSCF4            1      27.534      27.534     0.02
timer:  dfscf             1      25.679      25.679     0.02
timer:  overfsm           1       0.376       0.376     0.00
timer:  optical           1       4.555       4.555     0.00
  

elaps: ELAPSED times:
elaps:  Routine       Calls   Time/call    Tot.time        %
elaps:  siesta            1   15282.142   15282.142   100.00
elaps:  Setup             1       0.339       0.339     0.00
elaps:  bands             3      30.473      91.418     0.60
elaps:  writewave         1       0.002       0.002     0.00
elaps:  KSV_init          1       0.000       0.000     0.00
elaps:  IterMD            1   15189.783   15189.783    99.40
elaps:  hsparse           1       0.035       0.035     0.00
elaps:  overlap           1       0.891       0.891     0.01
elaps:  IterSCF          37     410.039   15171.453    99.28
elaps:  kinefsm           2       0.459       0.917     0.01
elaps:  nlefsm            2       2.164       4.329     0.03
elaps:  DHSCF            38       9.503     361.123     2.36
elaps:  DHSCF1            1       0.095       0.095     0.00
elaps:  DHSCF2            1       3.754       3.754     0.02
elaps:  REORD           306       0.001       0.203     0.00
elaps:  POISON           39       0.110       4.273     0.03
elaps:  DHSCF3           38       9.211     350.023     2.29
elaps:  rhoofd           38       4.541     172.541     1.13
elaps:  cellXC           38       0.400      15.214     0.10
elaps:  vmat             38       4.138     157.252     1.03
elaps:  MolMec            2       0.000       0.000     0.00
elaps:  diagon           37     400.533   14819.709    96.97
elaps:  c-eigval       8668       0.754    6536.533    42.77
elaps:  c-buildHS      8668       0.006      50.947     0.33
elaps:  cdiag         17215       0.771   13276.119    86.87
elaps:  cdiag1        17215       0.048     823.111     5.39
elaps:  cdiag2        17215       0.221    3806.976    24.91
elaps:  cdiag3        17215       0.469    8074.002    52.83
elaps:  cdiag4        17215       0.019     324.296     2.12
elaps:  c-eigvec       8547       0.799    6831.368    44.70
elaps:  c-buildD       8547       0.180    1537.328    10.06
elaps:  DHSCF4            1       7.159       7.159     0.05
elaps:  dfscf             1       6.765       6.765     0.04
elaps:  overfsm           1       0.046       0.046     0.00
elaps:  optical           1       0.000       0.000     0.00
  
>> End of run:  26-APR-2016  14:36:19
