Siesta Version:                                        siesta-3.2-pl-3
Architecture  : x86_64-unknown-linux-gnu--unknown
Compiler flags: mpiifort -g -O2 -fPIC -xSSE4.1 -fp-model source -shared-intel 
PARALLEL version

* Running on    8 nodes in parallel
>> Start of run:  27-APR-2016  13:18:44

                           ***********************       
                           *  WELCOME TO SIESTA  *       
                           ***********************       

reinit: Reading from standard input
************************** Dump of input data file ****************************
#(1) General system descriptors
SystemName            GRP_doping    # Descriptive name of the system
SystemLabel           GRP_doping    # Short name for naming files
%include STRUCT.fdf
%include KPT.fdf
%include BASIS.fdf
#%include TS.fdf # for transiesta calculation
#(4) DFT, Grid, SCF
XC.functional         GGA           # LDA or GGA (default = LDA)
XC.authors            PBE           # CA (Ceperley-Aldr) = PZ
                                    #    (Perdew-Zunger) - LDA - Default
                                    # PW92 (Perdew-Wang-92) - LDA
                                    # PBE (Perdew-Burke-Ernzerhof) - GGA
MeshCutoff            200.000000    Ry      # Default: 50.0 Ry ~ 0.444 Bohr
                                    #         100.0 Ry ~ 0.314 Bohr
MaxSCFIterations      500           # Default: 50
DM.MixingWeight       0.05          # Default: 0.25
DM.NumberPulay        10            # Default: 0
DM.PulayOnFile        F             # SystemLabel.P1, SystemLabel.P2
DM.Tolerance          1.d-4         # Default: 1.d-4
DM.UseSaveDM          .true.        # because of the bug
SCFMustConverge       .true.
NeglNonOverlapInt     F             # Default: F
#(5) Eigenvalue problem: order-N or diagonalization
SolutionMethod        Diagon        # or Transiesta
ElectronicTemperature 300.0 K       # Default: 300.0 K
#(6) Molecular dynamics and relaxations
#MD.TypeOfRun          CG            # Type of dynamics:
#MD.VariableCell       F
#MD.NumCGsteps         0           # 0 for single-point / 100 for gopt
#MD.MaxCGDispl         0.2 Bohr      # Default: 0.2 Bohr
#MD.MaxForceTol        0.02 eV/Ang   # Default: 0.04 eV/Ang
#MD.MaxStressTol       1.0 GPa       # Default: 1.0 GPa
# Geometry Constraints
#%block GeometryConstraints
#	position from 1 to 44
#%endblock GeometryConstraints
BandLinesScale   pi/a
%block BandLines
 1   0.00000000  0.00000000  0.00000000
50   0.00000000  0.07809418  0.00000000
50   0.04509075  0.07809242  0.00000000
20   0.00000000  0.00000000  0.00000000
%endblock BandLines
************************** End of input data file *****************************

reinit: -----------------------------------------------------------------------
reinit: System Name: GRP_doping
reinit: -----------------------------------------------------------------------
reinit: System Label: GRP_doping                                                  
reinit: -----------------------------------------------------------------------

initatom: Reading input for the pseudopotentials and atomic orbitals ----------
 Species number:            1  Label: B Atomic number:           5
 Species number:            2  Label: C Atomic number:           6
Ground state valence configuration:   2s02  2p01
Reading pseudopotential information in formatted form from B.psf

Valence configuration for pseudopotential generation:
2s( 2.00) rc: 1.74
2p( 1.00) rc: 1.74
3d( 0.00) rc: 1.74
4f( 0.00) rc: 1.74
Ground state valence configuration:   2s02  2p02
Reading pseudopotential information in formatted form from C.psf

Valence configuration for pseudopotential generation:
2s( 2.00) rc: 1.54
2p( 2.00) rc: 1.54
3d( 0.00) rc: 1.54
4f( 0.00) rc: 1.54
For B, standard SIESTA heuristics set lmxkb to 3
 (one more than the basis l, including polarization orbitals).
Use PS.lmax or PS.KBprojectors blocks to override.
For C, standard SIESTA heuristics set lmxkb to 3
 (one more than the basis l, including polarization orbitals).
Use PS.lmax or PS.KBprojectors blocks to override.

<basis_specs>
===============================================================================
B                    Z=   5    Mass=  10.810        Charge= 0.17977+309
Lmxo=1 Lmxkb= 3    BasisType=split      Semic=F
L=0  Nsemic=0  Cnfigmx=2
          n=1  nzeta=2  polorb=0
            splnorm:   0.15000    
               vcte:    0.0000    
               rinn:    0.0000    
                rcs:    0.0000      0.0000    
            lambdas:    1.0000      1.0000    
L=1  Nsemic=0  Cnfigmx=2
          n=1  nzeta=2  polorb=1
            splnorm:   0.15000    
               vcte:    0.0000    
               rinn:    0.0000    
                rcs:    0.0000      0.0000    
            lambdas:    1.0000      1.0000    
-------------------------------------------------------------------------------
L=0  Nkbl=1  erefs: 0.17977+309
L=1  Nkbl=1  erefs: 0.17977+309
L=2  Nkbl=1  erefs: 0.17977+309
L=3  Nkbl=1  erefs: 0.17977+309
===============================================================================
</basis_specs>

atom: Called for B                     (Z =   5)

read_vps: Pseudopotential generation method:
read_vps: ATM3      Troullier-Martins                       
Total valence charge:    3.00000

read_vps: Pseudopotential includes a core correction:
read_vps: Pseudo-core for xc-correction

xc_check: Exchange-correlation functional:
xc_check: GGA Perdew, Burke & Ernzerhof 1996
V l=0 = -2*Zval/r beyond r=  1.7165
V l=1 = -2*Zval/r beyond r=  1.7165
V l=2 = -2*Zval/r beyond r=  1.7165
V l=3 = -2*Zval/r beyond r=  1.6951
All V_l potentials equal beyond r=  1.7165
This should be close to max(r_c) in ps generation
All pots = -2*Zval/r beyond r=  1.7165

VLOCAL1: 99.0% of the norm of Vloc inside     14.733 Ry
VLOCAL1: 99.9% of the norm of Vloc inside     33.577 Ry
atom: Maximum radius for 4*pi*r*r*local-pseudopot. charge    2.04484
atom: Maximum radius for r*vlocal+2*Zval:    1.75994
GHOST: No ghost state for L =  0
GHOST: No ghost state for L =  1
GHOST: No ghost state for L =  2
GHOST: No ghost state for L =  3

KBgen: Kleinman-Bylander projectors: 
   l= 0   rc=  1.897051   el= -0.693730   Ekb=  4.595746   kbcos=  0.286105
   l= 1   rc=  1.920920   el= -0.265236   Ekb= -2.350715   kbcos= -0.315747
   l= 2   rc=  2.044840   el=  0.002055   Ekb= -0.690767   kbcos= -0.013822
   l= 3   rc=  2.149707   el=  0.003188   Ekb= -0.315358   kbcos= -0.002055

KBgen: Total number of  Kleinman-Bylander projectors:   16
atom: -------------------------------------------------------------------------

atom: SANKEY-TYPE ORBITALS:
atom: Selected multiple-zeta basis: split     

SPLIT: Orbitals with angular momentum L= 0

SPLIT: Basis orbitals for state 2s

SPLIT: PAO cut-off radius determined from an
SPLIT: energy shift=  0.007350 Ry

   izeta = 1
                 lambda =    1.000000
                     rc =    5.422032
                 energy =   -0.686029
                kinetic =    0.576707
    potential(screened) =   -1.262736
       potential(ionic) =   -3.271094

   izeta = 2
                 rmatch =    4.222573
              splitnorm =    0.150000
                 energy =   -0.602132
                kinetic =    0.858975
    potential(screened) =   -1.461107
       potential(ionic) =   -3.582536

SPLIT: Orbitals with angular momentum L= 1

SPLIT: Basis orbitals for state 2p

SPLIT: PAO cut-off radius determined from an
SPLIT: energy shift=  0.007350 Ry

   izeta = 1
                 lambda =    1.000000
                     rc =    6.790259
                 energy =   -0.258578
                kinetic =    1.481412
    potential(screened) =   -1.739989
       potential(ionic) =   -3.657461

   izeta = 2
                 rmatch =    4.608740
              splitnorm =    0.150000
                 energy =   -0.173757
                kinetic =    2.186690
    potential(screened) =   -2.360447
       potential(ionic) =   -4.464260

POLgen: Perturbative polarization orbital with L=  2

POLgen: Polarization orbital for state 2p

   izeta = 1
                     rc =    6.790259
                 energy =    0.684082
                kinetic =    1.471481
    potential(screened) =   -0.787399
       potential(ionic) =   -2.406985
atom: Total number of Sankey-type orbitals: 13

atm_pop: Valence configuration (for local Pseudopot. screening):
 2s( 2.00)                                                            
 2p( 1.00)                                                            
Vna: chval, zval:    3.00000   3.00000

Vna:  Cut-off radius for the neutral-atom potential:   6.790259
comcore: Pseudo-core radius Rcore=  2.122997

atom: _________________________________________________________________________

<basis_specs>
===============================================================================
C                    Z=   6    Mass=  12.010        Charge= 0.17977+309
Lmxo=1 Lmxkb= 3    BasisType=split      Semic=F
L=0  Nsemic=0  Cnfigmx=2
          n=1  nzeta=2  polorb=0
            splnorm:   0.15000    
               vcte:    0.0000    
               rinn:    0.0000    
                rcs:    0.0000      0.0000    
            lambdas:    1.0000      1.0000    
L=1  Nsemic=0  Cnfigmx=2
          n=1  nzeta=2  polorb=1
            splnorm:   0.15000    
               vcte:    0.0000    
               rinn:    0.0000    
                rcs:    0.0000      0.0000    
            lambdas:    1.0000      1.0000    
-------------------------------------------------------------------------------
L=0  Nkbl=1  erefs: 0.17977+309
L=1  Nkbl=1  erefs: 0.17977+309
L=2  Nkbl=1  erefs: 0.17977+309
L=3  Nkbl=1  erefs: 0.17977+309
===============================================================================
</basis_specs>

atom: Called for C                     (Z =   6)

read_vps: Pseudopotential generation method:
read_vps: ATM3      Troullier-Martins                       
Total valence charge:    4.00000

read_vps: Pseudopotential includes a core correction:
read_vps: Pseudo-core for xc-correction

xc_check: Exchange-correlation functional:
xc_check: GGA Perdew, Burke & Ernzerhof 1996
V l=0 = -2*Zval/r beyond r=  1.5227
V l=1 = -2*Zval/r beyond r=  1.5227
V l=2 = -2*Zval/r beyond r=  1.5227
V l=3 = -2*Zval/r beyond r=  1.5038
All V_l potentials equal beyond r=  1.5227
This should be close to max(r_c) in ps generation
All pots = -2*Zval/r beyond r=  1.5227

VLOCAL1: 99.0% of the norm of Vloc inside     18.722 Ry
VLOCAL1: 99.9% of the norm of Vloc inside     42.668 Ry
atom: Maximum radius for 4*pi*r*r*local-pseudopot. charge    1.83678
atom: Maximum radius for r*vlocal+2*Zval:    1.58088
GHOST: No ghost state for L =  0
GHOST: No ghost state for L =  1
GHOST: No ghost state for L =  2
GHOST: No ghost state for L =  3

KBgen: Kleinman-Bylander projectors: 
   l= 0   rc=  1.704034   el= -1.009801   Ekb=  5.335044   kbcos=  0.316824
   l= 1   rc=  1.704034   el= -0.388707   Ekb= -3.785862   kbcos= -0.366464
   l= 2   rc=  1.791422   el=  0.001971   Ekb= -0.970471   kbcos= -0.009212
   l= 3   rc=  1.859892   el=  0.003065   Ekb= -0.399525   kbcos= -0.001223

KBgen: Total number of  Kleinman-Bylander projectors:   16
atom: -------------------------------------------------------------------------

atom: SANKEY-TYPE ORBITALS:
atom: Selected multiple-zeta basis: split     

SPLIT: Orbitals with angular momentum L= 0

SPLIT: Basis orbitals for state 2s

SPLIT: PAO cut-off radius determined from an
SPLIT: energy shift=  0.007350 Ry

   izeta = 1
                 lambda =    1.000000
                     rc =    4.632753
                 energy =   -1.002270
                kinetic =    0.855760
    potential(screened) =   -1.858031
       potential(ionic) =   -5.417575

   izeta = 2
                 rmatch =    3.431921
              splitnorm =    0.150000
                 energy =   -0.867111
                kinetic =    1.300804
    potential(screened) =   -2.167915
       potential(ionic) =   -5.962684

SPLIT: Orbitals with angular momentum L= 1

SPLIT: Basis orbitals for state 2p

SPLIT: PAO cut-off radius determined from an
SPLIT: energy shift=  0.007350 Ry

   izeta = 1
                 lambda =    1.000000
                     rc =    5.658549
                 energy =   -0.381140
                kinetic =    2.399701
    potential(screened) =   -2.780841
       potential(ionic) =   -6.206085

   izeta = 2
                 rmatch =    3.653288
              splitnorm =    0.150000
                 energy =   -0.249149
                kinetic =    3.542762
    potential(screened) =   -3.791911
       potential(ionic) =   -7.581078

POLgen: Perturbative polarization orbital with L=  2

POLgen: Polarization orbital for state 2p

   izeta = 1
                     rc =    5.658549
                 energy =    1.109913
                kinetic =    2.304789
    potential(screened) =   -1.194876
       potential(ionic) =   -4.013592
atom: Total number of Sankey-type orbitals: 13

atm_pop: Valence configuration (for local Pseudopot. screening):
 2s( 2.00)                                                            
 2p( 2.00)                                                            
Vna: chval, zval:    4.00000   4.00000

Vna:  Cut-off radius for the neutral-atom potential:   5.658549
comcore: Pseudo-core radius Rcore=  1.791422

atom: _________________________________________________________________________

prinput: Basis input ----------------------------------------------------------

PAO.BasisType split     

%block ChemicalSpeciesLabel
    1    5 B                       # Species index, atomic number, species label
    2    6 C                       # Species index, atomic number, species label
%endblock ChemicalSpeciesLabel

%block PAO.Basis                 # Define Basis set
B                     2                    # Species label, number of l-shells
 n=2   0   2                         # n, l, Nzeta 
   5.422      4.223   
   1.000      1.000   
 n=2   1   2 P   1                   # n, l, Nzeta, Polarization, NzetaPol
   6.790      4.609   
   1.000      1.000   
C                     2                    # Species label, number of l-shells
 n=2   0   2                         # n, l, Nzeta 
   4.633      3.432   
   1.000      1.000   
 n=2   1   2 P   1                   # n, l, Nzeta, Polarization, NzetaPol
   5.659      3.653   
   1.000      1.000   
%endblock PAO.Basis

prinput: ----------------------------------------------------------------------

coor:   Atomic-coordinates input format  =     Fractional

siesta: Atomic coordinates (Bohr) and species
siesta:     -2.35420  38.89134   0.00000  1        1
siesta:     -4.68258  34.85847   0.00000  1        2
siesta:     -4.68258  37.54693   0.00000  1        3
siesta:     -0.02582  21.41544   0.00000  1        4
siesta:      2.30256  22.75985   0.00000  1        5
siesta:      2.30256  25.44831   0.00000  1        6
siesta:     -4.68258  21.41544   0.00000  1        7
siesta:     -2.35420  22.75985   0.00000  1        8
siesta:     -2.35420  25.44831   0.00000  1        9
siesta:     -9.33934  21.41544   0.00000  1       10
siesta:     -7.01096  22.75985   0.00000  1       11
siesta:     -7.01096  25.44831   0.00000  1       12
siesta:    -11.66772  22.75985   0.00000  1       13
siesta:    -11.66772  25.44831   0.00000  1       14
siesta:     -9.33934  26.79272   0.00000  1       15
siesta:     -0.02582  26.79272   0.00000  1       16
siesta:     -4.68258  26.79272   0.00000  1       17
siesta:     -2.35420  33.51406   0.00000  1       18
siesta:     -0.02582  34.85847   0.00000  1       19
siesta:     -0.02582  37.54693   0.00000  1       20
siesta:     -0.02582   2.59549   0.00000  2       21
siesta:     -0.02582   5.28395   0.00000  2       22
siesta:     -2.35420  41.57980   0.00000  2       23
siesta:      2.30256  38.89134   0.00000  2       24
siesta:      2.30256  41.57980   0.00000  2       25
siesta:      4.63094  34.85847   0.00000  2       26
siesta:      4.63094  37.54693   0.00000  2       27
siesta:      6.95932  30.82560   0.00000  2       28
siesta:      6.95932  33.51406   0.00000  2       29
siesta:      9.28770  26.79272   0.00000  2       30
siesta:      9.28770  29.48119   0.00000  2       31
siesta:      2.30256   6.62836   0.00000  2       32
siesta:      2.30256   9.31683   0.00000  2       33
siesta:      4.63094  10.66124   0.00000  2       34
siesta:      4.63094  13.34970   0.00000  2       35
siesta:      6.95932  14.69411   0.00000  2       36
siesta:      6.95932  17.38257   0.00000  2       37
siesta:      9.28770  18.72698   0.00000  2       38
siesta:      9.28770  21.41544   0.00000  2       39
siesta:     11.61608  22.75985   0.00000  2       40
siesta:     11.61608  25.44831   0.00000  2       41
siesta:     -2.35420   6.62836   0.00000  2       42
siesta:     -2.35420   9.31683   0.00000  2       43
siesta:     -0.02582  10.66124   0.00000  2       44
siesta:     -0.02582  13.34970   0.00000  2       45
siesta:      2.30256  14.69411   0.00000  2       46
siesta:      2.30256  17.38257   0.00000  2       47
siesta:      4.63094  18.72698   0.00000  2       48
siesta:      4.63094  21.41544   0.00000  2       49
siesta:      6.95932  22.75985   0.00000  2       50
siesta:      6.95932  25.44831   0.00000  2       51
siesta:     -4.68258  10.66124   0.00000  2       52
siesta:     -4.68258  13.34970   0.00000  2       53
siesta:     -2.35420  14.69411   0.00000  2       54
siesta:     -2.35420  17.38257   0.00000  2       55
siesta:     -0.02582  18.72698   0.00000  2       56
siesta:     -7.01096  14.69411   0.00000  2       57
siesta:     -7.01096  17.38257   0.00000  2       58
siesta:     -4.68258  18.72698   0.00000  2       59
siesta:     -9.33934  18.72698   0.00000  2       60
siesta:     -9.33934  29.48119   0.00000  2       61
siesta:      4.63094  26.79272   0.00000  2       62
siesta:      4.63094  29.48119   0.00000  2       63
siesta:     -0.02582  29.48119   0.00000  2       64
siesta:     -4.68258  29.48119   0.00000  2       65
siesta:      2.30256  30.82560   0.00000  2       66
siesta:      2.30256  33.51406   0.00000  2       67
siesta:     -2.35420  30.82560   0.00000  2       68
siesta:     -7.01096  30.82560   0.00000  2       69
siesta:     -7.01096  33.51406   0.00000  2       70
siesta:     -0.02582  42.92421   0.00000  2       71
siesta:     -0.02582  45.61267   0.00000  2       72

siesta: System type = slab      

initatomlists: Number of atoms, orbitals, and projectors:     72   936  1152

siesta: ******************** Simulation parameters ****************************
siesta:
siesta: The following are some of the parameters of the simulation.
siesta: A complete list of the parameters used, including default values,
siesta: can be found in file out.fdf
siesta:
redata: Non-Collinear-spin run           =     F
redata: SpinPolarized (Up/Down) run      =     F
redata: Number of spin components        =     1
redata: Long output                      =     F
redata: Number of Atomic Species         =        2
redata: Charge density info will appear in .RHO file
redata: Write Mulliken Pop.              =     NO
redata: Mesh Cutoff                      =   200.0000  Ry
redata: Net charge of the system         =     0.0000 |e|
redata: Max. number of SCF Iter          =      500
redata: SCF convergence failure will abort job
redata: Performing Pulay mixing using    =    10 iterations
redata: Mix DM in first SCF step ?       =     F
redata: Write Pulay info on disk?        =     F
redata: Discard 1st Pulay DM after  kick =     F
redata: New DM Mixing Weight             =     0.0500
redata: New DM Occupancy tolerance       = 0.000000000001
redata: No kicks to SCF
redata: DM Mixing Weight for Kicks       =     0.5000
redata: DM Tolerance for SCF             =     0.000100
redata: Require Energy convergence for SCF =     F
redata: DM Energy tolerance for SCF      =     0.000100 eV
redata: Require Harris convergence for SCF =     F
redata: DM Harris energy tolerance for SCF =     0.000100 eV
redata: Using Saved Data (generic)   =     F
redata: Use continuation files for DM    =     T
redata: Neglect nonoverlap interactions  =     F
redata: Method of Calculation            =     Diagonalization
redata: Divide and Conquer               =     T
redata: Electronic Temperature           =     0.0019  Ry
redata: Fix the spin of the system       =     F
redata: Dynamics option                  =     Verlet MD run
redata: Initial MD time step             =        1
redata:   Final MD time step             =        1
redata: Length of MD time step           =     1.0000  fs
redata: Initial Temperature of MD run    =     0.0000  K
redata: Perform a MD quench              =     F
redata: ***********************************************************************
Total number of electrons:   268.000000
Total ionic charge:   268.000000

* ProcessorY, Blocksize:    2  24

k-point displ. along   1 input, could be:     0.50    0.00
k-point displ. along   2 input, could be:     0.50    0.00
 Kpoints in:          231 . Kpoints trimmed:          231

siesta: k-grid: Number of k-points =   231
siesta: k-grid: Cutoff (effective) =     5.000 Ang
siesta: k-grid: Supercell and displacements
siesta: k-grid:   21   0   0      0.500
siesta: k-grid:    0  21   0      0.500
siesta: k-grid:    0   0   1      0.000
Naive supercell factors:     2    2    2

superc: Internal auxiliary supercell:     2 x     2 x     2  =       8
superc: Number of atoms, orbitals, and projectors:    576   7488   9216

* Maximum dynamic memory allocated =     4 MB

siesta:                 ==============================
                            Begin MD step =      1
                        ==============================

superc: Internal auxiliary supercell:     2 x     2 x     2  =       8
superc: Number of atoms, orbitals, and projectors:    576   7488   9216

outcell: Unit cell vectors (Ang):
       12.804619    7.392750    0.000000
        0.000000   14.785500    0.000000
        0.000000    0.000000   10.000000

outcell: Cell vector modules (Ang)   :   14.785500   14.785500   10.000000
outcell: Cell angles (23,13,12) (deg):     90.0000     90.0000     60.0000
outcell: Cell volume (Ang**3)        :   1893.2269
New_DM. Step:     1
Initializing Density Matrix...

InitMesh: MESH =   120 x   120 x    90 =     1296000
InitMesh: Mesh cutoff (required, used) =   200.000   223.865 Ry

* Maximum dynamic memory allocated =   226 MB

stepf: Fermi-Dirac step function

siesta: Program's energy decomposition (eV):
siesta: Ebs     =     -5535.383980
siesta: Eions   =     15841.876847
siesta: Ena     =      4248.081195
siesta: Ekin    =      5323.417823
siesta: Enl     =       810.116151
siesta: DEna    =        -0.000008
siesta: DUscf   =         0.000000
siesta: DUext   =         0.000000
siesta: Exc     =     -4200.510084
siesta: eta*DQ  =         0.000000
siesta: Emadel  =         0.000000
siesta: Emeta   =         0.000000
siesta: Emolmec =         0.000000
siesta: Ekinion =         0.000000
siesta: Eharris =     -9412.772567
siesta: Etot    =     -9660.771771
siesta: FreeEng =     -9660.771771

siesta: iscf   Eharris(eV)      E_KS(eV)   FreeEng(eV)   dDmax  Ef(eV)
siesta:    1    -9412.7726    -9660.7718    -9660.7718  7.1939 -8.4599
timer: Routine,Calls,Time,% = IterSCF        1    3521.196  99.70
elaps: Routine,Calls,Wall,% = IterSCF        1     440.999  99.70
siesta:    2   -14484.6792    -8589.6229    -8589.6819 20.6416 -4.0789
siesta:    3    -9359.4064    -9514.1545    -9514.1849  3.2510 -6.5069
siesta:    4    -9334.4314    -9408.3236    -9408.3338  1.7590 -5.6170
siesta:    5    -9284.1067    -9302.1023    -9302.1566  1.2612 -5.2834
siesta:    6    -9264.0848    -9268.3732    -9268.4119  1.1497 -5.0538
siesta:    7    -9255.9714    -9255.0769    -9255.1301  0.6825 -5.0298
siesta:    8    -9254.5033    -9250.8224    -9250.8851  0.6702 -5.0423
siesta:    9    -9252.9510    -9233.6874    -9233.7443  0.9529 -5.1275
siesta:   10    -9253.3407    -9224.5944    -9224.6517  0.3882 -4.9971
siesta:   11    -9251.0991    -9224.6206    -9224.6732  0.2860 -5.0436
siesta:   12    -9249.8708    -9222.0323    -9222.1004  0.2354 -5.0086
siesta:   13    -9249.6818    -9219.6808    -9219.7273  0.1846 -4.9700
siesta:   14    -9249.1761    -9223.3752    -9223.4247  0.1400 -4.9825
siesta:   15    -9248.8075    -9230.1991    -9230.2530  0.1223 -5.0241
siesta:   16    -9248.6426    -9236.5752    -9236.6290  0.1074 -5.0272
siesta:   17    -9248.5360    -9238.6698    -9238.7286  0.0897 -5.0628
siesta:   18    -9248.4812    -9240.5783    -9240.6381  0.0738 -5.0470
siesta:   19    -9248.4620    -9242.3260    -9242.3877  0.0658 -5.0469
siesta:   20    -9248.4467    -9245.4071    -9245.4675  0.0561 -5.0587
siesta:   21    -9248.4289    -9245.6953    -9245.7574  0.0456 -5.0605
siesta:   22    -9248.4226    -9247.3107    -9247.3733  0.0229 -5.0639
siesta:   23    -9248.4230    -9248.3074    -9248.3713  0.0180 -5.0580
siesta:   24    -9248.4206    -9249.2396    -9249.3013  0.0119 -5.0585
siesta:   25    -9248.4192    -9249.3125    -9249.3760  0.0098 -5.0568
siesta:   26    -9248.4186    -9249.3292    -9249.3925  0.0081 -5.0567
siesta:   27    -9248.4177    -9248.9505    -9249.0143  0.0056 -5.0556
siesta:   28    -9248.4183    -9248.7154    -9248.7796  0.0028 -5.0543
siesta:   29    -9248.4179    -9248.6788    -9248.7423  0.0021 -5.0548
siesta:   30    -9248.4179    -9248.5919    -9248.6557  0.0012 -5.0546
siesta:   31    -9248.4179    -9248.5233    -9248.5871  0.0012 -5.0546
siesta:   32    -9248.4179    -9248.4437    -9248.5075  0.0013 -5.0546
siesta:   33    -9248.4178    -9248.4245    -9248.4883  0.0012 -5.0547
siesta:   34    -9248.4178    -9248.4080    -9248.4718  0.0007 -5.0548
siesta:   35    -9248.4179    -9248.4058    -9248.4696  0.0003 -5.0550
siesta:   36    -9248.4179    -9248.4148    -9248.4786  0.0002 -5.0550
siesta:   37    -9248.4179    -9248.4169    -9248.4807  0.0001 -5.0551
siesta:   38    -9248.4179    -9248.4130    -9248.4767  0.0001 -5.0551

siesta: E_KS(eV) =            -9248.4142

siesta: E_KS - E_eggbox =     -9248.4142

siesta: Atomic forces (eV/Ang):
----------------------------------------
   Tot   -0.133508    0.025122    0.000000
----------------------------------------
   Max  563.653482
   Res  148.298010    sqrt( Sum f_i^2 / 3N )
----------------------------------------
   Max  563.653482    constrained

Stress-tensor-Voigt (kbar):     -767.14    -2710.19       -0.63       -7.18        0.00        0.00
(Free)E + p*V (eV/cell)    -7878.5721
Target enthalpy (eV/cell)    -9248.4779

siesta: Stress tensor (static) (eV/Ang**3):
        -0.478806   -0.004484    0.000000
        -0.004484   -1.691546    0.000000
         0.000000    0.000000   -0.000395

siesta: Pressure (static):       1159.31953793  kBar

siesta: Stress tensor (total) (eV/Ang**3):
        -0.478806   -0.004484    0.000000
        -0.004484   -1.691546    0.000000
         0.000000    0.000000   -0.000395

siesta: Pressure (total):       1159.31953793  kBar

siesta: Temp_ion =       0.000 K

* Maximum dynamic memory allocated =   243 MB
Computing bands...

siesta: Program's energy decomposition (eV):
siesta: Ebs     =     -4167.882401
siesta: Eions   =     15841.876847
siesta: Ena     =      4248.081195
siesta: Ekin    =      8200.908363
siesta: Enl     =      -809.787720
siesta: DEna    =      -781.825210
siesta: DUscf   =       106.364945
siesta: DUext   =         0.000000
siesta: Exc     =     -4370.278906
siesta: eta*DQ  =         0.000000
siesta: Emadel  =         0.000000
siesta: Emeta   =         0.000000
siesta: Emolmec =         0.000000
siesta: Ekinion =         0.000000
siesta: Eharris =     -9248.417876
siesta: Etot    =     -9248.414180
siesta: FreeEng =     -9248.477948

siesta: Final energy (eV):
siesta:  Band Struct. =   -4167.882401
siesta:       Kinetic =    8200.908363
siesta:       Hartree =   26823.362004
siesta:    Ext. field =       0.000000
siesta:   Exch.-corr. =   -4370.278906
siesta:  Ion-electron =  -61565.181173
siesta:       Ion-ion =   21662.775531
siesta:       Ekinion =       0.000000
siesta:         Total =   -9248.414180

siesta: Atomic forces (eV/Ang):
siesta:      1    5.176952  105.284409    0.000000
siesta:      2  -19.718936   -3.003838    0.000000
siesta:      3  -16.993324 -390.923672    0.000000
siesta:      4   -0.666165   -4.781565    0.000000
siesta:      5    3.506607   -2.186662    0.000000
siesta:      6    3.263460    2.134739    0.000000
siesta:      7    0.409701   -5.646581    0.000000
siesta:      8    0.350555    1.415829    0.000000
siesta:      9    0.300724   -1.136962    0.000000
siesta:     10   -4.580385   -6.345320    0.000000
siesta:     11    0.893792    0.705034    0.000000
siesta:     12    0.992158   -0.793313    0.000000
siesta:     13   -6.110869   -2.673581    0.000000
siesta:     14   -6.160139    2.632588    0.000000
siesta:     15   -4.807762    6.817158    0.000000
siesta:     16   -0.335509    4.709903    0.000000
siesta:     17    0.183955    5.381402    0.000000
siesta:     18  -20.686349 -402.194626    0.000000
siesta:     19   -0.967460  106.503312    0.000000
siesta:     20   -9.752723 -384.472630    0.000000
siesta:     21    1.884531  552.813465    0.000000
siesta:     22   -8.507704 -131.124415    0.000000
siesta:     23  -17.745153 -545.672964    0.000000
siesta:     24   -7.509637  118.116364    0.000000
siesta:     25   12.435908 -549.206079    0.000000
siesta:     26   25.951004    4.905596    0.000000
siesta:     27   33.456484 -547.356005    0.000000
siesta:     28    1.735669    0.194561    0.000000
siesta:     29   -2.102237    2.255535    0.000000
siesta:     30    2.209139    1.626352    0.000000
siesta:     31   -0.850326    0.677155    0.000000
siesta:     32   30.113151  552.742652    0.000000
siesta:     33   -1.189372 -130.002864    0.000000
siesta:     34   36.450363  548.541356    0.000000
siesta:     35   26.819062   -5.733065    0.000000
siesta:     36   -2.358418   -2.177067    0.000000
siesta:     37    1.947550   -0.238698    0.000000
siesta:     38   -0.894250   -0.599203    0.000000
siesta:     39    2.147347   -1.744209    0.000000
siesta:     40    0.019999    6.564598    0.000000
siesta:     41   -0.210149   -6.663245    0.000000
siesta:     42  -15.718891  402.204948    0.000000
siesta:     43   -5.709346 -122.540622    0.000000
siesta:     44    0.263314  404.604193    0.000000
siesta:     45   -2.064482 -127.522420    0.000000
siesta:     46   24.849364  558.024384    0.000000
siesta:     47   22.182377   -5.459188    0.000000
siesta:     48   -0.730901    2.161622    0.000000
siesta:     49    2.557192   -2.013705    0.000000
siesta:     50   -0.055833    0.158779    0.000000
siesta:     51    0.007077   -0.170380    0.000000
siesta:     52  -34.802163  396.852650    0.000000
siesta:     53  -22.104807   -0.072592    0.000000
siesta:     54  -24.649051  563.653482    0.000000
siesta:     55  -21.567807   -6.406765    0.000000
siesta:     56    0.368990  561.813239    0.000000
siesta:     57    2.735818   -2.826009    0.000000
siesta:     58   -2.640848   -1.819423    0.000000
siesta:     59    1.588449   -1.344057    0.000000
siesta:     60    2.494444   -2.236556    0.000000
siesta:     61    2.381202    1.631919    0.000000
siesta:     62    2.548152    2.128044    0.000000
siesta:     63   -0.417260   -2.132157    0.000000
siesta:     64   -2.480956 -559.178761    0.000000
siesta:     65    2.279833    1.193315    0.000000
siesta:     66   21.566112    6.582518    0.000000
siesta:     67   15.094055 -549.176617    0.000000
siesta:     68  -21.713189    4.474025    0.000000
siesta:     69   -3.158246    2.536092    0.000000
siesta:     70   -0.440420    0.136599    0.000000
siesta:     71   -0.501722  127.086970    0.000000
siesta:     72   -0.395209 -551.663849    0.000000
siesta: ----------------------------------------
siesta:    Tot   -0.133508    0.025122    0.000000

siesta: Stress tensor (static) (eV/Ang**3):
siesta:    -0.478806   -0.004484    0.000000
siesta:    -0.004484   -1.691546    0.000000
siesta:     0.000000    0.000000   -0.000395

siesta: Cell volume =       1893.226884 Ang**3

siesta: Pressure (static):
siesta:                Solid            Molecule  Units
siesta:           0.00788074          0.11379981  Ry/Bohr**3
siesta:           0.72358252         10.44871183  eV/Ang**3
siesta:        1159.31953793      16740.86289691  kBar
(Free)E+ p_basis*V_orbitals  =       -9211.421262
(Free)Eharris+ p_basis*V_orbitals  =       -9211.426166

siesta: Electric dipole (a.u.)  =    0.000000    0.000000    0.000000
siesta: Electric dipole (Debye) =    0.000000    0.000000    0.000000

* Maximum dynamic memory allocated : Node    0 =   243 MB
* Maximum dynamic memory allocated : Node    1 =    86 MB
* Maximum dynamic memory allocated : Node    2 =    88 MB
* Maximum dynamic memory allocated : Node    3 =   230 MB
* Maximum dynamic memory allocated : Node    4 =   225 MB
* Maximum dynamic memory allocated : Node    5 =    80 MB
* Maximum dynamic memory allocated : Node    6 =    84 MB
* Maximum dynamic memory allocated : Node    7 =   207 MB

* Maximum memory occured during matrixMtoO                    

timer: CPU execution times:
timer:  Routine       Calls   Time/call    Tot.time        %
timer:  siesta            1  129822.234  129822.234   100.00
timer:  Setup             1       2.723       2.723     0.00
timer:  bands             3     244.885     734.654     0.57
timer:  writewave         1       0.019       0.019     0.00
timer:  KSV_init          1       0.004       0.004     0.00
timer:  IterMD            1  129079.637  129079.637    99.43
timer:  hsparse           1       0.514       0.514     0.00
timer:  overlap           1       7.217       7.217     0.01
timer:  IterSCF          38    3391.240  128867.125    99.26
timer:  kinefsm           2       3.752       7.503     0.01
timer:  nlefsm            2      20.199      40.398     0.03
timer:  DHSCF            39     109.595    4274.217     3.29
timer:  DHSCF1            1       0.993       0.993     0.00
timer:  DHSCF2            1      42.812      42.812     0.03
timer:  REORD           314       0.005       1.539     0.00
timer:  POISON           40       0.882      35.287     0.03
timer:  DHSCF3           39     107.401    4188.639     3.23
timer:  rhoofd           39      23.838     929.667     0.72
timer:  cellXC           39       3.329     129.836     0.10
timer:  vmat             39      50.524    1970.434     1.52
timer:  MolMec            2       0.000       0.000     0.00
timer:  diagon           38    3281.040  124679.532    96.04
timer:  c-eigval       8899       6.053   53868.617    41.49
timer:  c-buildHS      8899       0.053     469.250     0.36
timer:  cdiag         17677       6.184  109307.280    84.20
timer:  cdiag1        17677       0.386    6831.350     5.26
timer:  cdiag2        17677       1.775   31377.402    24.17
timer:  cdiag3        17677       3.744   66184.087    50.98
timer:  cdiag4        17677       0.157    2769.630     2.13
timer:  c-eigvec       8778       6.413   56289.565    43.36
timer:  c-buildD       8778       1.733   15210.390    11.72
timer:  DHSCF4            1      41.024      41.024     0.03
timer:  dfscf             1      38.236      38.236     0.03
timer:  overfsm           1       0.455       0.455     0.00
timer:  optical           1       4.557       4.557     0.00
  

elaps: ELAPSED times:
elaps:  Routine       Calls   Time/call    Tot.time        %
elaps:  siesta            1   16258.092   16258.092   100.00
elaps:  Setup             1       0.341       0.341     0.00
elaps:  bands             3      30.684      92.052     0.57
elaps:  writewave         1       0.002       0.002     0.00
elaps:  KSV_init          1       0.000       0.000     0.00
elaps:  IterMD            1   16165.095   16165.095    99.43
elaps:  hsparse           1       0.066       0.066     0.00
elaps:  overlap           1       0.903       0.903     0.01
elaps:  IterSCF          38     424.697   16138.490    99.26
elaps:  kinefsm           2       0.471       0.943     0.01
elaps:  nlefsm            2       2.581       5.162     0.03
elaps:  DHSCF            39      13.860     540.527     3.32
elaps:  DHSCF1            1       0.127       0.127     0.00
elaps:  DHSCF2            1       5.359       5.359     0.03
elaps:  REORD           314       0.001       0.208     0.00
elaps:  POISON           40       0.111       4.429     0.03
elaps:  DHSCF3           39      13.451     524.584     3.23
elaps:  rhoofd           39       6.572     256.316     1.58
elaps:  cellXC           39       0.417      16.249     0.10
elaps:  vmat             39       6.328     246.783     1.52
elaps:  MolMec            2       0.000       0.000     0.00
elaps:  diagon           38     410.896   15614.050    96.04
elaps:  c-eigval       8899       0.758    6746.009    41.49
elaps:  c-buildHS      8899       0.007      62.501     0.38
elaps:  cdiag         17677       0.773   13672.008    84.09
elaps:  cdiag1        17677       0.049     865.448     5.32
elaps:  cdiag2        17677       0.222    3930.046    24.17
elaps:  cdiag3        17677       0.469    8299.109    51.05
elaps:  cdiag4        17677       0.019     336.183     2.07
elaps:  c-eigvec       8778       0.802    7041.624    43.31
elaps:  c-buildD       8778       0.218    1910.340    11.75
elaps:  DHSCF4            1      10.366      10.366     0.06
elaps:  dfscf             1       9.809       9.809     0.06
elaps:  overfsm           1       0.058       0.058     0.00
elaps:  optical           1       0.001       0.001     0.00
  
>> End of run:  27-APR-2016  17:49:42
