Siesta Version:                                        siesta-3.2-pl-3
Architecture  : x86_64-unknown-linux-gnu--unknown
Compiler flags: mpiifort -g -O2 -fPIC -xSSE4.1 -fp-model source -shared-intel 
PARALLEL version

* Running on   12 nodes in parallel
>> Start of run:   4-MAY-2016  15:01:37

                           ***********************       
                           *  WELCOME TO SIESTA  *       
                           ***********************       

reinit: Reading from standard input
************************** Dump of input data file ****************************
#(1) General system descriptors
SystemName            GRP_doping    # Descriptive name of the system
SystemLabel           GRP_doping    # Short name for naming files
%include STRUCT.fdf
%include KPT.fdf
%include BASIS.fdf
#%include TS.fdf # for transiesta calculation
#(4) DFT, Grid, SCF
XC.functional         GGA           # LDA or GGA (default = LDA)
XC.authors            PBE           # CA (Ceperley-Aldr) = PZ
                                    #    (Perdew-Zunger) - LDA - Default
                                    # PW92 (Perdew-Wang-92) - LDA
                                    # PBE (Perdew-Burke-Ernzerhof) - GGA
MeshCutoff            200.000000    Ry      # Default: 50.0 Ry ~ 0.444 Bohr
                                    #         100.0 Ry ~ 0.314 Bohr
MaxSCFIterations      500           # Default: 50
DM.MixingWeight       0.05          # Default: 0.25
DM.NumberPulay        10            # Default: 0
DM.PulayOnFile        F             # SystemLabel.P1, SystemLabel.P2
DM.Tolerance          1.d-4         # Default: 1.d-4
DM.UseSaveDM          .true.        # because of the bug
SCFMustConverge       .true.
NeglNonOverlapInt     F             # Default: F
#(5) Eigenvalue problem: order-N or diagonalization
SolutionMethod        Diagon        # or Transiesta
ElectronicTemperature 300.0 K       # Default: 300.0 K
#(6) Molecular dynamics and relaxations
#MD.TypeOfRun          CG            # Type of dynamics:
#MD.VariableCell       F
#MD.NumCGsteps         0           # 0 for single-point / 100 for gopt
#MD.MaxCGDispl         0.2 Bohr      # Default: 0.2 Bohr
#MD.MaxForceTol        0.02 eV/Ang   # Default: 0.04 eV/Ang
#MD.MaxStressTol       1.0 GPa       # Default: 1.0 GPa
# Geometry Constraints
#%block GeometryConstraints
#	position from 1 to 44
#%endblock GeometryConstraints
BandLinesScale   pi/a
%block BandLines
 1   0.00000000  0.00000000  0.00000000
50   0.00000000  0.07809418  0.00000000
50   0.04509075  0.07809242  0.00000000
20   0.00000000  0.00000000  0.00000000
%endblock BandLines
************************** End of input data file *****************************

reinit: -----------------------------------------------------------------------
reinit: System Name: GRP_doping
reinit: -----------------------------------------------------------------------
reinit: System Label: GRP_doping                                                  
reinit: -----------------------------------------------------------------------

initatom: Reading input for the pseudopotentials and atomic orbitals ----------
 Species number:            1  Label: B Atomic number:           5
 Species number:            2  Label: C Atomic number:           6
Ground state valence configuration:   2s02  2p01
Reading pseudopotential information in formatted form from B.psf

Valence configuration for pseudopotential generation:
2s( 2.00) rc: 1.74
2p( 1.00) rc: 1.74
3d( 0.00) rc: 1.74
4f( 0.00) rc: 1.74
Ground state valence configuration:   2s02  2p02
Reading pseudopotential information in formatted form from C.psf

Valence configuration for pseudopotential generation:
2s( 2.00) rc: 1.54
2p( 2.00) rc: 1.54
3d( 0.00) rc: 1.54
4f( 0.00) rc: 1.54
For B, standard SIESTA heuristics set lmxkb to 3
 (one more than the basis l, including polarization orbitals).
Use PS.lmax or PS.KBprojectors blocks to override.
For C, standard SIESTA heuristics set lmxkb to 3
 (one more than the basis l, including polarization orbitals).
Use PS.lmax or PS.KBprojectors blocks to override.

<basis_specs>
===============================================================================
B                    Z=   5    Mass=  10.810        Charge= 0.17977+309
Lmxo=1 Lmxkb= 3    BasisType=split      Semic=F
L=0  Nsemic=0  Cnfigmx=2
          n=1  nzeta=2  polorb=0
            splnorm:   0.15000    
               vcte:    0.0000    
               rinn:    0.0000    
                rcs:    0.0000      0.0000    
            lambdas:    1.0000      1.0000    
L=1  Nsemic=0  Cnfigmx=2
          n=1  nzeta=2  polorb=1
            splnorm:   0.15000    
               vcte:    0.0000    
               rinn:    0.0000    
                rcs:    0.0000      0.0000    
            lambdas:    1.0000      1.0000    
-------------------------------------------------------------------------------
L=0  Nkbl=1  erefs: 0.17977+309
L=1  Nkbl=1  erefs: 0.17977+309
L=2  Nkbl=1  erefs: 0.17977+309
L=3  Nkbl=1  erefs: 0.17977+309
===============================================================================
</basis_specs>

atom: Called for B                     (Z =   5)

read_vps: Pseudopotential generation method:
read_vps: ATM3      Troullier-Martins                       
Total valence charge:    3.00000

read_vps: Pseudopotential includes a core correction:
read_vps: Pseudo-core for xc-correction

xc_check: Exchange-correlation functional:
xc_check: GGA Perdew, Burke & Ernzerhof 1996
V l=0 = -2*Zval/r beyond r=  1.7165
V l=1 = -2*Zval/r beyond r=  1.7165
V l=2 = -2*Zval/r beyond r=  1.7165
V l=3 = -2*Zval/r beyond r=  1.6951
All V_l potentials equal beyond r=  1.7165
This should be close to max(r_c) in ps generation
All pots = -2*Zval/r beyond r=  1.7165

VLOCAL1: 99.0% of the norm of Vloc inside     14.733 Ry
VLOCAL1: 99.9% of the norm of Vloc inside     33.577 Ry
atom: Maximum radius for 4*pi*r*r*local-pseudopot. charge    2.04484
atom: Maximum radius for r*vlocal+2*Zval:    1.75994
GHOST: No ghost state for L =  0
GHOST: No ghost state for L =  1
GHOST: No ghost state for L =  2
GHOST: No ghost state for L =  3

KBgen: Kleinman-Bylander projectors: 
   l= 0   rc=  1.897051   el= -0.693730   Ekb=  4.595746   kbcos=  0.286105
   l= 1   rc=  1.920920   el= -0.265236   Ekb= -2.350715   kbcos= -0.315747
   l= 2   rc=  2.044840   el=  0.002055   Ekb= -0.690767   kbcos= -0.013822
   l= 3   rc=  2.149707   el=  0.003188   Ekb= -0.315358   kbcos= -0.002055

KBgen: Total number of  Kleinman-Bylander projectors:   16
atom: -------------------------------------------------------------------------

atom: SANKEY-TYPE ORBITALS:
atom: Selected multiple-zeta basis: split     

SPLIT: Orbitals with angular momentum L= 0

SPLIT: Basis orbitals for state 2s

SPLIT: PAO cut-off radius determined from an
SPLIT: energy shift=  0.007350 Ry

   izeta = 1
                 lambda =    1.000000
                     rc =    5.422032
                 energy =   -0.686029
                kinetic =    0.576707
    potential(screened) =   -1.262736
       potential(ionic) =   -3.271094

   izeta = 2
                 rmatch =    4.222573
              splitnorm =    0.150000
                 energy =   -0.602132
                kinetic =    0.858975
    potential(screened) =   -1.461107
       potential(ionic) =   -3.582536

SPLIT: Orbitals with angular momentum L= 1

SPLIT: Basis orbitals for state 2p

SPLIT: PAO cut-off radius determined from an
SPLIT: energy shift=  0.007350 Ry

   izeta = 1
                 lambda =    1.000000
                     rc =    6.790259
                 energy =   -0.258578
                kinetic =    1.481412
    potential(screened) =   -1.739989
       potential(ionic) =   -3.657461

   izeta = 2
                 rmatch =    4.608740
              splitnorm =    0.150000
                 energy =   -0.173757
                kinetic =    2.186690
    potential(screened) =   -2.360447
       potential(ionic) =   -4.464260

POLgen: Perturbative polarization orbital with L=  2

POLgen: Polarization orbital for state 2p

   izeta = 1
                     rc =    6.790259
                 energy =    0.684082
                kinetic =    1.471481
    potential(screened) =   -0.787399
       potential(ionic) =   -2.406985
atom: Total number of Sankey-type orbitals: 13

atm_pop: Valence configuration (for local Pseudopot. screening):
 2s( 2.00)                                                            
 2p( 1.00)                                                            
Vna: chval, zval:    3.00000   3.00000

Vna:  Cut-off radius for the neutral-atom potential:   6.790259
comcore: Pseudo-core radius Rcore=  2.122997

atom: _________________________________________________________________________

<basis_specs>
===============================================================================
C                    Z=   6    Mass=  12.010        Charge= 0.17977+309
Lmxo=1 Lmxkb= 3    BasisType=split      Semic=F
L=0  Nsemic=0  Cnfigmx=2
          n=1  nzeta=2  polorb=0
            splnorm:   0.15000    
               vcte:    0.0000    
               rinn:    0.0000    
                rcs:    0.0000      0.0000    
            lambdas:    1.0000      1.0000    
L=1  Nsemic=0  Cnfigmx=2
          n=1  nzeta=2  polorb=1
            splnorm:   0.15000    
               vcte:    0.0000    
               rinn:    0.0000    
                rcs:    0.0000      0.0000    
            lambdas:    1.0000      1.0000    
-------------------------------------------------------------------------------
L=0  Nkbl=1  erefs: 0.17977+309
L=1  Nkbl=1  erefs: 0.17977+309
L=2  Nkbl=1  erefs: 0.17977+309
L=3  Nkbl=1  erefs: 0.17977+309
===============================================================================
</basis_specs>

atom: Called for C                     (Z =   6)

read_vps: Pseudopotential generation method:
read_vps: ATM3      Troullier-Martins                       
Total valence charge:    4.00000

read_vps: Pseudopotential includes a core correction:
read_vps: Pseudo-core for xc-correction

xc_check: Exchange-correlation functional:
xc_check: GGA Perdew, Burke & Ernzerhof 1996
V l=0 = -2*Zval/r beyond r=  1.5227
V l=1 = -2*Zval/r beyond r=  1.5227
V l=2 = -2*Zval/r beyond r=  1.5227
V l=3 = -2*Zval/r beyond r=  1.5038
All V_l potentials equal beyond r=  1.5227
This should be close to max(r_c) in ps generation
All pots = -2*Zval/r beyond r=  1.5227

VLOCAL1: 99.0% of the norm of Vloc inside     18.722 Ry
VLOCAL1: 99.9% of the norm of Vloc inside     42.668 Ry
atom: Maximum radius for 4*pi*r*r*local-pseudopot. charge    1.83678
atom: Maximum radius for r*vlocal+2*Zval:    1.58088
GHOST: No ghost state for L =  0
GHOST: No ghost state for L =  1
GHOST: No ghost state for L =  2
GHOST: No ghost state for L =  3

KBgen: Kleinman-Bylander projectors: 
   l= 0   rc=  1.704034   el= -1.009801   Ekb=  5.335044   kbcos=  0.316824
   l= 1   rc=  1.704034   el= -0.388707   Ekb= -3.785862   kbcos= -0.366464
   l= 2   rc=  1.791422   el=  0.001971   Ekb= -0.970471   kbcos= -0.009212
   l= 3   rc=  1.859892   el=  0.003065   Ekb= -0.399525   kbcos= -0.001223

KBgen: Total number of  Kleinman-Bylander projectors:   16
atom: -------------------------------------------------------------------------

atom: SANKEY-TYPE ORBITALS:
atom: Selected multiple-zeta basis: split     

SPLIT: Orbitals with angular momentum L= 0

SPLIT: Basis orbitals for state 2s

SPLIT: PAO cut-off radius determined from an
SPLIT: energy shift=  0.007350 Ry

   izeta = 1
                 lambda =    1.000000
                     rc =    4.632753
                 energy =   -1.002270
                kinetic =    0.855760
    potential(screened) =   -1.858031
       potential(ionic) =   -5.417575

   izeta = 2
                 rmatch =    3.431921
              splitnorm =    0.150000
                 energy =   -0.867111
                kinetic =    1.300804
    potential(screened) =   -2.167915
       potential(ionic) =   -5.962684

SPLIT: Orbitals with angular momentum L= 1

SPLIT: Basis orbitals for state 2p

SPLIT: PAO cut-off radius determined from an
SPLIT: energy shift=  0.007350 Ry

   izeta = 1
                 lambda =    1.000000
                     rc =    5.658549
                 energy =   -0.381140
                kinetic =    2.399701
    potential(screened) =   -2.780841
       potential(ionic) =   -6.206085

   izeta = 2
                 rmatch =    3.653288
              splitnorm =    0.150000
                 energy =   -0.249149
                kinetic =    3.542762
    potential(screened) =   -3.791911
       potential(ionic) =   -7.581078

POLgen: Perturbative polarization orbital with L=  2

POLgen: Polarization orbital for state 2p

   izeta = 1
                     rc =    5.658549
                 energy =    1.109913
                kinetic =    2.304789
    potential(screened) =   -1.194876
       potential(ionic) =   -4.013592
atom: Total number of Sankey-type orbitals: 13

atm_pop: Valence configuration (for local Pseudopot. screening):
 2s( 2.00)                                                            
 2p( 2.00)                                                            
Vna: chval, zval:    4.00000   4.00000

Vna:  Cut-off radius for the neutral-atom potential:   5.658549
comcore: Pseudo-core radius Rcore=  1.791422

atom: _________________________________________________________________________

prinput: Basis input ----------------------------------------------------------

PAO.BasisType split     

%block ChemicalSpeciesLabel
    1    5 B                       # Species index, atomic number, species label
    2    6 C                       # Species index, atomic number, species label
%endblock ChemicalSpeciesLabel

%block PAO.Basis                 # Define Basis set
B                     2                    # Species label, number of l-shells
 n=2   0   2                         # n, l, Nzeta 
   5.422      4.223   
   1.000      1.000   
 n=2   1   2 P   1                   # n, l, Nzeta, Polarization, NzetaPol
   6.790      4.609   
   1.000      1.000   
C                     2                    # Species label, number of l-shells
 n=2   0   2                         # n, l, Nzeta 
   4.633      3.432   
   1.000      1.000   
 n=2   1   2 P   1                   # n, l, Nzeta, Polarization, NzetaPol
   5.659      3.653   
   1.000      1.000   
%endblock PAO.Basis

prinput: ----------------------------------------------------------------------

coor:   Atomic-coordinates input format  =     Fractional

siesta: Atomic coordinates (Bohr) and species
siesta:     -2.35420  38.89134   0.00000  1        1
siesta:      2.30256  38.89134   0.00000  1        2
siesta:     -4.68258  37.54693   0.00000  1        3
siesta:      2.30256   6.62836   0.00000  1        4
siesta:      2.30256   9.31683   0.00000  1        5
siesta:     -2.35420   9.31683   0.00000  1        6
siesta:     -0.02582  10.66124   0.00000  1        7
siesta:     -0.02582  13.34970   0.00000  1        8
siesta:     -0.02582  34.85847   0.00000  1        9
siesta:     -0.02582  37.54693   0.00000  1       10
siesta:     -0.02582   2.59549   0.00000  2       11
siesta:     -0.02582   5.28395   0.00000  2       12
siesta:     -2.35420  41.57980   0.00000  2       13
siesta:      2.30256  41.57980   0.00000  2       14
siesta:      4.63094  34.85847   0.00000  2       15
siesta:      4.63094  37.54693   0.00000  2       16
siesta:      6.95932  30.82560   0.00000  2       17
siesta:      6.95932  33.51406   0.00000  2       18
siesta:      9.28770  26.79272   0.00000  2       19
siesta:      9.28770  29.48119   0.00000  2       20
siesta:     -4.68258  34.85847   0.00000  2       21
siesta:      4.63094  10.66124   0.00000  2       22
siesta:      4.63094  13.34970   0.00000  2       23
siesta:      6.95932  14.69411   0.00000  2       24
siesta:      6.95932  17.38257   0.00000  2       25
siesta:      9.28770  18.72698   0.00000  2       26
siesta:      9.28770  21.41544   0.00000  2       27
siesta:     11.61608  22.75985   0.00000  2       28
siesta:     11.61608  25.44831   0.00000  2       29
siesta:     -2.35420   6.62836   0.00000  2       30
siesta:      2.30256  14.69411   0.00000  2       31
siesta:      2.30256  17.38257   0.00000  2       32
siesta:      4.63094  18.72698   0.00000  2       33
siesta:      4.63094  21.41544   0.00000  2       34
siesta:      6.95932  22.75985   0.00000  2       35
siesta:      6.95932  25.44831   0.00000  2       36
siesta:     -4.68258  10.66124   0.00000  2       37
siesta:     -4.68258  13.34970   0.00000  2       38
siesta:     -2.35420  14.69411   0.00000  2       39
siesta:     -2.35420  17.38257   0.00000  2       40
siesta:     -0.02582  18.72698   0.00000  2       41
siesta:     -0.02582  21.41544   0.00000  2       42
siesta:      2.30256  22.75985   0.00000  2       43
siesta:      2.30256  25.44831   0.00000  2       44
siesta:     -7.01096  14.69411   0.00000  2       45
siesta:     -7.01096  17.38257   0.00000  2       46
siesta:     -4.68258  18.72698   0.00000  2       47
siesta:     -4.68258  21.41544   0.00000  2       48
siesta:     -2.35420  22.75985   0.00000  2       49
siesta:     -2.35420  25.44831   0.00000  2       50
siesta:     -9.33934  18.72698   0.00000  2       51
siesta:     -9.33934  21.41544   0.00000  2       52
siesta:     -7.01096  22.75985   0.00000  2       53
siesta:     -7.01096  25.44831   0.00000  2       54
siesta:    -11.66772  22.75985   0.00000  2       55
siesta:    -11.66772  25.44831   0.00000  2       56
siesta:     -9.33934  26.79272   0.00000  2       57
siesta:     -9.33934  29.48119   0.00000  2       58
siesta:      4.63094  26.79272   0.00000  2       59
siesta:      4.63094  29.48119   0.00000  2       60
siesta:     -0.02582  26.79272   0.00000  2       61
siesta:     -0.02582  29.48119   0.00000  2       62
siesta:     -4.68258  26.79272   0.00000  2       63
siesta:     -4.68258  29.48119   0.00000  2       64
siesta:      2.30256  30.82560   0.00000  2       65
siesta:      2.30256  33.51406   0.00000  2       66
siesta:     -2.35420  30.82560   0.00000  2       67
siesta:     -2.35420  33.51406   0.00000  2       68
siesta:     -7.01096  30.82560   0.00000  2       69
siesta:     -7.01096  33.51406   0.00000  2       70
siesta:     -0.02582  42.92421   0.00000  2       71
siesta:     -0.02582  45.61267   0.00000  2       72

siesta: System type = slab      

initatomlists: Number of atoms, orbitals, and projectors:     72   936  1152

siesta: ******************** Simulation parameters ****************************
siesta:
siesta: The following are some of the parameters of the simulation.
siesta: A complete list of the parameters used, including default values,
siesta: can be found in file out.fdf
siesta:
redata: Non-Collinear-spin run           =     F
redata: SpinPolarized (Up/Down) run      =     F
redata: Number of spin components        =     1
redata: Long output                      =     F
redata: Number of Atomic Species         =        2
redata: Charge density info will appear in .RHO file
redata: Write Mulliken Pop.              =     NO
redata: Mesh Cutoff                      =   200.0000  Ry
redata: Net charge of the system         =     0.0000 |e|
redata: Max. number of SCF Iter          =      500
redata: SCF convergence failure will abort job
redata: Performing Pulay mixing using    =    10 iterations
redata: Mix DM in first SCF step ?       =     F
redata: Write Pulay info on disk?        =     F
redata: Discard 1st Pulay DM after  kick =     F
redata: New DM Mixing Weight             =     0.0500
redata: New DM Occupancy tolerance       = 0.000000000001
redata: No kicks to SCF
redata: DM Mixing Weight for Kicks       =     0.5000
redata: DM Tolerance for SCF             =     0.000100
redata: Require Energy convergence for SCF =     F
redata: DM Energy tolerance for SCF      =     0.000100 eV
redata: Require Harris convergence for SCF =     F
redata: DM Harris energy tolerance for SCF =     0.000100 eV
redata: Using Saved Data (generic)   =     F
redata: Use continuation files for DM    =     T
redata: Neglect nonoverlap interactions  =     F
redata: Method of Calculation            =     Diagonalization
redata: Divide and Conquer               =     T
redata: Electronic Temperature           =     0.0019  Ry
redata: Fix the spin of the system       =     F
redata: Dynamics option                  =     Verlet MD run
redata: Initial MD time step             =        1
redata:   Final MD time step             =        1
redata: Length of MD time step           =     1.0000  fs
redata: Initial Temperature of MD run    =     0.0000  K
redata: Perform a MD quench              =     F
redata: ***********************************************************************
Total number of electrons:   278.000000
Total ionic charge:   278.000000

* ProcessorY, Blocksize:    3  24

k-point displ. along   1 input, could be:     0.50    0.00
k-point displ. along   2 input, could be:     0.50    0.00
 Kpoints in:          231 . Kpoints trimmed:          231

siesta: k-grid: Number of k-points =   231
siesta: k-grid: Cutoff (effective) =     5.000 Ang
siesta: k-grid: Supercell and displacements
siesta: k-grid:   21   0   0      0.500
siesta: k-grid:    0  21   0      0.500
siesta: k-grid:    0   0   1      0.000
Naive supercell factors:     2    2    2

superc: Internal auxiliary supercell:     2 x     2 x     2  =       8
superc: Number of atoms, orbitals, and projectors:    576   7488   9216

* Maximum dynamic memory allocated =     4 MB

siesta:                 ==============================
                            Begin MD step =      1
                        ==============================

superc: Internal auxiliary supercell:     2 x     2 x     2  =       8
superc: Number of atoms, orbitals, and projectors:    576   7488   9216

outcell: Unit cell vectors (Ang):
       12.804619    7.392750    0.000000
        0.000000   14.785500    0.000000
        0.000000    0.000000   10.000000

outcell: Cell vector modules (Ang)   :   14.785500   14.785500   10.000000
outcell: Cell angles (23,13,12) (deg):     90.0000     90.0000     60.0000
outcell: Cell volume (Ang**3)        :   1893.2269
New_DM. Step:     1
Initializing Density Matrix...

InitMesh: MESH =   120 x   120 x    90 =     1296000
InitMesh: Mesh cutoff (required, used) =   200.000   223.865 Ry

* Maximum dynamic memory allocated =   153 MB

stepf: Fermi-Dirac step function

siesta: Program's energy decomposition (eV):
siesta: Ebs     =     -5663.104005
siesta: Eions   =     17122.443959
siesta: Ena     =      4488.957554
siesta: Ekin    =      5850.796185
siesta: Enl     =       732.459086
siesta: DEna    =        -0.000012
siesta: DUscf   =         0.000000
siesta: DUext   =         0.000000
siesta: Exc     =     -4165.984103
siesta: eta*DQ  =         0.000000
siesta: Emadel  =         0.000000
siesta: Emeta   =         0.000000
siesta: Emolmec =         0.000000
siesta: Ekinion =         0.000000
siesta: Eharris =    -10045.443729
siesta: Etot    =    -10216.215248
siesta: FreeEng =    -10216.215248

siesta: iscf   Eharris(eV)      E_KS(eV)   FreeEng(eV)   dDmax  Ef(eV)
siesta:    1   -10045.4437   -10216.2152   -10216.2152  7.9615 -7.9873
timer: Routine,Calls,Time,% = IterSCF        1    3040.580  99.59
elaps: Routine,Calls,Wall,% = IterSCF        1     253.982  99.59
siesta:    2   -15910.7212    -9059.8715    -9059.8728  8.5138 -7.7851
siesta:    3   -10390.4965    -9954.3364    -9954.3415  3.0592 -3.4207
siesta:    4   -10149.1026    -9958.4166    -9958.4529  2.4462 -4.3256
siesta:    5   -10103.7036    -9948.3419    -9948.3896  2.4188 -4.2447
siesta:    6    -9938.8259    -9917.3862    -9917.3862  1.2522 -4.7602
siesta:    7    -9922.8820    -9902.5131    -9902.5624  1.1067 -4.5007
siesta:    8    -9910.0825    -9892.4819    -9892.5455  0.9904 -4.4916
siesta:    9    -9896.6708    -9888.3063    -9888.3855  0.7455 -4.7338
siesta:   10    -9892.6567    -9881.6785    -9881.7582  0.6347 -4.8006
siesta:   11    -9889.7348    -9880.8021    -9880.8757  0.4927 -4.8023
siesta:   12    -9886.8819    -9872.1296    -9872.1610  0.3703 -4.6023
siesta:   13    -9886.2187    -9870.1709    -9870.2382  0.3445 -4.6159
siesta:   14    -9886.0421    -9871.6746    -9871.7154  0.3167 -4.6631
siesta:   15    -9885.6815    -9871.1431    -9871.1977  0.2877 -4.7028
siesta:   16    -9885.6112    -9875.1436    -9875.2063  0.3411 -4.7402
siesta:   17    -9885.3225    -9877.1334    -9877.1927  0.2358 -4.7408
siesta:   18    -9885.3197    -9881.4081    -9881.4771  0.1772 -4.7519
siesta:   19    -9885.2829    -9882.4256    -9882.4817  0.1082 -4.7558
siesta:   20    -9885.1321    -9882.8419    -9882.8821  0.0861 -4.7883
siesta:   21    -9885.1012    -9883.1878    -9883.2580  0.1141 -4.7885
siesta:   22    -9885.0615    -9883.2184    -9883.2830  0.0702 -4.7815
siesta:   23    -9885.0451    -9883.7107    -9883.7802  0.0367 -4.7636
siesta:   24    -9885.0413    -9883.6787    -9883.7518  0.0279 -4.7534
siesta:   25    -9885.0347    -9884.0901    -9884.1620  0.0199 -4.7465
siesta:   26    -9885.0307    -9884.4832    -9884.5576  0.0147 -4.7474
siesta:   27    -9885.0271    -9884.7377    -9884.8121  0.0132 -4.7474
siesta:   28    -9885.0297    -9884.8262    -9884.9025  0.0160 -4.7498
siesta:   29    -9885.0288    -9884.9079    -9884.9815  0.0126 -4.7487
siesta:   30    -9885.0280    -9884.9522    -9885.0262  0.0097 -4.7488
siesta:   31    -9885.0270    -9885.0785    -9885.1531  0.0057 -4.7496
siesta:   32    -9885.0268    -9885.1424    -9885.2177  0.0040 -4.7501
siesta:   33    -9885.0267    -9885.1464    -9885.2221  0.0040 -4.7497
siesta:   34    -9885.0264    -9885.1208    -9885.1964  0.0027 -4.7496
siesta:   35    -9885.0267    -9885.0903    -9885.1660  0.0018 -4.7494
siesta:   36    -9885.0266    -9885.0752    -9885.1506  0.0007 -4.7495
siesta:   37    -9885.0265    -9885.0687    -9885.1443  0.0005 -4.7495
siesta:   38    -9885.0265    -9885.0476    -9885.1232  0.0004 -4.7496
siesta:   39    -9885.0265    -9885.0466    -9885.1222  0.0003 -4.7497
siesta:   40    -9885.0265    -9885.0412    -9885.1168  0.0003 -4.7497
siesta:   41    -9885.0265    -9885.0350    -9885.1105  0.0002 -4.7497
siesta:   42    -9885.0265    -9885.0340    -9885.1096  0.0002 -4.7497
siesta:   43    -9885.0265    -9885.0322    -9885.1078  0.0001 -4.7497

siesta: E_KS(eV) =            -9885.0292

siesta: E_KS - E_eggbox =     -9885.0292

siesta: Atomic forces (eV/Ang):
----------------------------------------
   Tot   -0.186704    0.003988    0.000000
----------------------------------------
   Max  559.160831
   Res  145.758735    sqrt( Sum f_i^2 / 3N )
----------------------------------------
   Max  559.160831    constrained

Stress-tensor-Voigt (kbar):     -617.81    -2488.45       -0.36       19.15        0.00        0.00
(Free)E + p*V (eV/cell)    -8661.4624
Target enthalpy (eV/cell)    -9885.1048

siesta: Stress tensor (static) (eV/Ang**3):
        -0.385606    0.011950    0.000000
         0.011950   -1.553151    0.000000
         0.000000    0.000000   -0.000222

siesta: Pressure (static):       1035.54015203  kBar

siesta: Stress tensor (total) (eV/Ang**3):
        -0.385606    0.011950    0.000000
         0.011950   -1.553151    0.000000
         0.000000    0.000000   -0.000222

siesta: Pressure (total):       1035.54015203  kBar

siesta: Temp_ion =       0.000 K

* Maximum dynamic memory allocated =   166 MB
Computing bands...

siesta: Program's energy decomposition (eV):
siesta: Ebs     =     -4413.671654
siesta: Eions   =     17122.443959
siesta: Ena     =      4488.957554
siesta: Ekin    =      8601.012131
siesta: Enl     =      -928.825994
siesta: DEna    =      -696.202623
siesta: DUscf   =        90.968942
siesta: DUext   =         0.000000
siesta: Exc     =     -4318.495213
siesta: eta*DQ  =         0.000000
siesta: Emadel  =         0.000000
siesta: Emeta   =         0.000000
siesta: Emolmec =         0.000000
siesta: Ekinion =         0.000000
siesta: Eharris =     -9885.026475
siesta: Etot    =     -9885.029163
siesta: FreeEng =     -9885.104804

siesta: Final energy (eV):
siesta:  Band Struct. =   -4413.671654
siesta:       Kinetic =    8601.012131
siesta:       Hartree =   27199.208779
siesta:    Ext. field =       0.000000
siesta:   Exch.-corr. =   -4318.495213
siesta:  Ion-electron =  -62776.263280
siesta:       Ion-ion =   21409.508421
siesta:       Ekinion =       0.000000
siesta:         Total =   -9885.029163

siesta: Atomic forces (eV/Ang):
siesta:      1   -1.003792  102.265972    0.000000
siesta:      2    0.722978  104.888503    0.000000
siesta:      3  -22.982504 -396.113168    0.000000
siesta:      4    2.904583  399.490780    0.000000
siesta:      5    1.750086 -102.565032    0.000000
siesta:      6    1.771242 -103.603674    0.000000
siesta:      7    0.155260  291.150589    0.000000
siesta:      8    0.086368 -115.526348    0.000000
siesta:      9   -9.885485  115.766394    0.000000
siesta:     10    1.346852 -293.409542    0.000000
siesta:     11    0.610115  549.368624    0.000000
siesta:     12   16.688587 -119.757609    0.000000
siesta:     13  -18.070508 -548.925196    0.000000
siesta:     14   21.543753 -549.353549    0.000000
siesta:     15   24.753900    2.870006    0.000000
siesta:     16   22.904836 -548.162757    0.000000
siesta:     17    1.789999    0.113431    0.000000
siesta:     18   -1.891522    2.958949    0.000000
siesta:     19    2.532082    1.946874    0.000000
siesta:     20   -1.282471    0.152720    0.000000
siesta:     21  -24.481600    1.908826    0.000000
siesta:     22   21.086735  546.671312    0.000000
siesta:     23   24.487704   -4.681992    0.000000
siesta:     24   -2.237029   -2.607484    0.000000
siesta:     25    1.446170   -0.215137    0.000000
siesta:     26   -0.967927   -0.242484    0.000000
siesta:     27    2.488141   -1.986915    0.000000
siesta:     28   -0.241319    7.578021    0.000000
siesta:     29   -0.264947   -7.580558    0.000000
siesta:     30  -18.022056  556.711408    0.000000
siesta:     31   20.109447  553.615861    0.000000
siesta:     32   21.846725   -6.416100    0.000000
siesta:     33   -0.524781    2.518260    0.000000
siesta:     34    0.693465   -0.796191    0.000000
siesta:     35   -0.410652    0.300591    0.000000
siesta:     36   -0.524344   -0.295592    0.000000
siesta:     37  -23.331314  395.983531    0.000000
siesta:     38  -24.897173   -0.013904    0.000000
siesta:     39  -22.970367  553.683882    0.000000
siesta:     40  -21.792688   -6.253927    0.000000
siesta:     41   -0.175772  558.579989    0.000000
siesta:     42   -0.018675    2.106250    0.000000
siesta:     43   -0.818263   -0.243661    0.000000
siesta:     44   -0.786435    0.273897    0.000000
siesta:     45    2.559334   -2.942235    0.000000
siesta:     46   -1.531104    0.064258    0.000000
siesta:     47    0.380838    2.516369    0.000000
siesta:     48   -0.698708   -0.853087    0.000000
siesta:     49    0.807261   -0.263258    0.000000
siesta:     50    0.893795    0.238950    0.000000
siesta:     51    1.032143   -0.311602    0.000000
siesta:     52   -2.435626   -1.875491    0.000000
siesta:     53    0.385805    0.329325    0.000000
siesta:     54    0.434377   -0.336025    0.000000
siesta:     55    0.260629    7.574981    0.000000
siesta:     56    0.240736   -7.681784    0.000000
siesta:     57   -2.489583    2.009536    0.000000
siesta:     58    1.162948    0.112774    0.000000
siesta:     59    0.880354    0.649818    0.000000
siesta:     60   -1.000801   -2.583696    0.000000
siesta:     61   -0.133514   -2.136556    0.000000
siesta:     62    0.096186 -559.160831    0.000000
siesta:     63   -0.728651    0.864517    0.000000
siesta:     64    0.343359   -2.524844    0.000000
siesta:     65   22.703557    3.451681    0.000000
siesta:     66   25.715981 -410.572117    0.000000
siesta:     67  -21.543170    6.392506    0.000000
siesta:     68  -21.000849 -557.931583    0.000000
siesta:     69   -1.598135   -0.058443    0.000000
siesta:     70    2.384061    2.642480    0.000000
siesta:     71   -1.700883  129.767055    0.000000
siesta:     72    0.255549 -549.532558    0.000000
siesta: ----------------------------------------
siesta:    Tot   -0.186704    0.003988    0.000000

siesta: Stress tensor (static) (eV/Ang**3):
siesta:    -0.385606    0.011950    0.000000
siesta:     0.011950   -1.553151    0.000000
siesta:     0.000000    0.000000   -0.000222

siesta: Cell volume =       1893.226884 Ang**3

siesta: Pressure (static):
siesta:                Solid            Molecule  Units
siesta:           0.00703932          0.11184436  Ry/Bohr**3
siesta:           0.64632634         10.26916911  eV/Ang**3
siesta:        1035.54015203      16453.20064698  kBar
(Free)E+ p_basis*V_orbitals  =       -9851.207652
(Free)Eharris+ p_basis*V_orbitals  =       -9851.201928

siesta: Electric dipole (a.u.)  =    0.000000    0.000000    0.000000
siesta: Electric dipole (Debye) =    0.000000    0.000000    0.000000

* Maximum dynamic memory allocated : Node    0 =   166 MB
* Maximum dynamic memory allocated : Node    1 =    66 MB
* Maximum dynamic memory allocated : Node    2 =    67 MB
* Maximum dynamic memory allocated : Node    3 =   152 MB
* Maximum dynamic memory allocated : Node    4 =   165 MB
* Maximum dynamic memory allocated : Node    5 =    61 MB
* Maximum dynamic memory allocated : Node    6 =    62 MB
* Maximum dynamic memory allocated : Node    7 =   156 MB
* Maximum dynamic memory allocated : Node    8 =   140 MB
* Maximum dynamic memory allocated : Node    9 =    57 MB
* Maximum dynamic memory allocated : Node   10 =    58 MB
* Maximum dynamic memory allocated : Node   11 =   134 MB

* Maximum memory occured during matrixMtoO                    

timer: CPU execution times:
timer:  Routine       Calls   Time/call    Tot.time        %
timer:  siesta            1  127295.908  127295.908   100.00
timer:  Setup             1       3.236       3.236     0.00
timer:  bands             3     225.584     676.753     0.53
timer:  writewave         1       0.022       0.022     0.00
timer:  KSV_init          1       0.006       0.006     0.00
timer:  IterMD            1  126608.854  126608.854    99.46
timer:  hsparse           1       0.283       0.283     0.00
timer:  overlap           1       6.383       6.383     0.01
timer:  IterSCF          43    2940.779  126453.508    99.34
timer:  kinefsm           2       3.244       6.489     0.01
timer:  nlefsm            2      19.953      39.906     0.03
timer:  DHSCF            44      79.691    3506.394     2.75
timer:  DHSCF1            1       1.197       1.197     0.00
timer:  DHSCF2            1      32.813      32.813     0.03
timer:  REORD           354       0.003       0.889     0.00
timer:  POISON           45       0.451      20.306     0.02
timer:  DHSCF3           44      78.304    3445.387     2.71
timer:  rhoofd           44      16.310     717.647     0.56
timer:  cellXC           44       2.449     107.763     0.08
timer:  vmat             44      36.930    1624.925     1.28
timer:  MolMec            2       0.000       0.000     0.00
timer:  diagon           43    2859.988  122979.476    96.61
timer:  c-eigval      10054       5.581   56108.410    44.08
timer:  c-buildHS     10054       0.035     354.530     0.28
timer:  cdiag         19987       5.681  113548.668    89.20
timer:  cdiag1        19987       0.259    5169.505     4.06
timer:  cdiag2        19987       1.833   36627.805    28.77
timer:  cdiag3        19987       3.378   67515.972    53.04
timer:  cdiag4        19987       0.088    1754.069     1.38
timer:  c-eigvec       9933       5.848   58090.992    45.63
timer:  c-buildD       9933       0.947    9403.067     7.39
timer:  DHSCF4            1      26.715      26.715     0.02
timer:  dfscf             1      24.645      24.645     0.02
timer:  overfsm           1       0.313       0.313     0.00
timer:  optical           1       6.452       6.452     0.01
  

elaps: ELAPSED times:
elaps:  Routine       Calls   Time/call    Tot.time        %
elaps:  siesta            1   10632.891   10632.891   100.00
elaps:  Setup             1       0.279       0.279     0.00
elaps:  bands             3      18.859      56.576     0.53
elaps:  writewave         1       0.002       0.002     0.00
elaps:  KSV_init          1       0.000       0.000     0.00
elaps:  IterMD            1   10575.492   10575.492    99.46
elaps:  hsparse           1       0.028       0.028     0.00
elaps:  overlap           1       0.716       0.716     0.01
elaps:  IterSCF          43     245.640   10562.516    99.34
elaps:  kinefsm           2       0.366       0.732     0.01
elaps:  nlefsm            2       1.771       3.542     0.03
elaps:  DHSCF            44       6.709     295.209     2.78
elaps:  DHSCF1            1       0.101       0.101     0.00
elaps:  DHSCF2            1       2.739       2.739     0.03
elaps:  REORD           354       0.000       0.108     0.00
elaps:  POISON           45       0.038       1.707     0.02
elaps:  DHSCF3           44       6.542     287.843     2.71
elaps:  rhoofd           44       2.939     129.332     1.22
elaps:  cellXC           44       0.204       8.981     0.08
elaps:  vmat             44       3.086     135.778     1.28
elaps:  MolMec            2       0.000       0.000     0.00
elaps:  diagon           43     238.898   10272.634    96.61
elaps:  c-eigval      10054       0.466    4686.608    44.08
elaps:  c-buildHS     10054       0.004      37.751     0.36
elaps:  cdiag         19987       0.469    9381.189    88.23
elaps:  cdiag1        19987       0.021     422.517     3.97
elaps:  cdiag2        19987       0.153    3062.267    28.80
elaps:  cdiag3        19987       0.283    5648.131    53.12
elaps:  cdiag4        19987       0.007     140.704     1.32
elaps:  c-eigvec       9933       0.480    4764.114    44.81
elaps:  c-buildD       9933       0.088     873.313     8.21
elaps:  DHSCF4            1       4.481       4.481     0.04
elaps:  dfscf             1       4.225       4.225     0.04
elaps:  overfsm           1       0.034       0.034     0.00
elaps:  optical           1       0.000       0.000     0.00
  
>> End of run:   4-MAY-2016  17:58:50
