Siesta Version:                                        siesta-3.2-pl-3
Architecture  : x86_64-unknown-linux-gnu--unknown
Compiler flags: mpiifort -g -O2 -fPIC -xSSE4.1 -fp-model source -shared-intel 
PARALLEL version

* Running on    8 nodes in parallel
>> Start of run:  30-APR-2016  13:49:23

                           ***********************       
                           *  WELCOME TO SIESTA  *       
                           ***********************       

reinit: Reading from standard input
************************** Dump of input data file ****************************
#(1) General system descriptors
SystemName            GRP_doping    # Descriptive name of the system
SystemLabel           GRP_doping    # Short name for naming files
%include STRUCT.fdf
%include KPT.fdf
%include BASIS.fdf
#%include TS.fdf # for transiesta calculation
#(4) DFT, Grid, SCF
XC.functional         GGA           # LDA or GGA (default = LDA)
XC.authors            PBE           # CA (Ceperley-Aldr) = PZ
                                    #    (Perdew-Zunger) - LDA - Default
                                    # PW92 (Perdew-Wang-92) - LDA
                                    # PBE (Perdew-Burke-Ernzerhof) - GGA
MeshCutoff            200.000000    Ry      # Default: 50.0 Ry ~ 0.444 Bohr
                                    #         100.0 Ry ~ 0.314 Bohr
MaxSCFIterations      500           # Default: 50
DM.MixingWeight       0.05          # Default: 0.25
DM.NumberPulay        10            # Default: 0
DM.PulayOnFile        F             # SystemLabel.P1, SystemLabel.P2
DM.Tolerance          1.d-4         # Default: 1.d-4
DM.UseSaveDM          .true.        # because of the bug
SCFMustConverge       .true.
NeglNonOverlapInt     F             # Default: F
#(5) Eigenvalue problem: order-N or diagonalization
SolutionMethod        Diagon        # or Transiesta
ElectronicTemperature 300.0 K       # Default: 300.0 K
#(6) Molecular dynamics and relaxations
#MD.TypeOfRun          CG            # Type of dynamics:
#MD.VariableCell       F
#MD.NumCGsteps         0           # 0 for single-point / 100 for gopt
#MD.MaxCGDispl         0.2 Bohr      # Default: 0.2 Bohr
#MD.MaxForceTol        0.02 eV/Ang   # Default: 0.04 eV/Ang
#MD.MaxStressTol       1.0 GPa       # Default: 1.0 GPa
# Geometry Constraints
#%block GeometryConstraints
#	position from 1 to 44
#%endblock GeometryConstraints
BandLinesScale   pi/a
%block BandLines
 1   0.00000000  0.00000000  0.00000000
50   0.00000000  0.07809418  0.00000000
50   0.04509075  0.07809242  0.00000000
20   0.00000000  0.00000000  0.00000000
%endblock BandLines
************************** End of input data file *****************************

reinit: -----------------------------------------------------------------------
reinit: System Name: GRP_doping
reinit: -----------------------------------------------------------------------
reinit: System Label: GRP_doping                                                  
reinit: -----------------------------------------------------------------------

initatom: Reading input for the pseudopotentials and atomic orbitals ----------
 Species number:            1  Label: B Atomic number:           5
 Species number:            2  Label: C Atomic number:           6
Ground state valence configuration:   2s02  2p01
Reading pseudopotential information in formatted form from B.psf

Valence configuration for pseudopotential generation:
2s( 2.00) rc: 1.74
2p( 1.00) rc: 1.74
3d( 0.00) rc: 1.74
4f( 0.00) rc: 1.74
Ground state valence configuration:   2s02  2p02
Reading pseudopotential information in formatted form from C.psf

Valence configuration for pseudopotential generation:
2s( 2.00) rc: 1.54
2p( 2.00) rc: 1.54
3d( 0.00) rc: 1.54
4f( 0.00) rc: 1.54
For B, standard SIESTA heuristics set lmxkb to 3
 (one more than the basis l, including polarization orbitals).
Use PS.lmax or PS.KBprojectors blocks to override.
For C, standard SIESTA heuristics set lmxkb to 3
 (one more than the basis l, including polarization orbitals).
Use PS.lmax or PS.KBprojectors blocks to override.

<basis_specs>
===============================================================================
B                    Z=   5    Mass=  10.810        Charge= 0.17977+309
Lmxo=1 Lmxkb= 3    BasisType=split      Semic=F
L=0  Nsemic=0  Cnfigmx=2
          n=1  nzeta=2  polorb=0
            splnorm:   0.15000    
               vcte:    0.0000    
               rinn:    0.0000    
                rcs:    0.0000      0.0000    
            lambdas:    1.0000      1.0000    
L=1  Nsemic=0  Cnfigmx=2
          n=1  nzeta=2  polorb=1
            splnorm:   0.15000    
               vcte:    0.0000    
               rinn:    0.0000    
                rcs:    0.0000      0.0000    
            lambdas:    1.0000      1.0000    
-------------------------------------------------------------------------------
L=0  Nkbl=1  erefs: 0.17977+309
L=1  Nkbl=1  erefs: 0.17977+309
L=2  Nkbl=1  erefs: 0.17977+309
L=3  Nkbl=1  erefs: 0.17977+309
===============================================================================
</basis_specs>

atom: Called for B                     (Z =   5)

read_vps: Pseudopotential generation method:
read_vps: ATM3      Troullier-Martins                       
Total valence charge:    3.00000

read_vps: Pseudopotential includes a core correction:
read_vps: Pseudo-core for xc-correction

xc_check: Exchange-correlation functional:
xc_check: GGA Perdew, Burke & Ernzerhof 1996
V l=0 = -2*Zval/r beyond r=  1.7165
V l=1 = -2*Zval/r beyond r=  1.7165
V l=2 = -2*Zval/r beyond r=  1.7165
V l=3 = -2*Zval/r beyond r=  1.6951
All V_l potentials equal beyond r=  1.7165
This should be close to max(r_c) in ps generation
All pots = -2*Zval/r beyond r=  1.7165

VLOCAL1: 99.0% of the norm of Vloc inside     14.733 Ry
VLOCAL1: 99.9% of the norm of Vloc inside     33.577 Ry
atom: Maximum radius for 4*pi*r*r*local-pseudopot. charge    2.04484
atom: Maximum radius for r*vlocal+2*Zval:    1.75994
GHOST: No ghost state for L =  0
GHOST: No ghost state for L =  1
GHOST: No ghost state for L =  2
GHOST: No ghost state for L =  3

KBgen: Kleinman-Bylander projectors: 
   l= 0   rc=  1.897051   el= -0.693730   Ekb=  4.595746   kbcos=  0.286105
   l= 1   rc=  1.920920   el= -0.265236   Ekb= -2.350715   kbcos= -0.315747
   l= 2   rc=  2.044840   el=  0.002055   Ekb= -0.690767   kbcos= -0.013822
   l= 3   rc=  2.149707   el=  0.003188   Ekb= -0.315358   kbcos= -0.002055

KBgen: Total number of  Kleinman-Bylander projectors:   16
atom: -------------------------------------------------------------------------

atom: SANKEY-TYPE ORBITALS:
atom: Selected multiple-zeta basis: split     

SPLIT: Orbitals with angular momentum L= 0

SPLIT: Basis orbitals for state 2s

SPLIT: PAO cut-off radius determined from an
SPLIT: energy shift=  0.007350 Ry

   izeta = 1
                 lambda =    1.000000
                     rc =    5.422032
                 energy =   -0.686029
                kinetic =    0.576707
    potential(screened) =   -1.262736
       potential(ionic) =   -3.271094

   izeta = 2
                 rmatch =    4.222573
              splitnorm =    0.150000
                 energy =   -0.602132
                kinetic =    0.858975
    potential(screened) =   -1.461107
       potential(ionic) =   -3.582536

SPLIT: Orbitals with angular momentum L= 1

SPLIT: Basis orbitals for state 2p

SPLIT: PAO cut-off radius determined from an
SPLIT: energy shift=  0.007350 Ry

   izeta = 1
                 lambda =    1.000000
                     rc =    6.790259
                 energy =   -0.258578
                kinetic =    1.481412
    potential(screened) =   -1.739989
       potential(ionic) =   -3.657461

   izeta = 2
                 rmatch =    4.608740
              splitnorm =    0.150000
                 energy =   -0.173757
                kinetic =    2.186690
    potential(screened) =   -2.360447
       potential(ionic) =   -4.464260

POLgen: Perturbative polarization orbital with L=  2

POLgen: Polarization orbital for state 2p

   izeta = 1
                     rc =    6.790259
                 energy =    0.684082
                kinetic =    1.471481
    potential(screened) =   -0.787399
       potential(ionic) =   -2.406985
atom: Total number of Sankey-type orbitals: 13

atm_pop: Valence configuration (for local Pseudopot. screening):
 2s( 2.00)                                                            
 2p( 1.00)                                                            
Vna: chval, zval:    3.00000   3.00000

Vna:  Cut-off radius for the neutral-atom potential:   6.790259
comcore: Pseudo-core radius Rcore=  2.122997

atom: _________________________________________________________________________

<basis_specs>
===============================================================================
C                    Z=   6    Mass=  12.010        Charge= 0.17977+309
Lmxo=1 Lmxkb= 3    BasisType=split      Semic=F
L=0  Nsemic=0  Cnfigmx=2
          n=1  nzeta=2  polorb=0
            splnorm:   0.15000    
               vcte:    0.0000    
               rinn:    0.0000    
                rcs:    0.0000      0.0000    
            lambdas:    1.0000      1.0000    
L=1  Nsemic=0  Cnfigmx=2
          n=1  nzeta=2  polorb=1
            splnorm:   0.15000    
               vcte:    0.0000    
               rinn:    0.0000    
                rcs:    0.0000      0.0000    
            lambdas:    1.0000      1.0000    
-------------------------------------------------------------------------------
L=0  Nkbl=1  erefs: 0.17977+309
L=1  Nkbl=1  erefs: 0.17977+309
L=2  Nkbl=1  erefs: 0.17977+309
L=3  Nkbl=1  erefs: 0.17977+309
===============================================================================
</basis_specs>

atom: Called for C                     (Z =   6)

read_vps: Pseudopotential generation method:
read_vps: ATM3      Troullier-Martins                       
Total valence charge:    4.00000

read_vps: Pseudopotential includes a core correction:
read_vps: Pseudo-core for xc-correction

xc_check: Exchange-correlation functional:
xc_check: GGA Perdew, Burke & Ernzerhof 1996
V l=0 = -2*Zval/r beyond r=  1.5227
V l=1 = -2*Zval/r beyond r=  1.5227
V l=2 = -2*Zval/r beyond r=  1.5227
V l=3 = -2*Zval/r beyond r=  1.5038
All V_l potentials equal beyond r=  1.5227
This should be close to max(r_c) in ps generation
All pots = -2*Zval/r beyond r=  1.5227

VLOCAL1: 99.0% of the norm of Vloc inside     18.722 Ry
VLOCAL1: 99.9% of the norm of Vloc inside     42.668 Ry
atom: Maximum radius for 4*pi*r*r*local-pseudopot. charge    1.83678
atom: Maximum radius for r*vlocal+2*Zval:    1.58088
GHOST: No ghost state for L =  0
GHOST: No ghost state for L =  1
GHOST: No ghost state for L =  2
GHOST: No ghost state for L =  3

KBgen: Kleinman-Bylander projectors: 
   l= 0   rc=  1.704034   el= -1.009801   Ekb=  5.335044   kbcos=  0.316824
   l= 1   rc=  1.704034   el= -0.388707   Ekb= -3.785862   kbcos= -0.366464
   l= 2   rc=  1.791422   el=  0.001971   Ekb= -0.970471   kbcos= -0.009212
   l= 3   rc=  1.859892   el=  0.003065   Ekb= -0.399525   kbcos= -0.001223

KBgen: Total number of  Kleinman-Bylander projectors:   16
atom: -------------------------------------------------------------------------

atom: SANKEY-TYPE ORBITALS:
atom: Selected multiple-zeta basis: split     

SPLIT: Orbitals with angular momentum L= 0

SPLIT: Basis orbitals for state 2s

SPLIT: PAO cut-off radius determined from an
SPLIT: energy shift=  0.007350 Ry

   izeta = 1
                 lambda =    1.000000
                     rc =    4.632753
                 energy =   -1.002270
                kinetic =    0.855760
    potential(screened) =   -1.858031
       potential(ionic) =   -5.417575

   izeta = 2
                 rmatch =    3.431921
              splitnorm =    0.150000
                 energy =   -0.867111
                kinetic =    1.300804
    potential(screened) =   -2.167915
       potential(ionic) =   -5.962684

SPLIT: Orbitals with angular momentum L= 1

SPLIT: Basis orbitals for state 2p

SPLIT: PAO cut-off radius determined from an
SPLIT: energy shift=  0.007350 Ry

   izeta = 1
                 lambda =    1.000000
                     rc =    5.658549
                 energy =   -0.381140
                kinetic =    2.399701
    potential(screened) =   -2.780841
       potential(ionic) =   -6.206085

   izeta = 2
                 rmatch =    3.653288
              splitnorm =    0.150000
                 energy =   -0.249149
                kinetic =    3.542762
    potential(screened) =   -3.791911
       potential(ionic) =   -7.581078

POLgen: Perturbative polarization orbital with L=  2

POLgen: Polarization orbital for state 2p

   izeta = 1
                     rc =    5.658549
                 energy =    1.109913
                kinetic =    2.304789
    potential(screened) =   -1.194876
       potential(ionic) =   -4.013592
atom: Total number of Sankey-type orbitals: 13

atm_pop: Valence configuration (for local Pseudopot. screening):
 2s( 2.00)                                                            
 2p( 2.00)                                                            
Vna: chval, zval:    4.00000   4.00000

Vna:  Cut-off radius for the neutral-atom potential:   5.658549
comcore: Pseudo-core radius Rcore=  1.791422

atom: _________________________________________________________________________

prinput: Basis input ----------------------------------------------------------

PAO.BasisType split     

%block ChemicalSpeciesLabel
    1    5 B                       # Species index, atomic number, species label
    2    6 C                       # Species index, atomic number, species label
%endblock ChemicalSpeciesLabel

%block PAO.Basis                 # Define Basis set
B                     2                    # Species label, number of l-shells
 n=2   0   2                         # n, l, Nzeta 
   5.422      4.223   
   1.000      1.000   
 n=2   1   2 P   1                   # n, l, Nzeta, Polarization, NzetaPol
   6.790      4.609   
   1.000      1.000   
C                     2                    # Species label, number of l-shells
 n=2   0   2                         # n, l, Nzeta 
   4.633      3.432   
   1.000      1.000   
 n=2   1   2 P   1                   # n, l, Nzeta, Polarization, NzetaPol
   5.659      3.653   
   1.000      1.000   
%endblock PAO.Basis

prinput: ----------------------------------------------------------------------

coor:   Atomic-coordinates input format  =     Fractional

siesta: Atomic coordinates (Bohr) and species
siesta:      9.28770  26.79272   0.00000  1        1
siesta:      9.28770  21.41544   0.00000  1        2
siesta:     11.61608  22.75985   0.00000  1        3
siesta:     11.61608  25.44831   0.00000  1        4
siesta:      6.95932  22.75985   0.00000  1        5
siesta:      6.95932  25.44831   0.00000  1        6
siesta:     -0.02582  21.41544   0.00000  1        7
siesta:      2.30256  22.75985   0.00000  1        8
siesta:      2.30256  25.44831   0.00000  1        9
siesta:     -4.68258  21.41544   0.00000  1       10
siesta:     -2.35420  22.75985   0.00000  1       11
siesta:     -2.35420  25.44831   0.00000  1       12
siesta:     -9.33934  21.41544   0.00000  1       13
siesta:     -7.01096  22.75985   0.00000  1       14
siesta:     -7.01096  25.44831   0.00000  1       15
siesta:    -11.66772  22.75985   0.00000  1       16
siesta:    -11.66772  25.44831   0.00000  1       17
siesta:     -9.33934  26.79272   0.00000  1       18
siesta:     -0.02582  26.79272   0.00000  1       19
siesta:     -0.02582   2.59549   0.00000  2       20
siesta:     -0.02582   5.28395   0.00000  2       21
siesta:     -2.35420  38.89134   0.00000  2       22
siesta:     -2.35420  41.57980   0.00000  2       23
siesta:      2.30256  38.89134   0.00000  2       24
siesta:      2.30256  41.57980   0.00000  2       25
siesta:      4.63094  34.85847   0.00000  2       26
siesta:      4.63094  37.54693   0.00000  2       27
siesta:      6.95932  30.82560   0.00000  2       28
siesta:      6.95932  33.51406   0.00000  2       29
siesta:      9.28770  29.48119   0.00000  2       30
siesta:     -4.68258  34.85847   0.00000  2       31
siesta:     -4.68258  37.54693   0.00000  2       32
siesta:      2.30256   6.62836   0.00000  2       33
siesta:      2.30256   9.31683   0.00000  2       34
siesta:      4.63094  10.66124   0.00000  2       35
siesta:      4.63094  13.34970   0.00000  2       36
siesta:      6.95932  14.69411   0.00000  2       37
siesta:      6.95932  17.38257   0.00000  2       38
siesta:      9.28770  18.72698   0.00000  2       39
siesta:     -2.35420   6.62836   0.00000  2       40
siesta:     -2.35420   9.31683   0.00000  2       41
siesta:     -0.02582  10.66124   0.00000  2       42
siesta:     -0.02582  13.34970   0.00000  2       43
siesta:      2.30256  14.69411   0.00000  2       44
siesta:      2.30256  17.38257   0.00000  2       45
siesta:      4.63094  18.72698   0.00000  2       46
siesta:      4.63094  21.41544   0.00000  2       47
siesta:     -4.68258  10.66124   0.00000  2       48
siesta:     -4.68258  13.34970   0.00000  2       49
siesta:     -2.35420  14.69411   0.00000  2       50
siesta:     -2.35420  17.38257   0.00000  2       51
siesta:     -0.02582  18.72698   0.00000  2       52
siesta:     -7.01096  14.69411   0.00000  2       53
siesta:     -7.01096  17.38257   0.00000  2       54
siesta:     -4.68258  18.72698   0.00000  2       55
siesta:     -9.33934  18.72698   0.00000  2       56
siesta:     -9.33934  29.48119   0.00000  2       57
siesta:      4.63094  26.79272   0.00000  2       58
siesta:      4.63094  29.48119   0.00000  2       59
siesta:     -0.02582  29.48119   0.00000  2       60
siesta:     -4.68258  26.79272   0.00000  2       61
siesta:     -4.68258  29.48119   0.00000  2       62
siesta:      2.30256  30.82560   0.00000  2       63
siesta:      2.30256  33.51406   0.00000  2       64
siesta:     -2.35420  30.82560   0.00000  2       65
siesta:     -2.35420  33.51406   0.00000  2       66
siesta:     -7.01096  30.82560   0.00000  2       67
siesta:     -7.01096  33.51406   0.00000  2       68
siesta:     -0.02582  34.85847   0.00000  2       69
siesta:     -0.02582  37.54693   0.00000  2       70
siesta:     -0.02582  42.92421   0.00000  2       71
siesta:     -0.02582  45.61267   0.00000  2       72

siesta: System type = slab      

initatomlists: Number of atoms, orbitals, and projectors:     72   936  1152

siesta: ******************** Simulation parameters ****************************
siesta:
siesta: The following are some of the parameters of the simulation.
siesta: A complete list of the parameters used, including default values,
siesta: can be found in file out.fdf
siesta:
redata: Non-Collinear-spin run           =     F
redata: SpinPolarized (Up/Down) run      =     F
redata: Number of spin components        =     1
redata: Long output                      =     F
redata: Number of Atomic Species         =        2
redata: Charge density info will appear in .RHO file
redata: Write Mulliken Pop.              =     NO
redata: Mesh Cutoff                      =   200.0000  Ry
redata: Net charge of the system         =     0.0000 |e|
redata: Max. number of SCF Iter          =      500
redata: SCF convergence failure will abort job
redata: Performing Pulay mixing using    =    10 iterations
redata: Mix DM in first SCF step ?       =     F
redata: Write Pulay info on disk?        =     F
redata: Discard 1st Pulay DM after  kick =     F
redata: New DM Mixing Weight             =     0.0500
redata: New DM Occupancy tolerance       = 0.000000000001
redata: No kicks to SCF
redata: DM Mixing Weight for Kicks       =     0.5000
redata: DM Tolerance for SCF             =     0.000100
redata: Require Energy convergence for SCF =     F
redata: DM Energy tolerance for SCF      =     0.000100 eV
redata: Require Harris convergence for SCF =     F
redata: DM Harris energy tolerance for SCF =     0.000100 eV
redata: Using Saved Data (generic)   =     F
redata: Use continuation files for DM    =     T
redata: Neglect nonoverlap interactions  =     F
redata: Method of Calculation            =     Diagonalization
redata: Divide and Conquer               =     T
redata: Electronic Temperature           =     0.0019  Ry
redata: Fix the spin of the system       =     F
redata: Dynamics option                  =     Verlet MD run
redata: Initial MD time step             =        1
redata:   Final MD time step             =        1
redata: Length of MD time step           =     1.0000  fs
redata: Initial Temperature of MD run    =     0.0000  K
redata: Perform a MD quench              =     F
redata: ***********************************************************************
Total number of electrons:   269.000000
Total ionic charge:   269.000000

* ProcessorY, Blocksize:    2  24

k-point displ. along   1 input, could be:     0.50    0.00
k-point displ. along   2 input, could be:     0.50    0.00
 Kpoints in:          231 . Kpoints trimmed:          231

siesta: k-grid: Number of k-points =   231
siesta: k-grid: Cutoff (effective) =     5.000 Ang
siesta: k-grid: Supercell and displacements
siesta: k-grid:   21   0   0      0.500
siesta: k-grid:    0  21   0      0.500
siesta: k-grid:    0   0   1      0.000
Naive supercell factors:     2    2    2

superc: Internal auxiliary supercell:     2 x     2 x     2  =       8
superc: Number of atoms, orbitals, and projectors:    576   7488   9216

* Maximum dynamic memory allocated =     4 MB

siesta:                 ==============================
                            Begin MD step =      1
                        ==============================

superc: Internal auxiliary supercell:     2 x     2 x     2  =       8
superc: Number of atoms, orbitals, and projectors:    576   7488   9216

outcell: Unit cell vectors (Ang):
       12.804619    7.392750    0.000000
        0.000000   14.785500    0.000000
        0.000000    0.000000   10.000000

outcell: Cell vector modules (Ang)   :   14.785500   14.785500   10.000000
outcell: Cell angles (23,13,12) (deg):     90.0000     90.0000     60.0000
outcell: Cell volume (Ang**3)        :   1893.2269
New_DM. Step:     1
Initializing Density Matrix...

InitMesh: MESH =   120 x   120 x    90 =     1296000
InitMesh: Mesh cutoff (required, used) =   200.000   223.865 Ry

* Maximum dynamic memory allocated =   217 MB

stepf: Fermi-Dirac step function

siesta: Program's energy decomposition (eV):
siesta: Ebs     =     -5585.815733
siesta: Eions   =     15969.933558
siesta: Ena     =      4279.858549
siesta: Ekin    =      5376.155659
siesta: Enl     =       791.049150
siesta: DEna    =        -0.000009
siesta: DUscf   =         0.000000
siesta: DUext   =         0.000000
siesta: Exc     =     -4211.223130
siesta: eta*DQ  =         0.000000
siesta: Emadel  =         0.000000
siesta: Emeta   =         0.000000
siesta: Emolmec =         0.000000
siesta: Ekinion =         0.000000
siesta: Eharris =     -9404.972455
siesta: Etot    =     -9734.093339
siesta: FreeEng =     -9734.093339

siesta: iscf   Eharris(eV)      E_KS(eV)   FreeEng(eV)   dDmax  Ef(eV)
siesta:    1    -9404.9725    -9734.0933    -9734.0933  6.3293 -8.3330
timer: Routine,Calls,Time,% = IterSCF        1    4499.475  99.74
elaps: Routine,Calls,Wall,% = IterSCF        1     563.112  99.74
siesta:    2   -11985.4064    -8830.4253    -8830.4595 15.2742 -1.2803
siesta:    3    -9320.4651    -9569.2580    -9569.3008  3.2162 -6.5742
siesta:    4    -9305.1906    -9421.2715    -9421.3199  1.1229 -5.2342
siesta:    5    -9275.8663    -9352.2679    -9352.3135  0.7873 -5.0067
siesta:    6    -9256.7426    -9327.3872    -9327.4431  0.7083 -4.8484
siesta:    7    -9250.1159    -9310.7650    -9310.7965  0.6308 -4.9691
siesta:    8    -9248.4389    -9297.1727    -9297.2231  0.5691 -5.0173
siesta:    9    -9248.2320    -9271.4883    -9271.5315  0.3845 -5.0900
siesta:   10    -9247.3311    -9256.0594    -9256.1107  0.2799 -5.0581
siesta:   11    -9245.9529    -9237.9555    -9238.0129  0.1831 -5.0298
siesta:   12    -9246.2215    -9229.4641    -9229.5299  0.1645 -5.0207
siesta:   13    -9245.3131    -9231.7298    -9231.7981  0.0919 -4.9771
siesta:   14    -9245.2508    -9231.7433    -9231.7900  0.0783 -4.9839
siesta:   15    -9245.1121    -9234.4777    -9234.5261  0.0542 -5.0166
siesta:   16    -9245.0568    -9237.2859    -9237.3356  0.0373 -5.0451
siesta:   17    -9245.0534    -9239.3558    -9239.4088  0.0306 -5.0622
siesta:   18    -9245.0294    -9241.4752    -9241.5275  0.0162 -5.0586
siesta:   19    -9245.0238    -9242.0538    -9242.1080  0.0119 -5.0540
siesta:   20    -9245.0221    -9242.3584    -9242.4134  0.0077 -5.0473
siesta:   21    -9245.0215    -9242.5796    -9242.6333  0.0062 -5.0448
siesta:   22    -9245.0211    -9243.0485    -9243.1021  0.0064 -5.0443
siesta:   23    -9245.0207    -9243.9603    -9244.0140  0.0042 -5.0434
siesta:   24    -9245.0206    -9244.5393    -9244.5926  0.0022 -5.0439
siesta:   25    -9245.0202    -9244.8282    -9244.8815  0.0008 -5.0446
siesta:   26    -9245.0201    -9244.8579    -9244.9115  0.0007 -5.0447
siesta:   27    -9245.0201    -9244.9295    -9244.9831  0.0005 -5.0448
siesta:   28    -9245.0202    -9244.9816    -9245.0353  0.0004 -5.0450
siesta:   29    -9245.0201    -9245.0123    -9245.0659  0.0005 -5.0451
siesta:   30    -9245.0202    -9245.0193    -9245.0729  0.0003 -5.0450
siesta:   31    -9245.0202    -9245.0162    -9245.0698  0.0002 -5.0449
siesta:   32    -9245.0202    -9245.0138    -9245.0674  0.0001 -5.0449
siesta:   33    -9245.0202    -9245.0123    -9245.0659  0.0001 -5.0449

siesta: E_KS(eV) =            -9245.0150

siesta: E_KS - E_eggbox =     -9245.0150

siesta: Atomic forces (eV/Ang):
----------------------------------------
   Tot   -0.148838   -0.076917    0.000000
----------------------------------------
   Max  562.260265
   Res  161.203716    sqrt( Sum f_i^2 / 3N )
----------------------------------------
   Max  562.260265    constrained

Stress-tensor-Voigt (kbar):     -830.29    -2968.14       -0.68       -2.65        0.00        0.00
(Free)E + p*V (eV/cell)    -7748.6644
Target enthalpy (eV/cell)    -9245.0686

siesta: Stress tensor (static) (eV/Ang**3):
        -0.518221   -0.001655    0.000000
        -0.001655   -1.852548    0.000000
         0.000000    0.000000   -0.000427

siesta: Pressure (static):       1266.37206744  kBar

siesta: Stress tensor (total) (eV/Ang**3):
        -0.518221   -0.001655    0.000000
        -0.001655   -1.852548    0.000000
         0.000000    0.000000   -0.000427

siesta: Pressure (total):       1266.37206744  kBar

siesta: Temp_ion =       0.000 K

* Maximum dynamic memory allocated =   234 MB
Computing bands...

siesta: Program's energy decomposition (eV):
siesta: Ebs     =     -4227.914401
siesta: Eions   =     15969.933558
siesta: Ena     =      4279.858549
siesta: Ekin    =      8361.330056
siesta: Enl     =      -811.000109
siesta: DEna    =      -825.776106
siesta: DUscf   =       110.272148
siesta: DUext   =         0.000000
siesta: Exc     =     -4389.765953
siesta: eta*DQ  =         0.000000
siesta: Emadel  =         0.000000
siesta: Emeta   =         0.000000
siesta: Emolmec =         0.000000
siesta: Ekinion =         0.000000
siesta: Eharris =     -9245.020152
siesta: Etot    =     -9245.014974
siesta: FreeEng =     -9245.068565

siesta: Final energy (eV):
siesta:  Band Struct. =   -4227.914401
siesta:       Kinetic =    8361.330056
siesta:       Hartree =   28373.385251
siesta:    Ext. field =       0.000000
siesta:   Exch.-corr. =   -4389.765953
siesta:  Ion-electron =  -64834.327639
siesta:       Ion-ion =   23244.363312
siesta:       Ekinion =       0.000000
siesta:         Total =   -9245.014974

siesta: Atomic forces (eV/Ang):
siesta:      1    5.389895    6.863174    0.000000
siesta:      2    5.392005   -6.869348    0.000000
siesta:      3    5.961763   -2.883696    0.000000
siesta:      4    5.995017    2.872176    0.000000
siesta:      5   -4.747744   -3.037707    0.000000
siesta:      6   -4.502386    3.165439    0.000000
siesta:      7   -1.175739   -4.731342    0.000000
siesta:      8    3.155079   -2.053340    0.000000
siesta:      9    2.951147    2.935408    0.000000
siesta:     10    0.320988   -4.935184    0.000000
siesta:     11    1.649732    0.638007    0.000000
siesta:     12   -3.905180    2.379766    0.000000
siesta:     13   -4.463921   -7.089668    0.000000
siesta:     14    0.508032    0.372332    0.000000
siesta:     15    5.171577    2.893481    0.000000
siesta:     16   -5.927371   -2.857708    0.000000
siesta:     17   -6.089129    2.766568    0.000000
siesta:     18   -5.415970    6.315272    0.000000
siesta:     19    0.348250    3.888664    0.000000
siesta:     20    0.069219  550.352118    0.000000
siesta:     21   -0.075362 -127.925984    0.000000
siesta:     22    1.548423  126.576842    0.000000
siesta:     23  -14.659326 -547.360878    0.000000
siesta:     24   -1.381863  126.677957    0.000000
siesta:     25   13.773689 -547.431378    0.000000
siesta:     26   26.188500    5.862516    0.000000
siesta:     27   33.296678 -548.803550    0.000000
siesta:     28    2.641801    2.087167    0.000000
siesta:     29   -2.182907    1.593033    0.000000
siesta:     30   -2.993997    0.831378    0.000000
siesta:     31  -26.231584    6.014572    0.000000
siesta:     32  -33.617118 -548.890564    0.000000
siesta:     33   15.051957  547.624638    0.000000
siesta:     34   -1.766738 -127.092130    0.000000
siesta:     35   33.165283  548.873244    0.000000
siesta:     36   26.292726   -5.695387    0.000000
siesta:     37   -2.190792   -1.651084    0.000000
siesta:     38    2.699180   -2.061407    0.000000
siesta:     39   -3.096760   -0.762032    0.000000
siesta:     40  -14.646024  547.927431    0.000000
siesta:     41    1.659788 -126.921332    0.000000
siesta:     42   -0.239642  542.561406    0.000000
siesta:     43    0.114920 -125.356760    0.000000
siesta:     44   24.579316  556.685204    0.000000
siesta:     45   21.694086   -5.874093    0.000000
siesta:     46   -0.960281    2.237329    0.000000
siesta:     47   -0.154551   -3.906899    0.000000
siesta:     48  -32.901343  548.912333    0.000000
siesta:     49  -26.288418   -5.568595    0.000000
siesta:     50  -24.069890  556.682337    0.000000
siesta:     51  -21.963579   -6.051399    0.000000
siesta:     52    0.420697  562.113699    0.000000
siesta:     53    2.061653   -1.624109    0.000000
siesta:     54   -2.845374   -2.086432    0.000000
siesta:     55    1.321955   -1.301658    0.000000
siesta:     56    2.480606   -1.400170    0.000000
siesta:     57    3.096281    1.126922    0.000000
siesta:     58    0.117390    3.444784    0.000000
siesta:     59   -0.855544   -2.194002    0.000000
siesta:     60   -0.274632 -562.260265    0.000000
siesta:     61   -0.067079    3.794691    0.000000
siesta:     62    1.081925   -2.358366    0.000000
siesta:     63   21.431227    5.732329    0.000000
siesta:     64   24.054468 -556.710500    0.000000
siesta:     65  -21.498575    5.705502    0.000000
siesta:     66  -24.006621 -556.988266    0.000000
siesta:     67   -2.629663    1.943504    0.000000
siesta:     68    2.153126    1.609610    0.000000
siesta:     69   -0.090306  125.552429    0.000000
siesta:     70    0.259481 -542.875471    0.000000
siesta:     71   -0.206281  128.085995    0.000000
siesta:     72   -0.125014 -550.165472    0.000000
siesta: ----------------------------------------
siesta:    Tot   -0.148838   -0.076917    0.000000

siesta: Stress tensor (static) (eV/Ang**3):
siesta:    -0.518221   -0.001655    0.000000
siesta:    -0.001655   -1.852548    0.000000
siesta:     0.000000    0.000000   -0.000427

siesta: Cell volume =       1893.226884 Ang**3

siesta: Pressure (static):
siesta:                Solid            Molecule  Units
siesta:           0.00860845          0.12573009  Ry/Bohr**3
siesta:           0.79039873         11.54410904  eV/Ang**3
siesta:        1266.37206744      18495.90167643  kBar
(Free)E+ p_basis*V_orbitals  =       -9208.327834
(Free)Eharris+ p_basis*V_orbitals  =       -9208.335710

siesta: Electric dipole (a.u.)  =    0.000000    0.000000    0.000000
siesta: Electric dipole (Debye) =    0.000000    0.000000    0.000000

* Maximum dynamic memory allocated : Node    0 =   234 MB
* Maximum dynamic memory allocated : Node    1 =    82 MB
* Maximum dynamic memory allocated : Node    2 =    84 MB
* Maximum dynamic memory allocated : Node    3 =   222 MB
* Maximum dynamic memory allocated : Node    4 =   231 MB
* Maximum dynamic memory allocated : Node    5 =    84 MB
* Maximum dynamic memory allocated : Node    6 =    87 MB
* Maximum dynamic memory allocated : Node    7 =   212 MB

* Maximum memory occured during matrixMtoO                    

timer: CPU execution times:
timer:  Routine       Calls   Time/call    Tot.time        %
timer:  siesta            1  146795.811  146795.811   100.00
timer:  Setup             1       3.042       3.042     0.00
timer:  bands             3     269.009     807.026     0.55
timer:  writewave         1       0.021       0.021     0.00
timer:  KSV_init          1       0.001       0.001     0.00
timer:  IterMD            1  145979.888  145979.888    99.44
timer:  hsparse           1       0.395       0.395     0.00
timer:  overlap           1       7.784       7.784     0.01
timer:  IterSCF          33    4416.783  145753.833    99.29
timer:  kinefsm           2       4.042       8.083     0.01
timer:  nlefsm            2      21.416      42.833     0.03
timer:  DHSCF            34     116.125    3948.260     2.69
timer:  DHSCF1            1       0.994       0.994     0.00
timer:  DHSCF2            1      44.079      44.079     0.03
timer:  REORD           274       0.010       2.747     0.00
timer:  POISON           35       2.254      78.888     0.05
timer:  DHSCF3           34     113.481    3858.347     2.63
timer:  rhoofd           34      25.099     853.376     0.58
timer:  cellXC           34       3.487     118.549     0.08
timer:  vmat             34      55.951    1902.335     1.30
timer:  MolMec            2       0.000       0.000     0.00
timer:  diagon           33    4299.603  141886.905    96.66
timer:  c-eigval       7744       6.668   51634.666    35.17
timer:  c-buildHS      7744       0.124     963.685     0.66
timer:  cdiag         15367       6.894  105934.689    72.16
timer:  cdiag1        15367       0.425    6528.367     4.45
timer:  cdiag2        15367       1.906   29288.277    19.95
timer:  cdiag3        15367       3.933   60439.734    41.17
timer:  cdiag4        15367       0.226    3465.545     2.36
timer:  c-eigvec       7623       7.315   55764.016    37.99
timer:  c-buildD       7623       4.625   35252.800    24.01
timer:  DHSCF4            1      43.021      43.021     0.03
timer:  dfscf             1      40.344      40.344     0.03
timer:  overfsm           1       0.477       0.477     0.00
timer:  optical           1       5.100       5.100     0.00
  

elaps: ELAPSED times:
elaps:  Routine       Calls   Time/call    Tot.time        %
elaps:  siesta            1   18371.054   18371.054   100.00
elaps:  Setup             1       0.380       0.380     0.00
elaps:  bands             3      33.677     101.032     0.55
elaps:  writewave         1       0.002       0.002     0.00
elaps:  KSV_init          1       0.000       0.000     0.00
elaps:  IterMD            1   18268.969   18268.969    99.44
elaps:  hsparse           1       0.049       0.049     0.00
elaps:  overlap           1       0.974       0.974     0.01
elaps:  IterSCF          33     552.748   18240.694    99.29
elaps:  kinefsm           2       0.508       1.017     0.01
elaps:  nlefsm            2       2.705       5.410     0.03
elaps:  DHSCF            34      14.671     498.822     2.72
elaps:  DHSCF1            1       0.126       0.126     0.00
elaps:  DHSCF2            1       5.511       5.511     0.03
elaps:  REORD           274       0.001       0.363     0.00
elaps:  POISON           35       0.282       9.866     0.05
elaps:  DHSCF3           34      14.197     482.702     2.63
elaps:  rhoofd           34       6.302     214.268     1.17
elaps:  cellXC           34       0.435      14.801     0.08
elaps:  vmat             34       7.000     237.984     1.30
elaps:  MolMec            2       0.000       0.000     0.00
elaps:  diagon           33     538.114   17757.755    96.66
elaps:  c-eigval       7744       0.834    6460.359    35.17
elaps:  c-buildHS      7744       0.017     130.793     0.71
elaps:  cdiag         15367       0.848   13029.321    70.92
elaps:  cdiag1        15367       0.053     814.321     4.43
elaps:  cdiag2        15367       0.238    3664.979    19.95
elaps:  cdiag3        15367       0.493    7572.480    41.22
elaps:  cdiag4        15367       0.028     432.636     2.35
elaps:  c-eigvec       7623       0.891    6790.006    36.96
elaps:  c-buildD       7623       0.604    4602.454    25.05
elaps:  DHSCF4            1      10.239      10.239     0.06
elaps:  dfscf             1       9.721       9.721     0.05
elaps:  overfsm           1       0.058       0.058     0.00
elaps:  optical           1       0.000       0.000     0.00
  
>> End of run:  30-APR-2016  18:55:34
