Siesta Version:                                        siesta-3.2-pl-3
Architecture  : x86_64-unknown-linux-gnu--unknown
Compiler flags: mpiifort -g -O2 -fPIC -xSSE4.1 -fp-model source -shared-intel 
PARALLEL version

* Running on    8 nodes in parallel
>> Start of run:  21-APR-2016   4:59:01

                           ***********************       
                           *  WELCOME TO SIESTA  *       
                           ***********************       

reinit: Reading from standard input
************************** Dump of input data file ****************************
#(1) General system descriptors
SystemName            GRP_doping    # Descriptive name of the system
SystemLabel           GRP_doping    # Short name for naming files
%include STRUCT.fdf
%include KPT.fdf
%include BASIS.fdf
#%include TS.fdf # for transiesta calculation
#(4) DFT, Grid, SCF
XC.functional         GGA           # LDA or GGA (default = LDA)
XC.authors            PBE           # CA (Ceperley-Aldr) = PZ
                                    #    (Perdew-Zunger) - LDA - Default
                                    # PW92 (Perdew-Wang-92) - LDA
                                    # PBE (Perdew-Burke-Ernzerhof) - GGA
MeshCutoff            200.000000    Ry      # Default: 50.0 Ry ~ 0.444 Bohr
                                    #         100.0 Ry ~ 0.314 Bohr
MaxSCFIterations      500           # Default: 50
DM.MixingWeight       0.05          # Default: 0.25
DM.NumberPulay        10            # Default: 0
DM.PulayOnFile        F             # SystemLabel.P1, SystemLabel.P2
DM.Tolerance          1.d-4         # Default: 1.d-4
DM.UseSaveDM          .true.        # because of the bug
SCFMustConverge       .true.
NeglNonOverlapInt     F             # Default: F
#(5) Eigenvalue problem: order-N or diagonalization
SolutionMethod        Diagon        # or Transiesta
ElectronicTemperature 300.0 K       # Default: 300.0 K
#(6) Molecular dynamics and relaxations
#MD.TypeOfRun          CG            # Type of dynamics:
#MD.VariableCell       F
#MD.NumCGsteps         0           # 0 for single-point / 100 for gopt
#MD.MaxCGDispl         0.2 Bohr      # Default: 0.2 Bohr
#MD.MaxForceTol        0.02 eV/Ang   # Default: 0.04 eV/Ang
#MD.MaxStressTol       1.0 GPa       # Default: 1.0 GPa
# Geometry Constraints
#%block GeometryConstraints
#	position from 1 to 44
#%endblock GeometryConstraints
BandLinesScale   pi/a
%block BandLines
 1   0.00000000  0.00000000  0.00000000
50   0.00000000  0.07809418  0.00000000
50   0.04509075  0.07809242  0.00000000
20   0.00000000  0.00000000  0.00000000
%endblock BandLines
************************** End of input data file *****************************

reinit: -----------------------------------------------------------------------
reinit: System Name: GRP_doping
reinit: -----------------------------------------------------------------------
reinit: System Label: GRP_doping                                                  
reinit: -----------------------------------------------------------------------

initatom: Reading input for the pseudopotentials and atomic orbitals ----------
 Species number:            1  Label: B Atomic number:           5
 Species number:            2  Label: C Atomic number:           6
Ground state valence configuration:   2s02  2p01
Reading pseudopotential information in formatted form from B.psf

Valence configuration for pseudopotential generation:
2s( 2.00) rc: 1.74
2p( 1.00) rc: 1.74
3d( 0.00) rc: 1.74
4f( 0.00) rc: 1.74
Ground state valence configuration:   2s02  2p02
Reading pseudopotential information in formatted form from C.psf

Valence configuration for pseudopotential generation:
2s( 2.00) rc: 1.54
2p( 2.00) rc: 1.54
3d( 0.00) rc: 1.54
4f( 0.00) rc: 1.54
For B, standard SIESTA heuristics set lmxkb to 3
 (one more than the basis l, including polarization orbitals).
Use PS.lmax or PS.KBprojectors blocks to override.
For C, standard SIESTA heuristics set lmxkb to 3
 (one more than the basis l, including polarization orbitals).
Use PS.lmax or PS.KBprojectors blocks to override.

<basis_specs>
===============================================================================
B                    Z=   5    Mass=  10.810        Charge= 0.17977+309
Lmxo=1 Lmxkb= 3    BasisType=split      Semic=F
L=0  Nsemic=0  Cnfigmx=2
          n=1  nzeta=2  polorb=0
            splnorm:   0.15000    
               vcte:    0.0000    
               rinn:    0.0000    
                rcs:    0.0000      0.0000    
            lambdas:    1.0000      1.0000    
L=1  Nsemic=0  Cnfigmx=2
          n=1  nzeta=2  polorb=1
            splnorm:   0.15000    
               vcte:    0.0000    
               rinn:    0.0000    
                rcs:    0.0000      0.0000    
            lambdas:    1.0000      1.0000    
-------------------------------------------------------------------------------
L=0  Nkbl=1  erefs: 0.17977+309
L=1  Nkbl=1  erefs: 0.17977+309
L=2  Nkbl=1  erefs: 0.17977+309
L=3  Nkbl=1  erefs: 0.17977+309
===============================================================================
</basis_specs>

atom: Called for B                     (Z =   5)

read_vps: Pseudopotential generation method:
read_vps: ATM3      Troullier-Martins                       
Total valence charge:    3.00000

read_vps: Pseudopotential includes a core correction:
read_vps: Pseudo-core for xc-correction

xc_check: Exchange-correlation functional:
xc_check: GGA Perdew, Burke & Ernzerhof 1996
V l=0 = -2*Zval/r beyond r=  1.7165
V l=1 = -2*Zval/r beyond r=  1.7165
V l=2 = -2*Zval/r beyond r=  1.7165
V l=3 = -2*Zval/r beyond r=  1.6951
All V_l potentials equal beyond r=  1.7165
This should be close to max(r_c) in ps generation
All pots = -2*Zval/r beyond r=  1.7165

VLOCAL1: 99.0% of the norm of Vloc inside     14.733 Ry
VLOCAL1: 99.9% of the norm of Vloc inside     33.577 Ry
atom: Maximum radius for 4*pi*r*r*local-pseudopot. charge    2.04484
atom: Maximum radius for r*vlocal+2*Zval:    1.75994
GHOST: No ghost state for L =  0
GHOST: No ghost state for L =  1
GHOST: No ghost state for L =  2
GHOST: No ghost state for L =  3

KBgen: Kleinman-Bylander projectors: 
   l= 0   rc=  1.897051   el= -0.693730   Ekb=  4.595746   kbcos=  0.286105
   l= 1   rc=  1.920920   el= -0.265236   Ekb= -2.350715   kbcos= -0.315747
   l= 2   rc=  2.044840   el=  0.002055   Ekb= -0.690767   kbcos= -0.013822
   l= 3   rc=  2.149707   el=  0.003188   Ekb= -0.315358   kbcos= -0.002055

KBgen: Total number of  Kleinman-Bylander projectors:   16
atom: -------------------------------------------------------------------------

atom: SANKEY-TYPE ORBITALS:
atom: Selected multiple-zeta basis: split     

SPLIT: Orbitals with angular momentum L= 0

SPLIT: Basis orbitals for state 2s

SPLIT: PAO cut-off radius determined from an
SPLIT: energy shift=  0.007350 Ry

   izeta = 1
                 lambda =    1.000000
                     rc =    5.422032
                 energy =   -0.686029
                kinetic =    0.576707
    potential(screened) =   -1.262736
       potential(ionic) =   -3.271094

   izeta = 2
                 rmatch =    4.222573
              splitnorm =    0.150000
                 energy =   -0.602132
                kinetic =    0.858975
    potential(screened) =   -1.461107
       potential(ionic) =   -3.582536

SPLIT: Orbitals with angular momentum L= 1

SPLIT: Basis orbitals for state 2p

SPLIT: PAO cut-off radius determined from an
SPLIT: energy shift=  0.007350 Ry

   izeta = 1
                 lambda =    1.000000
                     rc =    6.790259
                 energy =   -0.258578
                kinetic =    1.481412
    potential(screened) =   -1.739989
       potential(ionic) =   -3.657461

   izeta = 2
                 rmatch =    4.608740
              splitnorm =    0.150000
                 energy =   -0.173757
                kinetic =    2.186690
    potential(screened) =   -2.360447
       potential(ionic) =   -4.464260

POLgen: Perturbative polarization orbital with L=  2

POLgen: Polarization orbital for state 2p

   izeta = 1
                     rc =    6.790259
                 energy =    0.684082
                kinetic =    1.471481
    potential(screened) =   -0.787399
       potential(ionic) =   -2.406985
atom: Total number of Sankey-type orbitals: 13

atm_pop: Valence configuration (for local Pseudopot. screening):
 2s( 2.00)                                                            
 2p( 1.00)                                                            
Vna: chval, zval:    3.00000   3.00000

Vna:  Cut-off radius for the neutral-atom potential:   6.790259
comcore: Pseudo-core radius Rcore=  2.122997

atom: _________________________________________________________________________

<basis_specs>
===============================================================================
C                    Z=   6    Mass=  12.010        Charge= 0.17977+309
Lmxo=1 Lmxkb= 3    BasisType=split      Semic=F
L=0  Nsemic=0  Cnfigmx=2
          n=1  nzeta=2  polorb=0
            splnorm:   0.15000    
               vcte:    0.0000    
               rinn:    0.0000    
                rcs:    0.0000      0.0000    
            lambdas:    1.0000      1.0000    
L=1  Nsemic=0  Cnfigmx=2
          n=1  nzeta=2  polorb=1
            splnorm:   0.15000    
               vcte:    0.0000    
               rinn:    0.0000    
                rcs:    0.0000      0.0000    
            lambdas:    1.0000      1.0000    
-------------------------------------------------------------------------------
L=0  Nkbl=1  erefs: 0.17977+309
L=1  Nkbl=1  erefs: 0.17977+309
L=2  Nkbl=1  erefs: 0.17977+309
L=3  Nkbl=1  erefs: 0.17977+309
===============================================================================
</basis_specs>

atom: Called for C                     (Z =   6)

read_vps: Pseudopotential generation method:
read_vps: ATM3      Troullier-Martins                       
Total valence charge:    4.00000

read_vps: Pseudopotential includes a core correction:
read_vps: Pseudo-core for xc-correction

xc_check: Exchange-correlation functional:
xc_check: GGA Perdew, Burke & Ernzerhof 1996
V l=0 = -2*Zval/r beyond r=  1.5227
V l=1 = -2*Zval/r beyond r=  1.5227
V l=2 = -2*Zval/r beyond r=  1.5227
V l=3 = -2*Zval/r beyond r=  1.5038
All V_l potentials equal beyond r=  1.5227
This should be close to max(r_c) in ps generation
All pots = -2*Zval/r beyond r=  1.5227

VLOCAL1: 99.0% of the norm of Vloc inside     18.722 Ry
VLOCAL1: 99.9% of the norm of Vloc inside     42.668 Ry
atom: Maximum radius for 4*pi*r*r*local-pseudopot. charge    1.83678
atom: Maximum radius for r*vlocal+2*Zval:    1.58088
GHOST: No ghost state for L =  0
GHOST: No ghost state for L =  1
GHOST: No ghost state for L =  2
GHOST: No ghost state for L =  3

KBgen: Kleinman-Bylander projectors: 
   l= 0   rc=  1.704034   el= -1.009801   Ekb=  5.335044   kbcos=  0.316824
   l= 1   rc=  1.704034   el= -0.388707   Ekb= -3.785862   kbcos= -0.366464
   l= 2   rc=  1.791422   el=  0.001971   Ekb= -0.970471   kbcos= -0.009212
   l= 3   rc=  1.859892   el=  0.003065   Ekb= -0.399525   kbcos= -0.001223

KBgen: Total number of  Kleinman-Bylander projectors:   16
atom: -------------------------------------------------------------------------

atom: SANKEY-TYPE ORBITALS:
atom: Selected multiple-zeta basis: split     

SPLIT: Orbitals with angular momentum L= 0

SPLIT: Basis orbitals for state 2s

SPLIT: PAO cut-off radius determined from an
SPLIT: energy shift=  0.007350 Ry

   izeta = 1
                 lambda =    1.000000
                     rc =    4.632753
                 energy =   -1.002270
                kinetic =    0.855760
    potential(screened) =   -1.858031
       potential(ionic) =   -5.417575

   izeta = 2
                 rmatch =    3.431921
              splitnorm =    0.150000
                 energy =   -0.867111
                kinetic =    1.300804
    potential(screened) =   -2.167915
       potential(ionic) =   -5.962684

SPLIT: Orbitals with angular momentum L= 1

SPLIT: Basis orbitals for state 2p

SPLIT: PAO cut-off radius determined from an
SPLIT: energy shift=  0.007350 Ry

   izeta = 1
                 lambda =    1.000000
                     rc =    5.658549
                 energy =   -0.381140
                kinetic =    2.399701
    potential(screened) =   -2.780841
       potential(ionic) =   -6.206085

   izeta = 2
                 rmatch =    3.653288
              splitnorm =    0.150000
                 energy =   -0.249149
                kinetic =    3.542762
    potential(screened) =   -3.791911
       potential(ionic) =   -7.581078

POLgen: Perturbative polarization orbital with L=  2

POLgen: Polarization orbital for state 2p

   izeta = 1
                     rc =    5.658549
                 energy =    1.109913
                kinetic =    2.304789
    potential(screened) =   -1.194876
       potential(ionic) =   -4.013592
atom: Total number of Sankey-type orbitals: 13

atm_pop: Valence configuration (for local Pseudopot. screening):
 2s( 2.00)                                                            
 2p( 2.00)                                                            
Vna: chval, zval:    4.00000   4.00000

Vna:  Cut-off radius for the neutral-atom potential:   5.658549
comcore: Pseudo-core radius Rcore=  1.791422

atom: _________________________________________________________________________

prinput: Basis input ----------------------------------------------------------

PAO.BasisType split     

%block ChemicalSpeciesLabel
    1    5 B                       # Species index, atomic number, species label
    2    6 C                       # Species index, atomic number, species label
%endblock ChemicalSpeciesLabel

%block PAO.Basis                 # Define Basis set
B                     2                    # Species label, number of l-shells
 n=2   0   2                         # n, l, Nzeta 
   5.422      4.223   
   1.000      1.000   
 n=2   1   2 P   1                   # n, l, Nzeta, Polarization, NzetaPol
   6.790      4.609   
   1.000      1.000   
C                     2                    # Species label, number of l-shells
 n=2   0   2                         # n, l, Nzeta 
   4.633      3.432   
   1.000      1.000   
 n=2   1   2 P   1                   # n, l, Nzeta, Polarization, NzetaPol
   5.659      3.653   
   1.000      1.000   
%endblock PAO.Basis

prinput: ----------------------------------------------------------------------

coor:   Atomic-coordinates input format  =     Fractional

siesta: Atomic coordinates (Bohr) and species
siesta:      4.63094  34.85847   0.00000  1        1
siesta:      4.63094  37.54693   0.00000  1        2
siesta:      6.95932  30.82560   0.00000  1        3
siesta:      6.95932  33.51406   0.00000  1        4
siesta:      9.28770  26.79272   0.00000  1        5
siesta:      9.28770  29.48119   0.00000  1        6
siesta:      4.63094  13.34970   0.00000  1        7
siesta:      6.95932  14.69411   0.00000  1        8
siesta:      6.95932  17.38257   0.00000  1        9
siesta:      9.28770  18.72698   0.00000  1       10
siesta:      9.28770  21.41544   0.00000  1       11
siesta:     11.61608  22.75985   0.00000  1       12
siesta:     11.61608  25.44831   0.00000  1       13
siesta:      2.30256  14.69411   0.00000  1       14
siesta:      2.30256  17.38257   0.00000  1       15
siesta:      4.63094  21.41544   0.00000  1       16
siesta:      6.95932  25.44831   0.00000  1       17
siesta:     -0.02582  18.72698   0.00000  1       18
siesta:     -0.02582  21.41544   0.00000  1       19
siesta:      2.30256  25.44831   0.00000  1       20
siesta:     -2.35420  22.75985   0.00000  1       21
siesta:     -2.35420  25.44831   0.00000  1       22
siesta:     -0.02582  26.79272   0.00000  1       23
siesta:     -0.02582  29.48119   0.00000  1       24
siesta:      2.30256  30.82560   0.00000  1       25
siesta:      2.30256  33.51406   0.00000  1       26
siesta:     -0.02582   2.59549   0.00000  2       27
siesta:     -0.02582   5.28395   0.00000  2       28
siesta:     -2.35420  38.89134   0.00000  2       29
siesta:     -2.35420  41.57980   0.00000  2       30
siesta:      2.30256  38.89134   0.00000  2       31
siesta:      2.30256  41.57980   0.00000  2       32
siesta:     -4.68258  34.85847   0.00000  2       33
siesta:     -4.68258  37.54693   0.00000  2       34
siesta:      2.30256   6.62836   0.00000  2       35
siesta:      2.30256   9.31683   0.00000  2       36
siesta:      4.63094  10.66124   0.00000  2       37
siesta:     -2.35420   6.62836   0.00000  2       38
siesta:     -2.35420   9.31683   0.00000  2       39
siesta:     -0.02582  10.66124   0.00000  2       40
siesta:     -0.02582  13.34970   0.00000  2       41
siesta:      4.63094  18.72698   0.00000  2       42
siesta:      6.95932  22.75985   0.00000  2       43
siesta:     -4.68258  10.66124   0.00000  2       44
siesta:     -4.68258  13.34970   0.00000  2       45
siesta:     -2.35420  14.69411   0.00000  2       46
siesta:     -2.35420  17.38257   0.00000  2       47
siesta:      2.30256  22.75985   0.00000  2       48
siesta:     -7.01096  14.69411   0.00000  2       49
siesta:     -7.01096  17.38257   0.00000  2       50
siesta:     -4.68258  18.72698   0.00000  2       51
siesta:     -4.68258  21.41544   0.00000  2       52
siesta:     -9.33934  18.72698   0.00000  2       53
siesta:     -9.33934  21.41544   0.00000  2       54
siesta:     -7.01096  22.75985   0.00000  2       55
siesta:     -7.01096  25.44831   0.00000  2       56
siesta:    -11.66772  22.75985   0.00000  2       57
siesta:    -11.66772  25.44831   0.00000  2       58
siesta:     -9.33934  26.79272   0.00000  2       59
siesta:     -9.33934  29.48119   0.00000  2       60
siesta:      4.63094  26.79272   0.00000  2       61
siesta:      4.63094  29.48119   0.00000  2       62
siesta:     -4.68258  26.79272   0.00000  2       63
siesta:     -4.68258  29.48119   0.00000  2       64
siesta:     -2.35420  30.82560   0.00000  2       65
siesta:     -2.35420  33.51406   0.00000  2       66
siesta:     -7.01096  30.82560   0.00000  2       67
siesta:     -7.01096  33.51406   0.00000  2       68
siesta:     -0.02582  34.85847   0.00000  2       69
siesta:     -0.02582  37.54693   0.00000  2       70
siesta:     -0.02582  42.92421   0.00000  2       71
siesta:     -0.02582  45.61267   0.00000  2       72

siesta: System type = slab      

initatomlists: Number of atoms, orbitals, and projectors:     72   936  1152

siesta: ******************** Simulation parameters ****************************
siesta:
siesta: The following are some of the parameters of the simulation.
siesta: A complete list of the parameters used, including default values,
siesta: can be found in file out.fdf
siesta:
redata: Non-Collinear-spin run           =     F
redata: SpinPolarized (Up/Down) run      =     F
redata: Number of spin components        =     1
redata: Long output                      =     F
redata: Number of Atomic Species         =        2
redata: Charge density info will appear in .RHO file
redata: Write Mulliken Pop.              =     NO
redata: Mesh Cutoff                      =   200.0000  Ry
redata: Net charge of the system         =     0.0000 |e|
redata: Max. number of SCF Iter          =      500
redata: SCF convergence failure will abort job
redata: Performing Pulay mixing using    =    10 iterations
redata: Mix DM in first SCF step ?       =     F
redata: Write Pulay info on disk?        =     F
redata: Discard 1st Pulay DM after  kick =     F
redata: New DM Mixing Weight             =     0.0500
redata: New DM Occupancy tolerance       = 0.000000000001
redata: No kicks to SCF
redata: DM Mixing Weight for Kicks       =     0.5000
redata: DM Tolerance for SCF             =     0.000100
redata: Require Energy convergence for SCF =     F
redata: DM Energy tolerance for SCF      =     0.000100 eV
redata: Require Harris convergence for SCF =     F
redata: DM Harris energy tolerance for SCF =     0.000100 eV
redata: Using Saved Data (generic)   =     F
redata: Use continuation files for DM    =     T
redata: Neglect nonoverlap interactions  =     F
redata: Method of Calculation            =     Diagonalization
redata: Divide and Conquer               =     T
redata: Electronic Temperature           =     0.0019  Ry
redata: Fix the spin of the system       =     F
redata: Dynamics option                  =     Verlet MD run
redata: Initial MD time step             =        1
redata:   Final MD time step             =        1
redata: Length of MD time step           =     1.0000  fs
redata: Initial Temperature of MD run    =     0.0000  K
redata: Perform a MD quench              =     F
redata: ***********************************************************************
Total number of electrons:   262.000000
Total ionic charge:   262.000000

* ProcessorY, Blocksize:    2  24

k-point displ. along   1 input, could be:     0.50    0.00
k-point displ. along   2 input, could be:     0.50    0.00
 Kpoints in:          231 . Kpoints trimmed:          231

siesta: k-grid: Number of k-points =   231
siesta: k-grid: Cutoff (effective) =     5.000 Ang
siesta: k-grid: Supercell and displacements
siesta: k-grid:   21   0   0      0.500
siesta: k-grid:    0  21   0      0.500
siesta: k-grid:    0   0   1      0.000
Naive supercell factors:     2    2    2

superc: Internal auxiliary supercell:     2 x     2 x     2  =       8
superc: Number of atoms, orbitals, and projectors:    576   7488   9216

* Maximum dynamic memory allocated =     4 MB

siesta:                 ==============================
                            Begin MD step =      1
                        ==============================

superc: Internal auxiliary supercell:     2 x     2 x     2  =       8
superc: Number of atoms, orbitals, and projectors:    576   7488   9216

outcell: Unit cell vectors (Ang):
       12.804619    7.392750    0.000000
        0.000000   14.785500    0.000000
        0.000000    0.000000   10.000000

outcell: Cell vector modules (Ang)   :   14.785500   14.785500   10.000000
outcell: Cell angles (23,13,12) (deg):     90.0000     90.0000     60.0000
outcell: Cell volume (Ang**3)        :   1893.2269
New_DM. Step:     1
Initializing Density Matrix...

iodm: Reading Density Matrix from files

InitMesh: MESH =   120 x   120 x    90 =     1296000
InitMesh: Mesh cutoff (required, used) =   200.000   223.865 Ry

* Maximum dynamic memory allocated =   230 MB

stepf: Fermi-Dirac step function

siesta: Program's energy decomposition (eV):
siesta: Ebs     =     -4062.633602
siesta: Eions   =     15073.536580
siesta: Ena     =      4084.255492
siesta: Ekin    =      7252.849261
siesta: Enl     =      -210.270485
siesta: DEna    =      -766.051353
siesta: DUscf   =        92.751221
siesta: DUext   =         0.000000
siesta: Exc     =     -4368.596367
siesta: eta*DQ  =         0.000000
siesta: Emadel  =         0.000000
siesta: Emeta   =         0.000000
siesta: Emolmec =         0.000000
siesta: Ekinion =         0.000000
siesta: Eharris =     -8947.408050
siesta: Etot    =     -8988.598811
siesta: FreeEng =     -8988.598811

siesta: iscf   Eharris(eV)      E_KS(eV)   FreeEng(eV)   dDmax  Ef(eV)
siesta:    1    -8947.4081    -8988.5988    -8988.5988  0.9143 -5.6244
timer: Routine,Calls,Time,% = IterSCF        1    3477.936  99.63
elaps: Routine,Calls,Wall,% = IterSCF        1     435.649  99.63
siesta:    2    -9425.6079    -8870.3741    -8870.4214  1.9999 -5.9975
siesta:    3    -8947.7435    -8961.3100    -8961.3150  0.6797 -5.3029
siesta:    4    -8943.2245    -8955.0262    -8955.0599  0.5981 -5.1826
siesta:    5    -8936.5319    -8943.4215    -8943.4913  0.3865 -5.3601
siesta:    6    -8938.4372    -8931.1520    -8931.2181  0.4497 -5.1713
siesta:    7    -8935.5500    -8926.6800    -8926.7324  0.2846 -5.1467
siesta:    8    -8934.5092    -8922.7886    -8922.8141  0.2607 -5.1409
siesta:    9    -8933.1395    -8921.1795    -8921.2363  0.1814 -5.1701
siesta:   10    -8932.8819    -8921.7306    -8921.7638  0.1679 -5.1613
siesta:   11    -8932.7541    -8922.9898    -8923.0403  0.1657 -5.1712
siesta:   12    -8932.5650    -8924.4551    -8924.4798  0.2470 -5.1691
siesta:   13    -8932.5866    -8924.5421    -8924.6034  0.1274 -5.1810
siesta:   14    -8932.4489    -8925.8773    -8925.9114  0.1097 -5.2031
siesta:   15    -8932.4658    -8927.2908    -8927.3463  0.1188 -5.2285
siesta:   16    -8932.4241    -8929.6322    -8929.6671  0.0748 -5.2446
siesta:   17    -8932.3876    -8931.3089    -8931.3482  0.0793 -5.2329
siesta:   18    -8932.3770    -8930.8333    -8930.8905  0.0481 -5.2223
siesta:   19    -8932.3619    -8930.8765    -8930.9199  0.0214 -5.2183
siesta:   20    -8932.3637    -8931.4438    -8931.4937  0.0550 -5.2186
siesta:   21    -8932.3608    -8932.0664    -8932.1185  0.0298 -5.2202
siesta:   22    -8932.3572    -8932.4445    -8932.4955  0.0098 -5.2189
siesta:   23    -8932.3577    -8932.4196    -8932.4702  0.0068 -5.2183
siesta:   24    -8932.3546    -8932.4259    -8932.4751  0.0117 -5.2151
siesta:   25    -8932.3556    -8932.4429    -8932.4945  0.0051 -5.2148
siesta:   26    -8932.3554    -8932.4506    -8932.5009  0.0042 -5.2149
siesta:   27    -8932.3554    -8932.4401    -8932.4905  0.0037 -5.2153
siesta:   28    -8932.3552    -8932.4722    -8932.5224  0.0035 -5.2162
siesta:   29    -8932.3553    -8932.4709    -8932.5212  0.0021 -5.2167
siesta:   30    -8932.3553    -8932.4332    -8932.4834  0.0016 -5.2166
siesta:   31    -8932.3554    -8932.4030    -8932.4532  0.0009 -5.2164
siesta:   32    -8932.3553    -8932.3627    -8932.4128  0.0006 -5.2161
siesta:   33    -8932.3553    -8932.3517    -8932.4018  0.0004 -5.2162
siesta:   34    -8932.3554    -8932.3496    -8932.3998  0.0002 -5.2164
siesta:   35    -8932.3554    -8932.3524    -8932.4026  0.0001 -5.2164
siesta:   36    -8932.3554    -8932.3534    -8932.4035  0.0001 -5.2164

siesta: E_KS(eV) =            -8932.3549

siesta: E_KS - E_eggbox =     -8932.3549

siesta: Atomic forces (eV/Ang):
----------------------------------------
   Tot   -0.325404    0.036955    0.000000
----------------------------------------
   Max  557.388620
   Res  139.634131    sqrt( Sum f_i^2 / 3N )
----------------------------------------
   Max  557.388620    constrained

Stress-tensor-Voigt (kbar):     -824.88    -2622.20       -0.79       -4.97        0.00        0.00
(Free)E + p*V (eV/cell)    -7574.3492
Target enthalpy (eV/cell)    -8932.4050

siesta: Stress tensor (static) (eV/Ang**3):
        -0.514845   -0.003102    0.000000
        -0.003102   -1.636634    0.000000
         0.000000    0.000000   -0.000492

siesta: Pressure (static):       1149.29110566  kBar

siesta: Stress tensor (total) (eV/Ang**3):
        -0.514845   -0.003102    0.000000
        -0.003102   -1.636634    0.000000
         0.000000    0.000000   -0.000492

siesta: Pressure (total):       1149.29110566  kBar

siesta: Temp_ion =       0.000 K

* Maximum dynamic memory allocated =   247 MB
Computing bands...

siesta: Program's energy decomposition (eV):
siesta: Ebs     =     -4000.562140
siesta: Eions   =     15073.536580
siesta: Ena     =      4084.255492
siesta: Ekin    =      7879.322307
siesta: Enl     =      -741.663901
siesta: DEna    =      -802.145588
siesta: DUscf   =       111.108632
siesta: DUext   =         0.000000
siesta: Exc     =     -4389.695263
siesta: eta*DQ  =         0.000000
siesta: Emadel  =         0.000000
siesta: Emeta   =         0.000000
siesta: Emolmec =         0.000000
siesta: Ekinion =         0.000000
siesta: Eharris =     -8932.355367
siesta: Etot    =     -8932.354900
siesta: FreeEng =     -8932.405025

siesta: Final energy (eV):
siesta:  Band Struct. =   -4000.562140
siesta:       Kinetic =    7879.322307
siesta:       Hartree =   26222.436254
siesta:    Ext. field =       0.000000
siesta:   Exch.-corr. =   -4389.695263
siesta:  Ion-electron =  -60001.102658
siesta:       Ion-ion =   21356.684459
siesta:       Ekinion =       0.000000
siesta:         Total =   -8932.354900

siesta: Atomic forces (eV/Ang):
siesta:      1   15.337019   -0.631219    0.000000
siesta:      2   26.158661 -405.312811    0.000000
siesta:      3   -0.989581    2.034263    0.000000
siesta:      4    3.773791    3.239865    0.000000
siesta:      5    4.695290    2.080014    0.000000
siesta:      6    5.551625    1.017605    0.000000
siesta:      7   15.384468    0.823303    0.000000
siesta:      8    3.673101   -2.788213    0.000000
siesta:      9   -0.918679   -1.513871    0.000000
siesta:     10    5.220759   -2.222000    0.000000
siesta:     11   -0.298043    1.172659    0.000000
siesta:     12    6.211702   -2.789388    0.000000
siesta:     13    5.459357    3.870663    0.000000
siesta:     14   20.546877  405.005284    0.000000
siesta:     15   19.040596    0.966206    0.000000
siesta:     16    0.035238    0.607255    0.000000
siesta:     17   -3.294856   -1.863177    0.000000
siesta:     18    0.727008  407.831512    0.000000
siesta:     19    5.094304    1.761629    0.000000
siesta:     20    5.377086   -1.843811    0.000000
siesta:     21   -5.095504   -2.977339    0.000000
siesta:     22   -1.936809    3.009371    0.000000
siesta:     23   -1.908890    1.422068    0.000000
siesta:     24    1.155195 -408.092625    0.000000
siesta:     25   18.612932   -0.577551    0.000000
siesta:     26   21.973383 -403.290927    0.000000
siesta:     27   -3.378313  403.944920    0.000000
siesta:     28    6.883145 -126.023942    0.000000
siesta:     29    1.563571  127.651833    0.000000
siesta:     30  -21.578372 -551.133075    0.000000
siesta:     31   10.258045  116.201408    0.000000
siesta:     32   18.160012 -408.741667    0.000000
siesta:     33  -25.782201    4.323338    0.000000
siesta:     34  -33.500294 -549.161304    0.000000
siesta:     35   15.677970  406.435706    0.000000
siesta:     36    6.546526 -120.100096    0.000000
siesta:     37   30.841382  407.093674    0.000000
siesta:     38  -21.721095  551.319128    0.000000
siesta:     39   -0.168677 -127.419977    0.000000
siesta:     40   -5.744741  547.946734    0.000000
siesta:     41    6.231995 -118.902240    0.000000
siesta:     42   -2.276925   -1.336520    0.000000
siesta:     43    0.272024   -1.338807    0.000000
siesta:     44  -33.548575  548.909181    0.000000
siesta:     45  -25.801572   -4.225623    0.000000
siesta:     46  -23.371871  557.388620    0.000000
siesta:     47  -22.849635   -3.161699    0.000000
siesta:     48   -2.670400   -1.706790    0.000000
siesta:     49    2.667060   -2.331294    0.000000
siesta:     50   -2.593339   -0.081250    0.000000
siesta:     51    1.314377    1.671877    0.000000
siesta:     52   -2.789378   -1.515149    0.000000
siesta:     53    1.134237   -0.645985    0.000000
siesta:     54   -1.968203   -2.026567    0.000000
siesta:     55   -0.003283    0.418137    0.000000
siesta:     56   -0.139767   -0.465044    0.000000
siesta:     57   -0.218390    5.756299    0.000000
siesta:     58   -0.052601   -5.623088    0.000000
siesta:     59   -1.878112    1.781072    0.000000
siesta:     60    0.731033    0.933179    0.000000
siesta:     61   -0.939892    4.314480    0.000000
siesta:     62   -1.747553   -3.547193    0.000000
siesta:     63   -3.096549    1.244070    0.000000
siesta:     64    1.077709   -1.487565    0.000000
siesta:     65  -22.521126    2.886566    0.000000
siesta:     66  -23.328744 -557.246924    0.000000
siesta:     67   -2.235688   -0.010243    0.000000
siesta:     68    2.425948    2.302631    0.000000
siesta:     69    6.592862  118.896738    0.000000
siesta:     70    0.588830 -546.492802    0.000000
siesta:     71    6.228221  126.497392    0.000000
siesta:     72   -3.201086 -404.093950    0.000000
siesta: ----------------------------------------
siesta:    Tot   -0.325404    0.036955    0.000000

siesta: Stress tensor (static) (eV/Ang**3):
siesta:    -0.514845   -0.003102    0.000000
siesta:    -0.003102   -1.636634    0.000000
siesta:     0.000000    0.000000   -0.000492

siesta: Cell volume =       1893.226884 Ang**3

siesta: Pressure (static):
siesta:                Solid            Molecule  Units
siesta:           0.00781257          0.10626947  Ry/Bohr**3
siesta:           0.71732333          9.75730101  eV/Ang**3
siesta:        1149.29110566      15633.08865978  kBar
(Free)E+ p_basis*V_orbitals  =       -8893.452620
(Free)Eharris+ p_basis*V_orbitals  =       -8893.454590

siesta: Electric dipole (a.u.)  =    0.000000    0.000000    0.000000
siesta: Electric dipole (Debye) =    0.000000    0.000000    0.000000

* Maximum dynamic memory allocated : Node    0 =   247 MB
* Maximum dynamic memory allocated : Node    1 =    87 MB
* Maximum dynamic memory allocated : Node    2 =    89 MB
* Maximum dynamic memory allocated : Node    3 =   235 MB
* Maximum dynamic memory allocated : Node    4 =   240 MB
* Maximum dynamic memory allocated : Node    5 =    88 MB
* Maximum dynamic memory allocated : Node    6 =    90 MB
* Maximum dynamic memory allocated : Node    7 =   220 MB

* Maximum memory occured during matrixMtoO                    

timer: CPU execution times:
timer:  Routine       Calls   Time/call    Tot.time        %
timer:  siesta            1  123211.721  123211.721   100.00
timer:  Setup             1       3.965       3.965     0.00
timer:  bands             3     244.415     733.246     0.60
timer:  writewave         1       0.046       0.046     0.00
timer:  KSV_init          1       0.004       0.004     0.00
timer:  IterMD            1  122469.274  122469.274    99.40
timer:  hsparse           1       0.513       0.513     0.00
timer:  overlap           1       7.211       7.211     0.01
timer:  IterSCF          36    3395.822  122249.604    99.22
timer:  kinefsm           2       3.763       7.526     0.01
timer:  nlefsm            2      20.993      41.985     0.03
timer:  DHSCF            37     111.733    4134.131     3.36
timer:  DHSCF1            1       0.990       0.990     0.00
timer:  DHSCF2            1      42.806      42.806     0.03
timer:  REORD           298       0.005       1.534     0.00
timer:  POISON           38       0.877      33.314     0.03
timer:  DHSCF3           37     109.367    4046.561     3.28
timer:  rhoofd           37      25.315     936.673     0.76
timer:  cellXC           37       3.311     122.522     0.10
timer:  vmat             37      52.149    1929.500     1.57
timer:  MolMec            2       0.000       0.000     0.00
timer:  diagon           36    3283.080  118190.891    95.93
timer:  c-eigval       8437       6.047   51019.708    41.41
timer:  c-buildHS      8437       0.054     451.965     0.37
timer:  cdiag         16753       6.164  103261.973    83.81
timer:  cdiag1        16753       0.386    6466.189     5.25
timer:  cdiag2        16753       1.769   29634.871    24.05
timer:  cdiag3        16753       3.746   62762.612    50.94
timer:  cdiag4        16753       0.154    2578.308     2.09
timer:  c-eigvec       8316       6.384   53087.161    43.09
timer:  c-buildD       8316       1.777   14775.078    11.99
timer:  DHSCF4            1      43.035      43.035     0.03
timer:  dfscf             1      40.196      40.196     0.03
timer:  overfsm           1       0.472       0.472     0.00
timer:  optical           1       4.602       4.602     0.00
  

elaps: ELAPSED times:
elaps:  Routine       Calls   Time/call    Tot.time        %
elaps:  siesta            1   15430.563   15430.563   100.00
elaps:  Setup             1       0.517       0.517     0.00
elaps:  bands             3      30.628      91.885     0.60
elaps:  writewave         1       0.006       0.006     0.00
elaps:  KSV_init          1       0.001       0.001     0.00
elaps:  IterMD            1   15337.554   15337.554    99.40
elaps:  hsparse           1       0.068       0.068     0.00
elaps:  overlap           1       0.908       0.908     0.01
elaps:  IterSCF          36     425.283   15310.175    99.22
elaps:  kinefsm           2       0.474       0.948     0.01
elaps:  nlefsm            2       2.585       5.170     0.03
elaps:  DHSCF            37      14.130     522.814     3.39
elaps:  DHSCF1            1       0.126       0.126     0.00
elaps:  DHSCF2            1       5.359       5.359     0.03
elaps:  REORD           298       0.001       0.200     0.00
elaps:  POISON           38       0.111       4.203     0.03
elaps:  DHSCF3           37      13.697     506.776     3.28
elaps:  rhoofd           37       6.568     243.022     1.57
elaps:  cellXC           37       0.414      15.333     0.10
elaps:  vmat             37       6.531     241.640     1.57
elaps:  MolMec            2       0.000       0.000     0.00
elaps:  diagon           36     411.154   14801.552    95.92
elaps:  c-eigval       8437       0.757    6389.314    41.41
elaps:  c-buildHS      8437       0.007      60.550     0.39
elaps:  cdiag         16753       0.770   12894.362    83.56
elaps:  cdiag1        16753       0.048     805.579     5.22
elaps:  cdiag2        16753       0.222    3712.031    24.06
elaps:  cdiag3        16753       0.470    7870.445    51.01
elaps:  cdiag4        16753       0.019     321.060     2.08
elaps:  c-eigvec       8316       0.796    6616.562    42.88
elaps:  c-buildD       8316       0.226    1881.740    12.19
elaps:  DHSCF4            1      10.464      10.464     0.07
elaps:  dfscf             1       9.905       9.905     0.06
elaps:  overfsm           1       0.061       0.061     0.00
elaps:  optical           1       0.001       0.001     0.00
  
>> End of run:  21-APR-2016   9:16:12
