Siesta Version:                                        siesta-3.2-pl-3
Architecture  : x86_64-unknown-linux-gnu--unknown
Compiler flags: mpiifort -g -O2 -fPIC -xSSE4.1 -fp-model source -shared-intel 
PARALLEL version

* Running on   12 nodes in parallel
>> Start of run:  29-APR-2016  18:52:47

                           ***********************       
                           *  WELCOME TO SIESTA  *       
                           ***********************       

reinit: Reading from standard input
************************** Dump of input data file ****************************
#(1) General system descriptors
SystemName            GRP_doping    # Descriptive name of the system
SystemLabel           GRP_doping    # Short name for naming files
%include STRUCT.fdf
%include KPT.fdf
%include BASIS.fdf
#%include TS.fdf # for transiesta calculation
#(4) DFT, Grid, SCF
XC.functional         GGA           # LDA or GGA (default = LDA)
XC.authors            PBE           # CA (Ceperley-Aldr) = PZ
                                    #    (Perdew-Zunger) - LDA - Default
                                    # PW92 (Perdew-Wang-92) - LDA
                                    # PBE (Perdew-Burke-Ernzerhof) - GGA
MeshCutoff            200.000000    Ry      # Default: 50.0 Ry ~ 0.444 Bohr
                                    #         100.0 Ry ~ 0.314 Bohr
MaxSCFIterations      500           # Default: 50
DM.MixingWeight       0.05          # Default: 0.25
DM.NumberPulay        10            # Default: 0
DM.PulayOnFile        F             # SystemLabel.P1, SystemLabel.P2
DM.Tolerance          1.d-4         # Default: 1.d-4
DM.UseSaveDM          .true.        # because of the bug
SCFMustConverge       .true.
NeglNonOverlapInt     F             # Default: F
#(5) Eigenvalue problem: order-N or diagonalization
SolutionMethod        Diagon        # or Transiesta
ElectronicTemperature 300.0 K       # Default: 300.0 K
#(6) Molecular dynamics and relaxations
#MD.TypeOfRun          CG            # Type of dynamics:
#MD.VariableCell       F
#MD.NumCGsteps         0           # 0 for single-point / 100 for gopt
#MD.MaxCGDispl         0.2 Bohr      # Default: 0.2 Bohr
#MD.MaxForceTol        0.02 eV/Ang   # Default: 0.04 eV/Ang
#MD.MaxStressTol       1.0 GPa       # Default: 1.0 GPa
# Geometry Constraints
#%block GeometryConstraints
#	position from 1 to 44
#%endblock GeometryConstraints
BandLinesScale   pi/a
%block BandLines
 1   0.00000000  0.00000000  0.00000000
50   0.00000000  0.07809418  0.00000000
50   0.04509075  0.07809242  0.00000000
20   0.00000000  0.00000000  0.00000000
%endblock BandLines
************************** End of input data file *****************************

reinit: -----------------------------------------------------------------------
reinit: System Name: GRP_doping
reinit: -----------------------------------------------------------------------
reinit: System Label: GRP_doping                                                  
reinit: -----------------------------------------------------------------------

initatom: Reading input for the pseudopotentials and atomic orbitals ----------
 Species number:            1  Label: N Atomic number:           7
 Species number:            2  Label: C Atomic number:           6
Ground state valence configuration:   2s02  2p03
Reading pseudopotential information in formatted form from N.psf

Valence configuration for pseudopotential generation:
2s( 2.00) rc: 1.48
2p( 3.00) rc: 1.48
3d( 0.00) rc: 1.48
4f( 0.00) rc: 1.48
Ground state valence configuration:   2s02  2p02
Reading pseudopotential information in formatted form from C.psf

Valence configuration for pseudopotential generation:
2s( 2.00) rc: 1.54
2p( 2.00) rc: 1.54
3d( 0.00) rc: 1.54
4f( 0.00) rc: 1.54
For N, standard SIESTA heuristics set lmxkb to 3
 (one more than the basis l, including polarization orbitals).
Use PS.lmax or PS.KBprojectors blocks to override.
For C, standard SIESTA heuristics set lmxkb to 3
 (one more than the basis l, including polarization orbitals).
Use PS.lmax or PS.KBprojectors blocks to override.

<basis_specs>
===============================================================================
N                    Z=   7    Mass=  14.010        Charge= 0.17977+309
Lmxo=1 Lmxkb= 3    BasisType=split      Semic=F
L=0  Nsemic=0  Cnfigmx=2
          n=1  nzeta=2  polorb=0
            splnorm:   0.15000    
               vcte:    0.0000    
               rinn:    0.0000    
                rcs:    0.0000      0.0000    
            lambdas:    1.0000      1.0000    
L=1  Nsemic=0  Cnfigmx=2
          n=1  nzeta=2  polorb=1
            splnorm:   0.15000    
               vcte:    0.0000    
               rinn:    0.0000    
                rcs:    0.0000      0.0000    
            lambdas:    1.0000      1.0000    
-------------------------------------------------------------------------------
L=0  Nkbl=1  erefs: 0.17977+309
L=1  Nkbl=1  erefs: 0.17977+309
L=2  Nkbl=1  erefs: 0.17977+309
L=3  Nkbl=1  erefs: 0.17977+309
===============================================================================
</basis_specs>

atom: Called for N                     (Z =   7)

read_vps: Pseudopotential generation method:
read_vps: ATM3      Troullier-Martins                       
Total valence charge:    5.00000

read_vps: Pseudopotential includes a core correction:
read_vps: Pseudo-core for xc-correction

xc_check: Exchange-correlation functional:
xc_check: GGA Perdew, Burke & Ernzerhof 1996
V l=0 = -2*Zval/r beyond r=  1.4606
V l=1 = -2*Zval/r beyond r=  1.4606
V l=2 = -2*Zval/r beyond r=  1.4606
V l=3 = -2*Zval/r beyond r=  1.4606
All V_l potentials equal beyond r=  1.4606
This should be close to max(r_c) in ps generation
All pots = -2*Zval/r beyond r=  1.4606

VLOCAL1: 99.0% of the norm of Vloc inside     20.347 Ry
VLOCAL1: 99.9% of the norm of Vloc inside     46.372 Ry
atom: Maximum radius for 4*pi*r*r*local-pseudopot. charge    1.76189
atom: Maximum radius for r*vlocal+2*Zval:    1.53550
GHOST: No ghost state for L =  0
GHOST: No ghost state for L =  1
GHOST: No ghost state for L =  2
GHOST: No ghost state for L =  3

KBgen: Kleinman-Bylander projectors: 
   l= 0   rc=  1.634559   el= -1.363963   Ekb=  5.296955   kbcos=  0.335621
   l= 1   rc=  1.614250   el= -0.521451   Ekb= -5.259161   kbcos= -0.433408
   l= 2   rc=  1.718383   el=  0.001991   Ekb= -1.271464   kbcos= -0.007566
   l= 3   rc=  1.761893   el=  0.003093   Ekb= -0.494769   kbcos= -0.001015

KBgen: Total number of  Kleinman-Bylander projectors:   16
atom: -------------------------------------------------------------------------

atom: SANKEY-TYPE ORBITALS:
atom: Selected multiple-zeta basis: split     

SPLIT: Orbitals with angular momentum L= 0

SPLIT: Basis orbitals for state 2s

SPLIT: PAO cut-off radius determined from an
SPLIT: energy shift=  0.007350 Ry

   izeta = 1
                 lambda =    1.000000
                     rc =    4.071465
                 energy =   -1.356470
                kinetic =    1.176977
    potential(screened) =   -2.533447
       potential(ionic) =   -8.057990

   izeta = 2
                 rmatch =    2.905100
              splitnorm =    0.150000
                 energy =   -1.158343
                kinetic =    1.813009
    potential(screened) =   -2.971352
       potential(ionic) =   -8.901931

SPLIT: Orbitals with angular momentum L= 1

SPLIT: Basis orbitals for state 2p

SPLIT: PAO cut-off radius determined from an
SPLIT: energy shift=  0.007350 Ry

   izeta = 1
                 lambda =    1.000000
                     rc =    4.972977
                 energy =   -0.513884
                kinetic =    3.441732
    potential(screened) =   -3.955616
       potential(ionic) =   -9.287901

   izeta = 2
                 rmatch =    3.054066
              splitnorm =    0.150000
                 energy =   -0.318226
                kinetic =    5.125348
    potential(screened) =   -5.443573
       potential(ionic) =  -11.380999

POLgen: Perturbative polarization orbital with L=  2

POLgen: Polarization orbital for state 2p

   izeta = 1
                     rc =    4.972977
                 energy =    1.607437
                kinetic =    3.268125
    potential(screened) =   -1.660688
       potential(ionic) =   -5.973652
atom: Total number of Sankey-type orbitals: 13

atm_pop: Valence configuration (for local Pseudopot. screening):
 2s( 2.00)                                                            
 2p( 3.00)                                                            
Vna: chval, zval:    5.00000   5.00000

Vna:  Cut-off radius for the neutral-atom potential:   4.972977
comcore: Pseudo-core radius Rcore=  1.554824

atom: _________________________________________________________________________

<basis_specs>
===============================================================================
C                    Z=   6    Mass=  12.010        Charge= 0.17977+309
Lmxo=1 Lmxkb= 3    BasisType=split      Semic=F
L=0  Nsemic=0  Cnfigmx=2
          n=1  nzeta=2  polorb=0
            splnorm:   0.15000    
               vcte:    0.0000    
               rinn:    0.0000    
                rcs:    0.0000      0.0000    
            lambdas:    1.0000      1.0000    
L=1  Nsemic=0  Cnfigmx=2
          n=1  nzeta=2  polorb=1
            splnorm:   0.15000    
               vcte:    0.0000    
               rinn:    0.0000    
                rcs:    0.0000      0.0000    
            lambdas:    1.0000      1.0000    
-------------------------------------------------------------------------------
L=0  Nkbl=1  erefs: 0.17977+309
L=1  Nkbl=1  erefs: 0.17977+309
L=2  Nkbl=1  erefs: 0.17977+309
L=3  Nkbl=1  erefs: 0.17977+309
===============================================================================
</basis_specs>

atom: Called for C                     (Z =   6)

read_vps: Pseudopotential generation method:
read_vps: ATM3      Troullier-Martins                       
Total valence charge:    4.00000

read_vps: Pseudopotential includes a core correction:
read_vps: Pseudo-core for xc-correction

xc_check: Exchange-correlation functional:
xc_check: GGA Perdew, Burke & Ernzerhof 1996
V l=0 = -2*Zval/r beyond r=  1.5227
V l=1 = -2*Zval/r beyond r=  1.5227
V l=2 = -2*Zval/r beyond r=  1.5227
V l=3 = -2*Zval/r beyond r=  1.5038
All V_l potentials equal beyond r=  1.5227
This should be close to max(r_c) in ps generation
All pots = -2*Zval/r beyond r=  1.5227

VLOCAL1: 99.0% of the norm of Vloc inside     18.722 Ry
VLOCAL1: 99.9% of the norm of Vloc inside     42.668 Ry
atom: Maximum radius for 4*pi*r*r*local-pseudopot. charge    1.83678
atom: Maximum radius for r*vlocal+2*Zval:    1.58088
GHOST: No ghost state for L =  0
GHOST: No ghost state for L =  1
GHOST: No ghost state for L =  2
GHOST: No ghost state for L =  3

KBgen: Kleinman-Bylander projectors: 
   l= 0   rc=  1.704034   el= -1.009801   Ekb=  5.335044   kbcos=  0.316824
   l= 1   rc=  1.704034   el= -0.388707   Ekb= -3.785862   kbcos= -0.366464
   l= 2   rc=  1.791422   el=  0.001971   Ekb= -0.970471   kbcos= -0.009212
   l= 3   rc=  1.859892   el=  0.003065   Ekb= -0.399525   kbcos= -0.001223

KBgen: Total number of  Kleinman-Bylander projectors:   16
atom: -------------------------------------------------------------------------

atom: SANKEY-TYPE ORBITALS:
atom: Selected multiple-zeta basis: split     

SPLIT: Orbitals with angular momentum L= 0

SPLIT: Basis orbitals for state 2s

SPLIT: PAO cut-off radius determined from an
SPLIT: energy shift=  0.007350 Ry

   izeta = 1
                 lambda =    1.000000
                     rc =    4.632753
                 energy =   -1.002270
                kinetic =    0.855760
    potential(screened) =   -1.858031
       potential(ionic) =   -5.417575

   izeta = 2
                 rmatch =    3.431921
              splitnorm =    0.150000
                 energy =   -0.867111
                kinetic =    1.300804
    potential(screened) =   -2.167915
       potential(ionic) =   -5.962684

SPLIT: Orbitals with angular momentum L= 1

SPLIT: Basis orbitals for state 2p

SPLIT: PAO cut-off radius determined from an
SPLIT: energy shift=  0.007350 Ry

   izeta = 1
                 lambda =    1.000000
                     rc =    5.658549
                 energy =   -0.381140
                kinetic =    2.399701
    potential(screened) =   -2.780841
       potential(ionic) =   -6.206085

   izeta = 2
                 rmatch =    3.653288
              splitnorm =    0.150000
                 energy =   -0.249149
                kinetic =    3.542762
    potential(screened) =   -3.791911
       potential(ionic) =   -7.581078

POLgen: Perturbative polarization orbital with L=  2

POLgen: Polarization orbital for state 2p

   izeta = 1
                     rc =    5.658549
                 energy =    1.109913
                kinetic =    2.304789
    potential(screened) =   -1.194876
       potential(ionic) =   -4.013592
atom: Total number of Sankey-type orbitals: 13

atm_pop: Valence configuration (for local Pseudopot. screening):
 2s( 2.00)                                                            
 2p( 2.00)                                                            
Vna: chval, zval:    4.00000   4.00000

Vna:  Cut-off radius for the neutral-atom potential:   5.658549
comcore: Pseudo-core radius Rcore=  1.791422

atom: _________________________________________________________________________

prinput: Basis input ----------------------------------------------------------

PAO.BasisType split     

%block ChemicalSpeciesLabel
    1    7 N                       # Species index, atomic number, species label
    2    6 C                       # Species index, atomic number, species label
%endblock ChemicalSpeciesLabel

%block PAO.Basis                 # Define Basis set
N                     2                    # Species label, number of l-shells
 n=2   0   2                         # n, l, Nzeta 
   4.071      2.905   
   1.000      1.000   
 n=2   1   2 P   1                   # n, l, Nzeta, Polarization, NzetaPol
   4.973      3.054   
   1.000      1.000   
C                     2                    # Species label, number of l-shells
 n=2   0   2                         # n, l, Nzeta 
   4.633      3.432   
   1.000      1.000   
 n=2   1   2 P   1                   # n, l, Nzeta, Polarization, NzetaPol
   5.659      3.653   
   1.000      1.000   
%endblock PAO.Basis

prinput: ----------------------------------------------------------------------

coor:   Atomic-coordinates input format  =     Fractional

siesta: Atomic coordinates (Bohr) and species
siesta:      6.95932  17.38257   0.00000  1        1
siesta:      9.28770  18.72698   0.00000  1        2
siesta:      9.28770  21.41544   0.00000  1        3
siesta:      4.63094  21.41544   0.00000  1        4
siesta:      6.95932  22.75985   0.00000  1        5
siesta:      6.95932  25.44831   0.00000  1        6
siesta:     -0.02582  21.41544   0.00000  1        7
siesta:      2.30256  22.75985   0.00000  1        8
siesta:      2.30256  25.44831   0.00000  1        9
siesta:     -4.68258  21.41544   0.00000  1       10
siesta:     -2.35420  22.75985   0.00000  1       11
siesta:     -2.35420  25.44831   0.00000  1       12
siesta:     -7.01096  22.75985   0.00000  1       13
siesta:     -7.01096  25.44831   0.00000  1       14
siesta:      4.63094  26.79272   0.00000  1       15
siesta:     -0.02582  26.79272   0.00000  1       16
siesta:     -0.02582  29.48119   0.00000  1       17
siesta:     -4.68258  26.79272   0.00000  1       18
siesta:     -4.68258  29.48119   0.00000  1       19
siesta:     -2.35420  30.82560   0.00000  1       20
siesta:     -2.35420  33.51406   0.00000  1       21
siesta:     -0.02582   2.59549   0.00000  2       22
siesta:     -0.02582   5.28395   0.00000  2       23
siesta:     -2.35420  38.89134   0.00000  2       24
siesta:     -2.35420  41.57980   0.00000  2       25
siesta:      2.30256  38.89134   0.00000  2       26
siesta:      2.30256  41.57980   0.00000  2       27
siesta:      4.63094  34.85847   0.00000  2       28
siesta:      4.63094  37.54693   0.00000  2       29
siesta:      6.95932  30.82560   0.00000  2       30
siesta:      6.95932  33.51406   0.00000  2       31
siesta:      9.28770  26.79272   0.00000  2       32
siesta:      9.28770  29.48119   0.00000  2       33
siesta:     -4.68258  34.85847   0.00000  2       34
siesta:     -4.68258  37.54693   0.00000  2       35
siesta:      2.30256   6.62836   0.00000  2       36
siesta:      2.30256   9.31683   0.00000  2       37
siesta:      4.63094  10.66124   0.00000  2       38
siesta:      4.63094  13.34970   0.00000  2       39
siesta:      6.95932  14.69411   0.00000  2       40
siesta:     11.61608  22.75985   0.00000  2       41
siesta:     11.61608  25.44831   0.00000  2       42
siesta:     -2.35420   6.62836   0.00000  2       43
siesta:     -2.35420   9.31683   0.00000  2       44
siesta:     -0.02582  10.66124   0.00000  2       45
siesta:     -0.02582  13.34970   0.00000  2       46
siesta:      2.30256  14.69411   0.00000  2       47
siesta:      2.30256  17.38257   0.00000  2       48
siesta:      4.63094  18.72698   0.00000  2       49
siesta:     -4.68258  10.66124   0.00000  2       50
siesta:     -4.68258  13.34970   0.00000  2       51
siesta:     -2.35420  14.69411   0.00000  2       52
siesta:     -2.35420  17.38257   0.00000  2       53
siesta:     -0.02582  18.72698   0.00000  2       54
siesta:     -7.01096  14.69411   0.00000  2       55
siesta:     -7.01096  17.38257   0.00000  2       56
siesta:     -4.68258  18.72698   0.00000  2       57
siesta:     -9.33934  18.72698   0.00000  2       58
siesta:     -9.33934  21.41544   0.00000  2       59
siesta:    -11.66772  22.75985   0.00000  2       60
siesta:    -11.66772  25.44831   0.00000  2       61
siesta:     -9.33934  26.79272   0.00000  2       62
siesta:     -9.33934  29.48119   0.00000  2       63
siesta:      4.63094  29.48119   0.00000  2       64
siesta:      2.30256  30.82560   0.00000  2       65
siesta:      2.30256  33.51406   0.00000  2       66
siesta:     -7.01096  30.82560   0.00000  2       67
siesta:     -7.01096  33.51406   0.00000  2       68
siesta:     -0.02582  34.85847   0.00000  2       69
siesta:     -0.02582  37.54693   0.00000  2       70
siesta:     -0.02582  42.92421   0.00000  2       71
siesta:     -0.02582  45.61267   0.00000  2       72

siesta: System type = slab      

initatomlists: Number of atoms, orbitals, and projectors:     72   936  1152

siesta: ******************** Simulation parameters ****************************
siesta:
siesta: The following are some of the parameters of the simulation.
siesta: A complete list of the parameters used, including default values,
siesta: can be found in file out.fdf
siesta:
redata: Non-Collinear-spin run           =     F
redata: SpinPolarized (Up/Down) run      =     F
redata: Number of spin components        =     1
redata: Long output                      =     F
redata: Number of Atomic Species         =        2
redata: Charge density info will appear in .RHO file
redata: Write Mulliken Pop.              =     NO
redata: Mesh Cutoff                      =   200.0000  Ry
redata: Net charge of the system         =     0.0000 |e|
redata: Max. number of SCF Iter          =      500
redata: SCF convergence failure will abort job
redata: Performing Pulay mixing using    =    10 iterations
redata: Mix DM in first SCF step ?       =     F
redata: Write Pulay info on disk?        =     F
redata: Discard 1st Pulay DM after  kick =     F
redata: New DM Mixing Weight             =     0.0500
redata: New DM Occupancy tolerance       = 0.000000000001
redata: No kicks to SCF
redata: DM Mixing Weight for Kicks       =     0.5000
redata: DM Tolerance for SCF             =     0.000100
redata: Require Energy convergence for SCF =     F
redata: DM Energy tolerance for SCF      =     0.000100 eV
redata: Require Harris convergence for SCF =     F
redata: DM Harris energy tolerance for SCF =     0.000100 eV
redata: Using Saved Data (generic)   =     F
redata: Use continuation files for DM    =     T
redata: Neglect nonoverlap interactions  =     F
redata: Method of Calculation            =     Diagonalization
redata: Divide and Conquer               =     T
redata: Electronic Temperature           =     0.0019  Ry
redata: Fix the spin of the system       =     F
redata: Dynamics option                  =     Verlet MD run
redata: Initial MD time step             =        1
redata:   Final MD time step             =        1
redata: Length of MD time step           =     1.0000  fs
redata: Initial Temperature of MD run    =     0.0000  K
redata: Perform a MD quench              =     F
redata: ***********************************************************************
Total number of electrons:   309.000000
Total ionic charge:   309.000000

* ProcessorY, Blocksize:    3  24

k-point displ. along   1 input, could be:     0.50    0.00
k-point displ. along   2 input, could be:     0.50    0.00
 Kpoints in:          231 . Kpoints trimmed:          231

siesta: k-grid: Number of k-points =   231
siesta: k-grid: Cutoff (effective) =     5.000 Ang
siesta: k-grid: Supercell and displacements
siesta: k-grid:   21   0   0      0.500
siesta: k-grid:    0  21   0      0.500
siesta: k-grid:    0   0   1      0.000
Naive supercell factors:     2    2    2

superc: Internal auxiliary supercell:     2 x     2 x     2  =       8
superc: Number of atoms, orbitals, and projectors:    576   7488   9216

* Maximum dynamic memory allocated =     4 MB

siesta:                 ==============================
                            Begin MD step =      1
                        ==============================

superc: Internal auxiliary supercell:     2 x     2 x     2  =       8
superc: Number of atoms, orbitals, and projectors:    576   7488   9216

outcell: Unit cell vectors (Ang):
       12.804619    7.392750    0.000000
        0.000000   14.785500    0.000000
        0.000000    0.000000   10.000000

outcell: Cell vector modules (Ang)   :   14.785500   14.785500   10.000000
outcell: Cell angles (23,13,12) (deg):     90.0000     90.0000     60.0000
outcell: Cell volume (Ang**3)        :   1893.2269
New_DM. Step:     1
Initializing Density Matrix...

InitMesh: MESH =   120 x   120 x    90 =     1296000
InitMesh: Mesh cutoff (required, used) =   200.000   223.865 Ry

* Maximum dynamic memory allocated =   133 MB

stepf: Fermi-Dirac step function

siesta: Program's energy decomposition (eV):
siesta: Ebs     =     -6221.136543
siesta: Eions   =     21778.694799
siesta: Ena     =      4933.461669
siesta: Ekin    =      8140.553599
siesta: Enl     =        43.076526
siesta: DEna    =        -0.000015
siesta: DUscf   =         0.000000
siesta: DUext   =         0.000000
siesta: Exc     =     -4687.777296
siesta: eta*DQ  =         0.000000
siesta: Emadel  =         0.000000
siesta: Emeta   =         0.000000
siesta: Emolmec =         0.000000
siesta: Ekinion =         0.000000
siesta: Eharris =    -13006.553860
siesta: Etot    =    -13349.380315
siesta: FreeEng =    -13349.380315

siesta: iscf   Eharris(eV)      E_KS(eV)   FreeEng(eV)   dDmax  Ef(eV)
siesta:    1   -13006.5539   -13349.3803   -13349.3803  6.3660 -6.7413
timer: Routine,Calls,Time,% = IterSCF        1    2993.162  99.59
elaps: Routine,Calls,Wall,% = IterSCF        1     250.024  99.59
siesta:    2   -21659.7206   -11899.9863   -11900.0105 17.4565-10.5197
siesta:    3   -12979.0053   -13168.5028   -13168.5528  2.9812 -5.1955
siesta:    4   -12893.9513   -13044.0609   -13044.1086  1.6827 -4.8545
siesta:    5   -12865.2866   -12922.6829   -12922.7258  0.8396 -4.1200
siesta:    6   -12836.6570   -12870.9580   -12871.0304  0.8442 -3.6664
siesta:    7   -12825.7485   -12858.0155   -12858.0831  0.6996 -3.6127
siesta:    8   -12819.7158   -12842.6647   -12842.7292  0.7747 -3.6172
siesta:    9   -12818.4007   -12830.5574   -12830.6024  0.4574 -3.7544
siesta:   10   -12817.7467   -12814.2764   -12814.3413  0.4498 -3.7985
siesta:   11   -12817.8612   -12811.4605   -12811.5306  0.3439 -3.7458
siesta:   12   -12817.8753   -12801.9599   -12802.0332  0.2266 -3.8074
siesta:   13   -12816.7178   -12799.4006   -12799.4744  0.2239 -3.7265
siesta:   14   -12816.2151   -12805.3972   -12805.4687  0.1880 -3.7001
siesta:   15   -12815.8713   -12807.6949   -12807.7577  0.1794 -3.7014
siesta:   16   -12815.6423   -12810.6592   -12810.7294  0.1783 -3.7264
siesta:   17   -12815.5454   -12812.7377   -12812.8103  0.1356 -3.7506
siesta:   18   -12815.4967   -12813.4864   -12813.5618  0.1183 -3.7363
siesta:   19   -12815.4642   -12814.1465   -12814.2166  0.0954 -3.7305
siesta:   20   -12815.4510   -12814.2765   -12814.3473  0.0659 -3.7223
siesta:   21   -12815.4436   -12815.3319   -12815.4025  0.0444 -3.7062
siesta:   22   -12815.4403   -12815.6843   -12815.7551  0.0265 -3.7006
siesta:   23   -12815.4337   -12815.7266   -12815.7974  0.0193 -3.7030
siesta:   24   -12815.4334   -12815.7489   -12815.8202  0.0177 -3.7024
siesta:   25   -12815.4329   -12815.7594   -12815.8299  0.0156 -3.7012
siesta:   26   -12815.4329   -12815.7744   -12815.8447  0.0120 -3.7009
siesta:   27   -12815.4313   -12815.6886   -12815.7586  0.0049 -3.7044
siesta:   28   -12815.4314   -12815.7707   -12815.8419  0.0034 -3.7033
siesta:   29   -12815.4317   -12815.7420   -12815.8129  0.0024 -3.7034
siesta:   30   -12815.4317   -12815.6661   -12815.7366  0.0019 -3.7037
siesta:   31   -12815.4316   -12815.6229   -12815.6934  0.0008 -3.7036
siesta:   32   -12815.4316   -12815.5908   -12815.6613  0.0007 -3.7037
siesta:   33   -12815.4315   -12815.5416   -12815.6121  0.0004 -3.7038
siesta:   34   -12815.4315   -12815.5088   -12815.5794  0.0003 -3.7037
siesta:   35   -12815.4315   -12815.4967   -12815.5673  0.0002 -3.7036
siesta:   36   -12815.4315   -12815.4757   -12815.5462  0.0001 -3.7036
siesta:   37   -12815.4315   -12815.4689   -12815.5394  0.0001 -3.7035
siesta:   38   -12815.4315   -12815.4553   -12815.5259  0.0001 -3.7035

siesta: E_KS(eV) =           -12815.4496

siesta: E_KS - E_eggbox =    -12815.4496

siesta: Atomic forces (eV/Ang):
----------------------------------------
   Tot   -0.025432   -0.166982    0.000000
----------------------------------------
   Max  686.184489
   Res  168.951964    sqrt( Sum f_i^2 / 3N )
----------------------------------------
   Max  686.184489    constrained

Stress-tensor-Voigt (kbar):     -714.37    -2959.53       -0.04       14.71        0.00        0.00
(Free)E + p*V (eV/cell)   -11368.4226
Target enthalpy (eV/cell)   -12815.5202

siesta: Stress tensor (static) (eV/Ang**3):
        -0.445868    0.009179    0.000000
         0.009179   -1.847171    0.000000
         0.000000    0.000000   -0.000026

siesta: Pressure (static):       1224.64504463  kBar

siesta: Stress tensor (total) (eV/Ang**3):
        -0.445868    0.009179    0.000000
         0.009179   -1.847171    0.000000
         0.000000    0.000000   -0.000026

siesta: Pressure (total):       1224.64504463  kBar

siesta: Temp_ion =       0.000 K

* Maximum dynamic memory allocated =   144 MB
Computing bands...

siesta: Program's energy decomposition (eV):
siesta: Ebs     =     -5067.372846
siesta: Eions   =     21778.694799
siesta: Ena     =      4933.461669
siesta: Ekin    =     11119.578706
siesta: Enl     =     -1599.270497
siesta: DEna    =      -746.821619
siesta: DUscf   =       106.490550
siesta: DUext   =         0.000000
siesta: Exc     =     -4850.193616
siesta: eta*DQ  =         0.000000
siesta: Emadel  =         0.000000
siesta: Emeta   =         0.000000
siesta: Emolmec =         0.000000
siesta: Ekinion =         0.000000
siesta: Eharris =    -12815.431534
siesta: Etot    =    -12815.449606
siesta: FreeEng =    -12815.520156

siesta: Final energy (eV):
siesta:  Band Struct. =   -5067.372846
siesta:       Kinetic =   11119.578706
siesta:       Hartree =   35434.413025
siesta:    Ext. field =       0.000000
siesta:   Exch.-corr. =   -4850.193616
siesta:  Ion-electron =  -81542.007898
siesta:       Ion-ion =   27022.760177
siesta:       Ekinion =       0.000000
siesta:         Total =  -12815.449606

siesta: Atomic forces (eV/Ang):
siesta:      1   -1.795019    0.226284    0.000000
siesta:      2    0.559338    1.330018    0.000000
siesta:      3    3.110681   -2.121222    0.000000
siesta:      4    0.502499   -1.944442    0.000000
siesta:      5   -1.711064    0.701021    0.000000
siesta:      6    0.097952   -0.106478    0.000000
siesta:      7    0.366659   -4.420942    0.000000
siesta:      8    1.619965   -1.758099    0.000000
siesta:      9    2.823371    0.177041    0.000000
siesta:     10   -0.645335   -0.942133    0.000000
siesta:     11   -1.741046   -0.925275    0.000000
siesta:     12   -2.048088    1.034721    0.000000
siesta:     13    0.207173    0.846310    0.000000
siesta:     14    0.657163   -0.832986    0.000000
siesta:     15    0.356633    0.496721    0.000000
siesta:     16    0.258594    7.993288    0.000000
siesta:     17   14.131202 -686.184489    0.000000
siesta:     18   -0.956699   -1.363493    0.000000
siesta:     19   -1.208604   -1.537977    0.000000
siesta:     20  -33.402151   11.443038    0.000000
siesta:     21   -3.097075 -670.451041    0.000000
siesta:     22   -8.510367  642.726960    0.000000
siesta:     23   -2.462041 -122.207175    0.000000
siesta:     24    2.009517  127.697378    0.000000
siesta:     25  -14.990339 -548.334246    0.000000
siesta:     26   -1.676573  127.730752    0.000000
siesta:     27   17.497274 -549.496262    0.000000
siesta:     28   25.900636    6.710724    0.000000
siesta:     29   32.576478 -550.174401    0.000000
siesta:     30    1.495914    0.222346    0.000000
siesta:     31   -2.590868    1.155912    0.000000
siesta:     32    1.961405    1.910083    0.000000
siesta:     33   -0.648926   -0.889824    0.000000
siesta:     34  -25.942751   10.080944    0.000000
siesta:     35  -30.658293 -549.777852    0.000000
siesta:     36   13.973935  548.883659    0.000000
siesta:     37   -0.357104 -127.375940    0.000000
siesta:     38   35.191310  551.062969    0.000000
siesta:     39   25.818996   -6.814961    0.000000
siesta:     40   -1.233110    1.357526    0.000000
siesta:     41   -2.042335    1.066611    0.000000
siesta:     42   -1.127650   -3.258163    0.000000
siesta:     43  -26.933190  654.684102    0.000000
siesta:     44   -0.282919 -122.917828    0.000000
siesta:     45    0.424922  544.648193    0.000000
siesta:     46   -0.497486 -128.717539    0.000000
siesta:     47   18.334001  558.456992    0.000000
siesta:     48   23.322794   -5.761518    0.000000
siesta:     49   -0.327103    2.530589    0.000000
siesta:     50  -35.197402  551.370358    0.000000
siesta:     51  -26.413267   -6.664759    0.000000
siesta:     52  -20.079348  558.521813    0.000000
siesta:     53  -23.459717   -4.819601    0.000000
siesta:     54   -0.048245  566.187293    0.000000
siesta:     55    3.309741   -1.498928    0.000000
siesta:     56   -1.405581    0.121101    0.000000
siesta:     57    1.368661    2.347366    0.000000
siesta:     58    0.642704    0.933710    0.000000
siesta:     59   -1.983811   -2.343561    0.000000
siesta:     60    0.895295    4.622767    0.000000
siesta:     61    1.166520   -4.561524    0.000000
siesta:     62   -1.913900    1.648726    0.000000
siesta:     63    1.379783   -0.180912    0.000000
siesta:     64   -1.212898   -3.198175    0.000000
siesta:     65   25.509964    9.662709    0.000000
siesta:     66   19.205201 -556.901354    0.000000
siesta:     67   -2.064862    0.574626    0.000000
siesta:     68    2.470807    0.284019    0.000000
siesta:     69    3.983144  128.763883    0.000000
siesta:     70   -3.039168 -544.654501    0.000000
siesta:     71    0.209078  127.863566    0.000000
siesta:     72    0.339591 -545.105505    0.000000
siesta: ----------------------------------------
siesta:    Tot   -0.025432   -0.166982    0.000000

siesta: Stress tensor (static) (eV/Ang**3):
siesta:    -0.445868    0.009179    0.000000
siesta:     0.009179   -1.847171    0.000000
siesta:     0.000000    0.000000   -0.000026

siesta: Cell volume =       1893.226884 Ang**3

siesta: Pressure (static):
siesta:                Solid            Molecule  Units
siesta:           0.00832480          0.13182563  Ry/Bohr**3
siesta:           0.76435505         12.10378073  eV/Ang**3
siesta:        1224.64504463      19392.60428687  kBar
(Free)E+ p_basis*V_orbitals  =      -12787.784774
(Free)Eharris+ p_basis*V_orbitals  =      -12787.760972

siesta: Electric dipole (a.u.)  =    0.000000    0.000000    0.000000
siesta: Electric dipole (Debye) =    0.000000    0.000000    0.000000

* Maximum dynamic memory allocated : Node    0 =   144 MB
* Maximum dynamic memory allocated : Node    1 =    57 MB
* Maximum dynamic memory allocated : Node    2 =    59 MB
* Maximum dynamic memory allocated : Node    3 =   132 MB
* Maximum dynamic memory allocated : Node    4 =   144 MB
* Maximum dynamic memory allocated : Node    5 =    53 MB
* Maximum dynamic memory allocated : Node    6 =    54 MB
* Maximum dynamic memory allocated : Node    7 =   136 MB
* Maximum dynamic memory allocated : Node    8 =   123 MB
* Maximum dynamic memory allocated : Node    9 =    50 MB
* Maximum dynamic memory allocated : Node   10 =    52 MB
* Maximum dynamic memory allocated : Node   11 =   118 MB

* Maximum memory occured during matrixMtoO                    

timer: CPU execution times:
timer:  Routine       Calls   Time/call    Tot.time        %
timer:  siesta            1  111788.505  111788.505   100.00
timer:  Setup             1       3.327       3.327     0.00
timer:  bands             3     226.900     680.699     0.61
timer:  writewave         1       0.023       0.023     0.00
timer:  KSV_init          1       0.004       0.004     0.00
timer:  IterMD            1  111097.536  111097.536    99.38
timer:  hsparse           1       0.169       0.169     0.00
timer:  overlap           1       8.282       8.282     0.01
timer:  IterSCF          38    2920.410  110975.568    99.27
timer:  kinefsm           2       4.192       8.384     0.01
timer:  nlefsm            2      18.195      36.390     0.03
timer:  DHSCF            39      60.658    2365.644     2.12
timer:  DHSCF1            1       0.903       0.903     0.00
timer:  DHSCF2            1      24.620      24.620     0.02
timer:  REORD           314       0.003       0.844     0.00
timer:  POISON           40       0.449      17.972     0.02
timer:  DHSCF3           39      59.484    2319.875     2.08
timer:  rhoofd           39      11.911     464.522     0.42
timer:  cellXC           39       2.394      93.369     0.08
timer:  vmat             39      27.899    1088.080     0.97
timer:  MolMec            2       0.000       0.000     0.00
timer:  diagon           38    2858.559  108625.225    97.17
timer:  c-eigval       8899       5.586   49708.940    44.47
timer:  c-buildHS      8899       0.032     284.686     0.25
timer:  cdiag         17677       5.687  100521.608    89.92
timer:  cdiag1        17677       0.262    4632.306     4.14
timer:  cdiag2        17677       1.835   32436.599    29.02
timer:  cdiag3        17677       3.382   59786.892    53.48
timer:  cdiag4        17677       0.089    1568.092     1.40
timer:  c-eigvec       8778       5.848   51333.875    45.92
timer:  c-buildD       8778       0.936    8214.222     7.35
timer:  DHSCF4            1      19.986      19.986     0.02
timer:  dfscf             1      18.580      18.580     0.02
timer:  overfsm           1       0.279       0.279     0.00
timer:  optical           1       6.342       6.342     0.01
  

elaps: ELAPSED times:
elaps:  Routine       Calls   Time/call    Tot.time        %
elaps:  siesta            1    9337.624    9337.624   100.00
elaps:  Setup             1       0.279       0.279     0.00
elaps:  bands             3      18.968      56.903     0.61
elaps:  writewave         1       0.002       0.002     0.00
elaps:  KSV_init          1       0.000       0.000     0.00
elaps:  IterMD            1    9279.906    9279.906    99.38
elaps:  hsparse           1       0.016       0.016     0.00
elaps:  overlap           1       0.711       0.711     0.01
elaps:  IterSCF          38     243.940    9269.719    99.27
elaps:  kinefsm           2       0.363       0.727     0.01
elaps:  nlefsm            2       1.655       3.309     0.04
elaps:  DHSCF            39       5.110     199.290     2.13
elaps:  DHSCF1            1       0.078       0.078     0.00
elaps:  DHSCF2            1       2.053       2.053     0.02
elaps:  REORD           314       0.000       0.093     0.00
elaps:  POISON           40       0.038       1.510     0.02
elaps:  DHSCF3           39       4.969     193.793     2.08
elaps:  rhoofd           39       2.256      87.982     0.94
elaps:  cellXC           39       0.200       7.783     0.08
elaps:  vmat             39       2.331      90.905     0.97
elaps:  MolMec            2       0.000       0.000     0.00
elaps:  diagon           38     238.780    9073.636    97.17
elaps:  c-eigval       8899       0.467    4152.114    44.47
elaps:  c-buildHS      8899       0.003      30.019     0.32
elaps:  cdiag         17677       0.470    8316.492    89.06
elaps:  cdiag1        17677       0.021     378.777     4.06
elaps:  cdiag2        17677       0.153    2711.836    29.04
elaps:  cdiag3        17677       0.283    5001.044    53.56
elaps:  cdiag4        17677       0.007     125.264     1.34
elaps:  c-eigvec       8778       0.481    4219.490    45.19
elaps:  c-buildD       8778       0.086     754.223     8.08
elaps:  DHSCF4            1       3.321       3.321     0.04
elaps:  dfscf             1       3.134       3.134     0.03
elaps:  overfsm           1       0.030       0.030     0.00
elaps:  optical           1       0.000       0.000     0.00
  
>> End of run:  29-APR-2016  21:28:25
