Siesta Version:                                        siesta-3.2-pl-3
Architecture  : x86_64-unknown-linux-gnu--unknown
Compiler flags: mpiifort -g -O2 -fPIC -xSSE4.1 -fp-model source -shared-intel 
PARALLEL version

* Running on   12 nodes in parallel
>> Start of run:   7-MAY-2016   1:38:26

                           ***********************       
                           *  WELCOME TO SIESTA  *       
                           ***********************       

reinit: Reading from standard input
************************** Dump of input data file ****************************
#(1) General system descriptors
SystemName            GRP_doping    # Descriptive name of the system
SystemLabel           GRP_doping    # Short name for naming files
%include STRUCT.fdf
%include KPT.fdf
%include BASIS.fdf
#%include TS.fdf # for transiesta calculation
#(4) DFT, Grid, SCF
XC.functional         GGA           # LDA or GGA (default = LDA)
XC.authors            PBE           # CA (Ceperley-Aldr) = PZ
                                    #    (Perdew-Zunger) - LDA - Default
                                    # PW92 (Perdew-Wang-92) - LDA
                                    # PBE (Perdew-Burke-Ernzerhof) - GGA
MeshCutoff            200.000000    Ry      # Default: 50.0 Ry ~ 0.444 Bohr
                                    #         100.0 Ry ~ 0.314 Bohr
MaxSCFIterations      500           # Default: 50
DM.MixingWeight       0.05          # Default: 0.25
DM.NumberPulay        10            # Default: 0
DM.PulayOnFile        F             # SystemLabel.P1, SystemLabel.P2
DM.Tolerance          1.d-4         # Default: 1.d-4
DM.UseSaveDM          .true.        # because of the bug
SCFMustConverge       .true.
NeglNonOverlapInt     F             # Default: F
#(5) Eigenvalue problem: order-N or diagonalization
SolutionMethod        Diagon        # or Transiesta
ElectronicTemperature 300.0 K       # Default: 300.0 K
#(6) Molecular dynamics and relaxations
#MD.TypeOfRun          CG            # Type of dynamics:
#MD.VariableCell       F
#MD.NumCGsteps         0           # 0 for single-point / 100 for gopt
#MD.MaxCGDispl         0.2 Bohr      # Default: 0.2 Bohr
#MD.MaxForceTol        0.02 eV/Ang   # Default: 0.04 eV/Ang
#MD.MaxStressTol       1.0 GPa       # Default: 1.0 GPa
# Geometry Constraints
#%block GeometryConstraints
#	position from 1 to 44
#%endblock GeometryConstraints
BandLinesScale   pi/a
%block BandLines
 1   0.00000000  0.00000000  0.00000000
50   0.00000000  0.07809418  0.00000000
50   0.04509075  0.07809242  0.00000000
20   0.00000000  0.00000000  0.00000000
%endblock BandLines
************************** End of input data file *****************************

reinit: -----------------------------------------------------------------------
reinit: System Name: GRP_doping
reinit: -----------------------------------------------------------------------
reinit: System Label: GRP_doping                                                  
reinit: -----------------------------------------------------------------------

initatom: Reading input for the pseudopotentials and atomic orbitals ----------
 Species number:            1  Label: N Atomic number:           7
 Species number:            2  Label: C Atomic number:           6
Ground state valence configuration:   2s02  2p03
Reading pseudopotential information in formatted form from N.psf

Valence configuration for pseudopotential generation:
2s( 2.00) rc: 1.48
2p( 3.00) rc: 1.48
3d( 0.00) rc: 1.48
4f( 0.00) rc: 1.48
Ground state valence configuration:   2s02  2p02
Reading pseudopotential information in formatted form from C.psf

Valence configuration for pseudopotential generation:
2s( 2.00) rc: 1.54
2p( 2.00) rc: 1.54
3d( 0.00) rc: 1.54
4f( 0.00) rc: 1.54
For N, standard SIESTA heuristics set lmxkb to 3
 (one more than the basis l, including polarization orbitals).
Use PS.lmax or PS.KBprojectors blocks to override.
For C, standard SIESTA heuristics set lmxkb to 3
 (one more than the basis l, including polarization orbitals).
Use PS.lmax or PS.KBprojectors blocks to override.

<basis_specs>
===============================================================================
N                    Z=   7    Mass=  14.010        Charge= 0.17977+309
Lmxo=1 Lmxkb= 3    BasisType=split      Semic=F
L=0  Nsemic=0  Cnfigmx=2
          n=1  nzeta=2  polorb=0
            splnorm:   0.15000    
               vcte:    0.0000    
               rinn:    0.0000    
                rcs:    0.0000      0.0000    
            lambdas:    1.0000      1.0000    
L=1  Nsemic=0  Cnfigmx=2
          n=1  nzeta=2  polorb=1
            splnorm:   0.15000    
               vcte:    0.0000    
               rinn:    0.0000    
                rcs:    0.0000      0.0000    
            lambdas:    1.0000      1.0000    
-------------------------------------------------------------------------------
L=0  Nkbl=1  erefs: 0.17977+309
L=1  Nkbl=1  erefs: 0.17977+309
L=2  Nkbl=1  erefs: 0.17977+309
L=3  Nkbl=1  erefs: 0.17977+309
===============================================================================
</basis_specs>

atom: Called for N                     (Z =   7)

read_vps: Pseudopotential generation method:
read_vps: ATM3      Troullier-Martins                       
Total valence charge:    5.00000

read_vps: Pseudopotential includes a core correction:
read_vps: Pseudo-core for xc-correction

xc_check: Exchange-correlation functional:
xc_check: GGA Perdew, Burke & Ernzerhof 1996
V l=0 = -2*Zval/r beyond r=  1.4606
V l=1 = -2*Zval/r beyond r=  1.4606
V l=2 = -2*Zval/r beyond r=  1.4606
V l=3 = -2*Zval/r beyond r=  1.4606
All V_l potentials equal beyond r=  1.4606
This should be close to max(r_c) in ps generation
All pots = -2*Zval/r beyond r=  1.4606

VLOCAL1: 99.0% of the norm of Vloc inside     20.347 Ry
VLOCAL1: 99.9% of the norm of Vloc inside     46.372 Ry
atom: Maximum radius for 4*pi*r*r*local-pseudopot. charge    1.76189
atom: Maximum radius for r*vlocal+2*Zval:    1.53550
GHOST: No ghost state for L =  0
GHOST: No ghost state for L =  1
GHOST: No ghost state for L =  2
GHOST: No ghost state for L =  3

KBgen: Kleinman-Bylander projectors: 
   l= 0   rc=  1.634559   el= -1.363963   Ekb=  5.296955   kbcos=  0.335621
   l= 1   rc=  1.614250   el= -0.521451   Ekb= -5.259161   kbcos= -0.433408
   l= 2   rc=  1.718383   el=  0.001991   Ekb= -1.271464   kbcos= -0.007566
   l= 3   rc=  1.761893   el=  0.003093   Ekb= -0.494769   kbcos= -0.001015

KBgen: Total number of  Kleinman-Bylander projectors:   16
atom: -------------------------------------------------------------------------

atom: SANKEY-TYPE ORBITALS:
atom: Selected multiple-zeta basis: split     

SPLIT: Orbitals with angular momentum L= 0

SPLIT: Basis orbitals for state 2s

SPLIT: PAO cut-off radius determined from an
SPLIT: energy shift=  0.007350 Ry

   izeta = 1
                 lambda =    1.000000
                     rc =    4.071465
                 energy =   -1.356470
                kinetic =    1.176977
    potential(screened) =   -2.533447
       potential(ionic) =   -8.057990

   izeta = 2
                 rmatch =    2.905100
              splitnorm =    0.150000
                 energy =   -1.158343
                kinetic =    1.813009
    potential(screened) =   -2.971352
       potential(ionic) =   -8.901931

SPLIT: Orbitals with angular momentum L= 1

SPLIT: Basis orbitals for state 2p

SPLIT: PAO cut-off radius determined from an
SPLIT: energy shift=  0.007350 Ry

   izeta = 1
                 lambda =    1.000000
                     rc =    4.972977
                 energy =   -0.513884
                kinetic =    3.441732
    potential(screened) =   -3.955616
       potential(ionic) =   -9.287901

   izeta = 2
                 rmatch =    3.054066
              splitnorm =    0.150000
                 energy =   -0.318226
                kinetic =    5.125348
    potential(screened) =   -5.443573
       potential(ionic) =  -11.380999

POLgen: Perturbative polarization orbital with L=  2

POLgen: Polarization orbital for state 2p

   izeta = 1
                     rc =    4.972977
                 energy =    1.607437
                kinetic =    3.268125
    potential(screened) =   -1.660688
       potential(ionic) =   -5.973652
atom: Total number of Sankey-type orbitals: 13

atm_pop: Valence configuration (for local Pseudopot. screening):
 2s( 2.00)                                                            
 2p( 3.00)                                                            
Vna: chval, zval:    5.00000   5.00000

Vna:  Cut-off radius for the neutral-atom potential:   4.972977
comcore: Pseudo-core radius Rcore=  1.554824

atom: _________________________________________________________________________

<basis_specs>
===============================================================================
C                    Z=   6    Mass=  12.010        Charge= 0.17977+309
Lmxo=1 Lmxkb= 3    BasisType=split      Semic=F
L=0  Nsemic=0  Cnfigmx=2
          n=1  nzeta=2  polorb=0
            splnorm:   0.15000    
               vcte:    0.0000    
               rinn:    0.0000    
                rcs:    0.0000      0.0000    
            lambdas:    1.0000      1.0000    
L=1  Nsemic=0  Cnfigmx=2
          n=1  nzeta=2  polorb=1
            splnorm:   0.15000    
               vcte:    0.0000    
               rinn:    0.0000    
                rcs:    0.0000      0.0000    
            lambdas:    1.0000      1.0000    
-------------------------------------------------------------------------------
L=0  Nkbl=1  erefs: 0.17977+309
L=1  Nkbl=1  erefs: 0.17977+309
L=2  Nkbl=1  erefs: 0.17977+309
L=3  Nkbl=1  erefs: 0.17977+309
===============================================================================
</basis_specs>

atom: Called for C                     (Z =   6)

read_vps: Pseudopotential generation method:
read_vps: ATM3      Troullier-Martins                       
Total valence charge:    4.00000

read_vps: Pseudopotential includes a core correction:
read_vps: Pseudo-core for xc-correction

xc_check: Exchange-correlation functional:
xc_check: GGA Perdew, Burke & Ernzerhof 1996
V l=0 = -2*Zval/r beyond r=  1.5227
V l=1 = -2*Zval/r beyond r=  1.5227
V l=2 = -2*Zval/r beyond r=  1.5227
V l=3 = -2*Zval/r beyond r=  1.5038
All V_l potentials equal beyond r=  1.5227
This should be close to max(r_c) in ps generation
All pots = -2*Zval/r beyond r=  1.5227

VLOCAL1: 99.0% of the norm of Vloc inside     18.722 Ry
VLOCAL1: 99.9% of the norm of Vloc inside     42.668 Ry
atom: Maximum radius for 4*pi*r*r*local-pseudopot. charge    1.83678
atom: Maximum radius for r*vlocal+2*Zval:    1.58088
GHOST: No ghost state for L =  0
GHOST: No ghost state for L =  1
GHOST: No ghost state for L =  2
GHOST: No ghost state for L =  3

KBgen: Kleinman-Bylander projectors: 
   l= 0   rc=  1.704034   el= -1.009801   Ekb=  5.335044   kbcos=  0.316824
   l= 1   rc=  1.704034   el= -0.388707   Ekb= -3.785862   kbcos= -0.366464
   l= 2   rc=  1.791422   el=  0.001971   Ekb= -0.970471   kbcos= -0.009212
   l= 3   rc=  1.859892   el=  0.003065   Ekb= -0.399525   kbcos= -0.001223

KBgen: Total number of  Kleinman-Bylander projectors:   16
atom: -------------------------------------------------------------------------

atom: SANKEY-TYPE ORBITALS:
atom: Selected multiple-zeta basis: split     

SPLIT: Orbitals with angular momentum L= 0

SPLIT: Basis orbitals for state 2s

SPLIT: PAO cut-off radius determined from an
SPLIT: energy shift=  0.007350 Ry

   izeta = 1
                 lambda =    1.000000
                     rc =    4.632753
                 energy =   -1.002270
                kinetic =    0.855760
    potential(screened) =   -1.858031
       potential(ionic) =   -5.417575

   izeta = 2
                 rmatch =    3.431921
              splitnorm =    0.150000
                 energy =   -0.867111
                kinetic =    1.300804
    potential(screened) =   -2.167915
       potential(ionic) =   -5.962684

SPLIT: Orbitals with angular momentum L= 1

SPLIT: Basis orbitals for state 2p

SPLIT: PAO cut-off radius determined from an
SPLIT: energy shift=  0.007350 Ry

   izeta = 1
                 lambda =    1.000000
                     rc =    5.658549
                 energy =   -0.381140
                kinetic =    2.399701
    potential(screened) =   -2.780841
       potential(ionic) =   -6.206085

   izeta = 2
                 rmatch =    3.653288
              splitnorm =    0.150000
                 energy =   -0.249149
                kinetic =    3.542762
    potential(screened) =   -3.791911
       potential(ionic) =   -7.581078

POLgen: Perturbative polarization orbital with L=  2

POLgen: Polarization orbital for state 2p

   izeta = 1
                     rc =    5.658549
                 energy =    1.109913
                kinetic =    2.304789
    potential(screened) =   -1.194876
       potential(ionic) =   -4.013592
atom: Total number of Sankey-type orbitals: 13

atm_pop: Valence configuration (for local Pseudopot. screening):
 2s( 2.00)                                                            
 2p( 2.00)                                                            
Vna: chval, zval:    4.00000   4.00000

Vna:  Cut-off radius for the neutral-atom potential:   5.658549
comcore: Pseudo-core radius Rcore=  1.791422

atom: _________________________________________________________________________

prinput: Basis input ----------------------------------------------------------

PAO.BasisType split     

%block ChemicalSpeciesLabel
    1    7 N                       # Species index, atomic number, species label
    2    6 C                       # Species index, atomic number, species label
%endblock ChemicalSpeciesLabel

%block PAO.Basis                 # Define Basis set
N                     2                    # Species label, number of l-shells
 n=2   0   2                         # n, l, Nzeta 
   4.071      2.905   
   1.000      1.000   
 n=2   1   2 P   1                   # n, l, Nzeta, Polarization, NzetaPol
   4.973      3.054   
   1.000      1.000   
C                     2                    # Species label, number of l-shells
 n=2   0   2                         # n, l, Nzeta 
   4.633      3.432   
   1.000      1.000   
 n=2   1   2 P   1                   # n, l, Nzeta, Polarization, NzetaPol
   5.659      3.653   
   1.000      1.000   
%endblock PAO.Basis

prinput: ----------------------------------------------------------------------

coor:   Atomic-coordinates input format  =     Fractional

siesta: Atomic coordinates (Bohr) and species
siesta:     -0.02582  21.41544   0.00000  1        1
siesta:      2.30256  22.75985   0.00000  1        2
siesta:      2.30256  25.44831   0.00000  1        3
siesta:     -4.68258  21.41544   0.00000  1        4
siesta:     -2.35420  22.75985   0.00000  1        5
siesta:     -2.35420  25.44831   0.00000  1        6
siesta:     -0.02582  26.79272   0.00000  1        7
siesta:     -4.68258  26.79272   0.00000  1        8
siesta:     -0.02582   2.59549   0.00000  2        9
siesta:     -0.02582   5.28395   0.00000  2       10
siesta:     -2.35420  38.89134   0.00000  2       11
siesta:     -2.35420  41.57980   0.00000  2       12
siesta:      2.30256  38.89134   0.00000  2       13
siesta:      2.30256  41.57980   0.00000  2       14
siesta:      4.63094  34.85847   0.00000  2       15
siesta:      4.63094  37.54693   0.00000  2       16
siesta:      6.95932  30.82560   0.00000  2       17
siesta:      6.95932  33.51406   0.00000  2       18
siesta:      9.28770  26.79272   0.00000  2       19
siesta:      9.28770  29.48119   0.00000  2       20
siesta:     -4.68258  34.85847   0.00000  2       21
siesta:     -4.68258  37.54693   0.00000  2       22
siesta:      2.30256   6.62836   0.00000  2       23
siesta:      2.30256   9.31683   0.00000  2       24
siesta:      4.63094  10.66124   0.00000  2       25
siesta:      4.63094  13.34970   0.00000  2       26
siesta:      6.95932  14.69411   0.00000  2       27
siesta:      6.95932  17.38257   0.00000  2       28
siesta:      9.28770  18.72698   0.00000  2       29
siesta:      9.28770  21.41544   0.00000  2       30
siesta:     11.61608  22.75985   0.00000  2       31
siesta:     11.61608  25.44831   0.00000  2       32
siesta:     -2.35420   6.62836   0.00000  2       33
siesta:     -2.35420   9.31683   0.00000  2       34
siesta:     -0.02582  10.66124   0.00000  2       35
siesta:     -0.02582  13.34970   0.00000  2       36
siesta:      2.30256  14.69411   0.00000  2       37
siesta:      2.30256  17.38257   0.00000  2       38
siesta:      4.63094  18.72698   0.00000  2       39
siesta:      4.63094  21.41544   0.00000  2       40
siesta:      6.95932  22.75985   0.00000  2       41
siesta:      6.95932  25.44831   0.00000  2       42
siesta:     -4.68258  10.66124   0.00000  2       43
siesta:     -4.68258  13.34970   0.00000  2       44
siesta:     -2.35420  14.69411   0.00000  2       45
siesta:     -2.35420  17.38257   0.00000  2       46
siesta:     -0.02582  18.72698   0.00000  2       47
siesta:     -7.01096  14.69411   0.00000  2       48
siesta:     -7.01096  17.38257   0.00000  2       49
siesta:     -4.68258  18.72698   0.00000  2       50
siesta:     -9.33934  18.72698   0.00000  2       51
siesta:     -9.33934  21.41544   0.00000  2       52
siesta:     -7.01096  22.75985   0.00000  2       53
siesta:     -7.01096  25.44831   0.00000  2       54
siesta:    -11.66772  22.75985   0.00000  2       55
siesta:    -11.66772  25.44831   0.00000  2       56
siesta:     -9.33934  26.79272   0.00000  2       57
siesta:     -9.33934  29.48119   0.00000  2       58
siesta:      4.63094  26.79272   0.00000  2       59
siesta:      4.63094  29.48119   0.00000  2       60
siesta:     -0.02582  29.48119   0.00000  2       61
siesta:     -4.68258  29.48119   0.00000  2       62
siesta:      2.30256  30.82560   0.00000  2       63
siesta:      2.30256  33.51406   0.00000  2       64
siesta:     -2.35420  30.82560   0.00000  2       65
siesta:     -2.35420  33.51406   0.00000  2       66
siesta:     -7.01096  30.82560   0.00000  2       67
siesta:     -7.01096  33.51406   0.00000  2       68
siesta:     -0.02582  34.85847   0.00000  2       69
siesta:     -0.02582  37.54693   0.00000  2       70
siesta:     -0.02582  42.92421   0.00000  2       71
siesta:     -0.02582  45.61267   0.00000  2       72

siesta: System type = slab      

initatomlists: Number of atoms, orbitals, and projectors:     72   936  1152

siesta: ******************** Simulation parameters ****************************
siesta:
siesta: The following are some of the parameters of the simulation.
siesta: A complete list of the parameters used, including default values,
siesta: can be found in file out.fdf
siesta:
redata: Non-Collinear-spin run           =     F
redata: SpinPolarized (Up/Down) run      =     F
redata: Number of spin components        =     1
redata: Long output                      =     F
redata: Number of Atomic Species         =        2
redata: Charge density info will appear in .RHO file
redata: Write Mulliken Pop.              =     NO
redata: Mesh Cutoff                      =   200.0000  Ry
redata: Net charge of the system         =     0.0000 |e|
redata: Max. number of SCF Iter          =      500
redata: SCF convergence failure will abort job
redata: Performing Pulay mixing using    =    10 iterations
redata: Mix DM in first SCF step ?       =     F
redata: Write Pulay info on disk?        =     F
redata: Discard 1st Pulay DM after  kick =     F
redata: New DM Mixing Weight             =     0.0500
redata: New DM Occupancy tolerance       = 0.000000000001
redata: No kicks to SCF
redata: DM Mixing Weight for Kicks       =     0.5000
redata: DM Tolerance for SCF             =     0.000100
redata: Require Energy convergence for SCF =     F
redata: DM Energy tolerance for SCF      =     0.000100 eV
redata: Require Harris convergence for SCF =     F
redata: DM Harris energy tolerance for SCF =     0.000100 eV
redata: Using Saved Data (generic)   =     F
redata: Use continuation files for DM    =     T
redata: Neglect nonoverlap interactions  =     F
redata: Method of Calculation            =     Diagonalization
redata: Divide and Conquer               =     T
redata: Electronic Temperature           =     0.0019  Ry
redata: Fix the spin of the system       =     F
redata: Dynamics option                  =     Verlet MD run
redata: Initial MD time step             =        1
redata:   Final MD time step             =        1
redata: Length of MD time step           =     1.0000  fs
redata: Initial Temperature of MD run    =     0.0000  K
redata: Perform a MD quench              =     F
redata: ***********************************************************************
Total number of electrons:   296.000000
Total ionic charge:   296.000000

* ProcessorY, Blocksize:    3  24

k-point displ. along   1 input, could be:     0.50    0.00
k-point displ. along   2 input, could be:     0.50    0.00
 Kpoints in:          231 . Kpoints trimmed:          231

siesta: k-grid: Number of k-points =   231
siesta: k-grid: Cutoff (effective) =     5.000 Ang
siesta: k-grid: Supercell and displacements
siesta: k-grid:   21   0   0      0.500
siesta: k-grid:    0  21   0      0.500
siesta: k-grid:    0   0   1      0.000
Naive supercell factors:     2    2    2

superc: Internal auxiliary supercell:     2 x     2 x     2  =       8
superc: Number of atoms, orbitals, and projectors:    576   7488   9216

* Maximum dynamic memory allocated =     4 MB

siesta:                 ==============================
                            Begin MD step =      1
                        ==============================

superc: Internal auxiliary supercell:     2 x     2 x     2  =       8
superc: Number of atoms, orbitals, and projectors:    576   7488   9216

outcell: Unit cell vectors (Ang):
       12.804619    7.392750    0.000000
        0.000000   14.785500    0.000000
        0.000000    0.000000   10.000000

outcell: Cell vector modules (Ang)   :   14.785500   14.785500   10.000000
outcell: Cell angles (23,13,12) (deg):     90.0000     90.0000     60.0000
outcell: Cell volume (Ang**3)        :   1893.2269
New_DM. Step:     1
Initializing Density Matrix...

InitMesh: MESH =   120 x   120 x    90 =     1296000
InitMesh: Mesh cutoff (required, used) =   200.000   223.865 Ry

* Maximum dynamic memory allocated =   138 MB

stepf: Fermi-Dirac step function

siesta: Program's energy decomposition (eV):
siesta: Ebs     =     -5988.263237
siesta: Eions   =     19688.985824
siesta: Ena     =      4792.970589
siesta: Ekin    =      7049.557044
siesta: Enl     =       403.229995
siesta: DEna    =        -0.000015
siesta: DUscf   =         0.000000
siesta: DUext   =         0.000000
siesta: Exc     =     -4362.270841
siesta: eta*DQ  =         0.000000
siesta: Emadel  =         0.000000
siesta: Emeta   =         0.000000
siesta: Emolmec =         0.000000
siesta: Ekinion =         0.000000
siesta: Eharris =    -11479.402444
siesta: Etot    =    -11805.499053
siesta: FreeEng =    -11805.499053

siesta: iscf   Eharris(eV)      E_KS(eV)   FreeEng(eV)   dDmax  Ef(eV)
siesta:    1   -11479.4024   -11805.4991   -11805.4991  6.3209 -7.2934
timer: Routine,Calls,Time,% = IterSCF        1    5367.910  99.78
elaps: Routine,Calls,Wall,% = IterSCF        1     467.878  99.78
siesta:    2   -17766.0963   -10641.8293   -10641.8574 14.3211 -7.1144
siesta:    3   -11433.2795   -11633.1703   -11633.1718  2.8811 -5.5512
siesta:    4   -11388.0373   -11500.4589   -11500.4874  1.2942 -4.8125
siesta:    5   -11336.0526   -11432.5328   -11432.5750  0.9770 -4.2288
siesta:    6   -11328.7095   -11375.9797   -11376.0145  0.7715 -4.0006
siesta:    7   -11324.0490   -11337.1697   -11337.1958  0.8191 -4.1132
siesta:    8   -11320.1340   -11332.2610   -11332.3515  0.7863 -3.9902
siesta:    9   -11319.1093   -11329.7257   -11329.7501  0.7554 -3.9612
siesta:   10   -11317.9391   -11306.4599   -11306.4838  0.4502 -3.9349
siesta:   11   -11318.2978   -11301.6984   -11301.7469  0.4044 -4.0130
siesta:   12   -11316.5044   -11297.5154   -11297.5663  0.2209 -3.9269
siesta:   13   -11316.4954   -11293.3465   -11293.3829  0.1536 -3.9170
siesta:   14   -11316.1500   -11296.1507   -11296.2132  0.1352 -3.9327
siesta:   15   -11315.9098   -11298.2900   -11298.3549  0.1255 -3.9361
siesta:   16   -11315.4643   -11301.1996   -11301.2830  0.0984 -3.9671
siesta:   17   -11315.4436   -11303.1290   -11303.1872  0.0916 -3.9736
siesta:   18   -11315.4750   -11306.9549   -11307.0119  0.1158 -3.9746
siesta:   19   -11315.4016   -11309.9293   -11309.9820  0.0764 -3.9700
siesta:   20   -11315.3367   -11311.6872   -11311.7399  0.0500 -3.9647
siesta:   21   -11315.3234   -11312.2006   -11312.2544  0.0489 -3.9648
siesta:   22   -11315.2984   -11315.3286   -11315.3833  0.0376 -3.9713
siesta:   23   -11315.2957   -11316.3765   -11316.4323  0.0361 -3.9743
siesta:   24   -11315.2949   -11317.0024   -11317.0583  0.0356 -3.9745
siesta:   25   -11315.2969   -11317.5425   -11317.5981  0.0234 -3.9712
siesta:   26   -11315.2980   -11317.1591   -11317.2140  0.0164 -3.9686
siesta:   27   -11315.2973   -11316.8379   -11316.8928  0.0139 -3.9681
siesta:   28   -11315.2944   -11316.8070   -11316.8617  0.0109 -3.9680
siesta:   29   -11315.2918   -11316.1983   -11316.2528  0.0063 -3.9665
siesta:   30   -11315.2915   -11316.0288   -11316.0843  0.0042 -3.9660
siesta:   31   -11315.2914   -11315.6558   -11315.7116  0.0026 -3.9650
siesta:   32   -11315.2914   -11315.5520   -11315.6076  0.0012 -3.9646
siesta:   33   -11315.2914   -11315.5376   -11315.5933  0.0010 -3.9644
siesta:   34   -11315.2914   -11315.4916   -11315.5472  0.0008 -3.9644
siesta:   35   -11315.2914   -11315.4071   -11315.4628  0.0006 -3.9646
siesta:   36   -11315.2914   -11315.3107   -11315.3663  0.0004 -3.9649
siesta:   37   -11315.2914   -11315.2852   -11315.3408  0.0002 -3.9650
siesta:   38   -11315.2914   -11315.2825   -11315.3381  0.0002 -3.9650
siesta:   39   -11315.2914   -11315.2823   -11315.3379  0.0001 -3.9650
siesta:   40   -11315.2914   -11315.2851   -11315.3407  0.0001 -3.9651

siesta: E_KS(eV) =           -11315.2863

siesta: E_KS - E_eggbox =    -11315.2863

siesta: Atomic forces (eV/Ang):
----------------------------------------
   Tot   -0.120812   -0.086321    0.000000
----------------------------------------
   Max  565.763839
   Res  161.414914    sqrt( Sum f_i^2 / 3N )
----------------------------------------
   Max  565.763839    constrained

Stress-tensor-Voigt (kbar):     -699.05    -2824.75       -0.15        0.02        0.00        0.00
(Free)E + p*V (eV/cell)    -9927.3214
Target enthalpy (eV/cell)   -11315.3419

siesta: Stress tensor (static) (eV/Ang**3):
        -0.436305    0.000011    0.000000
         0.000011   -1.763054    0.000000
         0.000000    0.000000   -0.000093

siesta: Pressure (static):       1174.64949621  kBar

siesta: Stress tensor (total) (eV/Ang**3):
        -0.436305    0.000011    0.000000
         0.000011   -1.763054    0.000000
         0.000000    0.000000   -0.000093

siesta: Pressure (total):       1174.64949621  kBar

siesta: Temp_ion =       0.000 K

* Maximum dynamic memory allocated =   151 MB
Computing bands...

siesta: Program's energy decomposition (eV):
siesta: Ebs     =     -4787.285959
siesta: Eions   =     19688.985824
siesta: Ena     =      4792.970589
siesta: Ekin    =      9998.534497
siesta: Enl     =     -1247.063280
siesta: DEna    =      -746.430130
siesta: DUscf   =       101.220443
siesta: DUext   =         0.000000
siesta: Exc     =     -4525.532628
siesta: eta*DQ  =         0.000000
siesta: Emadel  =         0.000000
siesta: Emeta   =         0.000000
siesta: Emolmec =         0.000000
siesta: Ekinion =         0.000000
siesta: Eharris =    -11315.291369
siesta: Etot    =    -11315.286334
siesta: FreeEng =    -11315.341914

siesta: Final energy (eV):
siesta:  Band Struct. =   -4787.285959
siesta:       Kinetic =    9998.534497
siesta:       Hartree =   32534.924658
siesta:    Ext. field =       0.000000
siesta:   Exch.-corr. =   -4525.532628
siesta:  Ion-electron =  -74720.725857
siesta:       Ion-ion =   25397.512996
siesta:       Ekinion =       0.000000
siesta:         Total =  -11315.286334

siesta: Atomic forces (eV/Ang):
siesta:      1    0.521961   -2.403854    0.000000
siesta:      2    0.179364   -0.633584    0.000000
siesta:      3    0.180769    0.641135    0.000000
siesta:      4   -0.502003   -1.290598    0.000000
siesta:      5   -0.898360   -1.191767    0.000000
siesta:      6   -0.906786    1.202973    0.000000
siesta:      7    0.527492    2.392297    0.000000
siesta:      8   -0.498436    1.279410    0.000000
siesta:      9   -0.358514  545.337038    0.000000
siesta:     10   -0.374295 -127.168482    0.000000
siesta:     11    1.443967  127.393124    0.000000
siesta:     12  -16.237079 -549.536528    0.000000
siesta:     13   -1.364420  126.460801    0.000000
siesta:     14   15.513168 -548.432869    0.000000
siesta:     15   26.478834    6.741223    0.000000
siesta:     16   34.059709 -549.855188    0.000000
siesta:     17    2.590402    0.130540    0.000000
siesta:     18   -2.517005    1.532872    0.000000
siesta:     19    1.979419    2.109306    0.000000
siesta:     20   -1.337561    0.496311    0.000000
siesta:     21  -26.563731    6.943425    0.000000
siesta:     22  -34.196996 -549.968243    0.000000
siesta:     23   15.521770  548.419588    0.000000
siesta:     24   -1.355654 -126.455514    0.000000
siesta:     25   34.068726  549.849015    0.000000
siesta:     26   26.478775   -6.759951    0.000000
siesta:     27   -2.513186   -1.529541    0.000000
siesta:     28    2.575136   -0.134795    0.000000
siesta:     29   -1.337472   -0.495498    0.000000
siesta:     30    1.975877   -2.113087    0.000000
siesta:     31   -0.266606    7.235158    0.000000
siesta:     32   -0.271975   -7.232685    0.000000
siesta:     33  -16.246035  549.536966    0.000000
siesta:     34    1.447890 -127.396315    0.000000
siesta:     35   -0.178549  542.240947    0.000000
siesta:     36   -0.203334 -126.775918    0.000000
siesta:     37   20.719673  558.244623    0.000000
siesta:     38   22.739878   -6.374207    0.000000
siesta:     39   -2.190102    3.631934    0.000000
siesta:     40   -0.473084   -0.894996    0.000000
siesta:     41   -0.327102    0.993642    0.000000
siesta:     42   -0.337703   -0.988837    0.000000
siesta:     43  -34.189937  549.984885    0.000000
siesta:     44  -26.585961   -6.929149    0.000000
siesta:     45  -19.121662  558.796107    0.000000
siesta:     46  -23.685551   -4.942626    0.000000
siesta:     47    0.558344  565.763011    0.000000
siesta:     48    2.801865   -1.671471    0.000000
siesta:     49   -2.240576    0.446677    0.000000
siesta:     50    2.531537    3.190109    0.000000
siesta:     51    0.908235   -0.980612    0.000000
siesta:     52   -1.399050   -1.538237    0.000000
siesta:     53    1.024426    1.089946    0.000000
siesta:     54    1.018074   -1.093933    0.000000
siesta:     55    0.349037    6.368668    0.000000
siesta:     56    0.345978   -6.369695    0.000000
siesta:     57   -1.391827    1.537746    0.000000
siesta:     58    0.908558    0.979773    0.000000
siesta:     59   -0.475225    0.904994    0.000000
siesta:     60   -2.201898   -3.629607    0.000000
siesta:     61    0.562695 -565.763839    0.000000
siesta:     62    2.530987   -3.189276    0.000000
siesta:     63   22.755782    6.374085    0.000000
siesta:     64   20.703121 -558.256223    0.000000
siesta:     65  -23.675790    4.941981    0.000000
siesta:     66  -19.113382 -558.797061    0.000000
siesta:     67   -2.230020   -0.446070    0.000000
siesta:     68    2.806234    1.679669    0.000000
siesta:     69   -0.231111  126.743909    0.000000
siesta:     70   -0.195191 -542.267066    0.000000
siesta:     71   -0.387766  127.142714    0.000000
siesta:     72   -0.347560 -545.335603    0.000000
siesta: ----------------------------------------
siesta:    Tot   -0.120812   -0.086321    0.000000

siesta: Stress tensor (static) (eV/Ang**3):
siesta:    -0.436305    0.000011    0.000000
siesta:     0.000011   -1.763054    0.000000
siesta:     0.000000    0.000000   -0.000093

siesta: Cell volume =       1893.226884 Ang**3

siesta: Pressure (static):
siesta:                Solid            Molecule  Units
siesta:           0.00798495          0.12570435  Ry/Bohr**3
siesta:           0.73315062         11.54174583  eV/Ang**3
siesta:        1174.64949621      18492.11537131  kBar
(Free)E+ p_basis*V_orbitals  =      -11285.748004
(Free)Eharris+ p_basis*V_orbitals  =      -11285.754287

siesta: Electric dipole (a.u.)  =    0.000000    0.000000    0.000000
siesta: Electric dipole (Debye) =    0.000000    0.000000    0.000000

* Maximum dynamic memory allocated : Node    0 =   151 MB
* Maximum dynamic memory allocated : Node    1 =    60 MB
* Maximum dynamic memory allocated : Node    2 =    61 MB
* Maximum dynamic memory allocated : Node    3 =   136 MB
* Maximum dynamic memory allocated : Node    4 =   148 MB
* Maximum dynamic memory allocated : Node    5 =    54 MB
* Maximum dynamic memory allocated : Node    6 =    55 MB
* Maximum dynamic memory allocated : Node    7 =   142 MB
* Maximum dynamic memory allocated : Node    8 =   130 MB
* Maximum dynamic memory allocated : Node    9 =    53 MB
* Maximum dynamic memory allocated : Node   10 =    53 MB
* Maximum dynamic memory allocated : Node   11 =   124 MB

* Maximum memory occured during matrixMtoO                    

timer: CPU execution times:
timer:  Routine       Calls   Time/call    Tot.time        %
timer:  siesta            1  212483.110  212483.110   100.00
timer:  Setup             1       3.164       3.164     0.00
timer:  bands             3     419.852    1259.557     0.59
timer:  writewave         1       0.022       0.022     0.00
timer:  KSV_init          1       0.006       0.006     0.00
timer:  IterMD            1  211212.608  211212.608    99.40
timer:  hsparse           1       0.171       0.171     0.00
timer:  overlap           1       5.974       5.974     0.00
timer:  IterSCF          40    5276.776  211071.053    99.34
timer:  kinefsm           2       3.038       6.075     0.00
timer:  nlefsm            2      18.630      37.260     0.02
timer:  DHSCF            41      69.788    2861.315     1.35
timer:  DHSCF1            1       0.904       0.904     0.00
timer:  DHSCF2            1      27.254      27.254     0.01
timer:  REORD           330       0.002       0.734     0.00
timer:  POISON           42       0.619      26.011     0.01
timer:  DHSCF3           41      68.542    2810.218     1.32
timer:  rhoofd           41      13.121     537.941     0.25
timer:  cellXC           41       2.856     117.088     0.06
timer:  vmat             41      32.817    1345.509     0.63
timer:  MolMec            2       0.000       0.000     0.00
timer:  diagon           40    5205.048  208201.922    97.99
timer:  c-eigval       9361      10.373   97098.729    45.70
timer:  c-buildHS      9361       0.031     293.243     0.14
timer:  cdiag         18601      10.632  197774.505    93.08
timer:  cdiag1        18601       0.475    8840.218     4.16
timer:  cdiag2        18601       3.385   62964.018    29.63
timer:  cdiag3        18601       6.319  117533.661    55.31
timer:  cdiag4        18601       0.166    3094.134     1.46
timer:  c-eigvec       9240      10.955  101221.878    47.64
timer:  c-buildD       9240       1.200   11090.197     5.22
timer:  DHSCF4            1      22.688      22.688     0.01
timer:  dfscf             1      21.242      21.242     0.01
timer:  overfsm           1       0.287       0.287     0.00
timer:  optical           1       7.117       7.117     0.00
  

elaps: ELAPSED times:
elaps:  Routine       Calls   Time/call    Tot.time        %
elaps:  siesta            1   18519.880   18519.880   100.00
elaps:  Setup             1       0.280       0.280     0.00
elaps:  bands             3      36.624     109.871     0.59
elaps:  writewave         1       0.002       0.002     0.00
elaps:  KSV_init          1       0.000       0.000     0.00
elaps:  IterMD            1   18409.139   18409.139    99.40
elaps:  hsparse           1       0.016       0.016     0.00
elaps:  overlap           1       0.711       0.711     0.00
elaps:  IterSCF          40     459.920   18396.802    99.34
elaps:  kinefsm           2       0.363       0.727     0.00
elaps:  nlefsm            2       1.633       3.266     0.02
elaps:  DHSCF            41       6.151     252.194     1.36
elaps:  DHSCF1            1       0.077       0.077     0.00
elaps:  DHSCF2            1       2.381       2.381     0.01
elaps:  REORD           330       0.000       0.093     0.00
elaps:  POISON           42       0.055       2.329     0.01
elaps:  DHSCF3           41       5.973     244.906     1.32
elaps:  rhoofd           41       2.613     107.118     0.58
elaps:  cellXC           41       0.248      10.184     0.05
elaps:  vmat             41       2.860     117.274     0.63
elaps:  MolMec            2       0.000       0.000     0.00
elaps:  diagon           40     453.680   18147.212    97.99
elaps:  c-eigval       9361       0.904    8463.150    45.70
elaps:  c-buildHS      9361       0.003      32.122     0.17
elaps:  cdiag         18601       0.922   17147.029    92.59
elaps:  cdiag1        18601       0.041     761.117     4.11
elaps:  cdiag2        18601       0.296    5496.896    29.68
elaps:  cdiag3        18601       0.552   10267.355    55.44
elaps:  cdiag4        18601       0.014     254.211     1.37
elaps:  c-eigvec       9240       0.947    8747.037    47.23
elaps:  c-buildD       9240       0.113    1040.753     5.62
elaps:  DHSCF4            1       4.789       4.789     0.03
elaps:  dfscf             1       4.597       4.597     0.02
elaps:  overfsm           1       0.031       0.031     0.00
elaps:  optical           1       0.000       0.000     0.00
  
>> End of run:   7-MAY-2016   6:47:06
