Siesta Version:                                        siesta-3.2-pl-3
Architecture  : x86_64-unknown-linux-gnu--unknown
Compiler flags: mpiifort -g -O2 -fPIC -xSSE4.1 -fp-model source -shared-intel 
PARALLEL version

* Running on    8 nodes in parallel
>> Start of run:  25-APR-2016   0:08:04

                           ***********************       
                           *  WELCOME TO SIESTA  *       
                           ***********************       

reinit: Reading from standard input
************************** Dump of input data file ****************************
#(1) General system descriptors
SystemName            GRP_doping    # Descriptive name of the system
SystemLabel           GRP_doping    # Short name for naming files
%include STRUCT.fdf
%include KPT.fdf
%include BASIS.fdf
#%include TS.fdf # for transiesta calculation
#(4) DFT, Grid, SCF
XC.functional         GGA           # LDA or GGA (default = LDA)
XC.authors            PBE           # CA (Ceperley-Aldr) = PZ
                                    #    (Perdew-Zunger) - LDA - Default
                                    # PW92 (Perdew-Wang-92) - LDA
                                    # PBE (Perdew-Burke-Ernzerhof) - GGA
MeshCutoff            200.000000    Ry      # Default: 50.0 Ry ~ 0.444 Bohr
                                    #         100.0 Ry ~ 0.314 Bohr
MaxSCFIterations      500           # Default: 50
DM.MixingWeight       0.05          # Default: 0.25
DM.NumberPulay        10            # Default: 0
DM.PulayOnFile        F             # SystemLabel.P1, SystemLabel.P2
DM.Tolerance          1.d-4         # Default: 1.d-4
DM.UseSaveDM          .true.        # because of the bug
SCFMustConverge       .true.
NeglNonOverlapInt     F             # Default: F
#(5) Eigenvalue problem: order-N or diagonalization
SolutionMethod        Diagon        # or Transiesta
ElectronicTemperature 300.0 K       # Default: 300.0 K
#(6) Molecular dynamics and relaxations
#MD.TypeOfRun          CG            # Type of dynamics:
#MD.VariableCell       F
#MD.NumCGsteps         0           # 0 for single-point / 100 for gopt
#MD.MaxCGDispl         0.2 Bohr      # Default: 0.2 Bohr
#MD.MaxForceTol        0.02 eV/Ang   # Default: 0.04 eV/Ang
#MD.MaxStressTol       1.0 GPa       # Default: 1.0 GPa
# Geometry Constraints
#%block GeometryConstraints
#	position from 1 to 44
#%endblock GeometryConstraints
BandLinesScale   pi/a
%block BandLines
 1   0.00000000  0.00000000  0.00000000
50   0.00000000  0.07809418  0.00000000
50   0.04509075  0.07809242  0.00000000
20   0.00000000  0.00000000  0.00000000
%endblock BandLines
************************** End of input data file *****************************

reinit: -----------------------------------------------------------------------
reinit: System Name: GRP_doping
reinit: -----------------------------------------------------------------------
reinit: System Label: GRP_doping                                                  
reinit: -----------------------------------------------------------------------

initatom: Reading input for the pseudopotentials and atomic orbitals ----------
 Species number:            1  Label: B Atomic number:           5
 Species number:            2  Label: C Atomic number:           6
Ground state valence configuration:   2s02  2p01
Reading pseudopotential information in formatted form from B.psf

Valence configuration for pseudopotential generation:
2s( 2.00) rc: 1.74
2p( 1.00) rc: 1.74
3d( 0.00) rc: 1.74
4f( 0.00) rc: 1.74
Ground state valence configuration:   2s02  2p02
Reading pseudopotential information in formatted form from C.psf

Valence configuration for pseudopotential generation:
2s( 2.00) rc: 1.54
2p( 2.00) rc: 1.54
3d( 0.00) rc: 1.54
4f( 0.00) rc: 1.54
For B, standard SIESTA heuristics set lmxkb to 3
 (one more than the basis l, including polarization orbitals).
Use PS.lmax or PS.KBprojectors blocks to override.
For C, standard SIESTA heuristics set lmxkb to 3
 (one more than the basis l, including polarization orbitals).
Use PS.lmax or PS.KBprojectors blocks to override.

<basis_specs>
===============================================================================
B                    Z=   5    Mass=  10.810        Charge= 0.17977+309
Lmxo=1 Lmxkb= 3    BasisType=split      Semic=F
L=0  Nsemic=0  Cnfigmx=2
          n=1  nzeta=2  polorb=0
            splnorm:   0.15000    
               vcte:    0.0000    
               rinn:    0.0000    
                rcs:    0.0000      0.0000    
            lambdas:    1.0000      1.0000    
L=1  Nsemic=0  Cnfigmx=2
          n=1  nzeta=2  polorb=1
            splnorm:   0.15000    
               vcte:    0.0000    
               rinn:    0.0000    
                rcs:    0.0000      0.0000    
            lambdas:    1.0000      1.0000    
-------------------------------------------------------------------------------
L=0  Nkbl=1  erefs: 0.17977+309
L=1  Nkbl=1  erefs: 0.17977+309
L=2  Nkbl=1  erefs: 0.17977+309
L=3  Nkbl=1  erefs: 0.17977+309
===============================================================================
</basis_specs>

atom: Called for B                     (Z =   5)

read_vps: Pseudopotential generation method:
read_vps: ATM3      Troullier-Martins                       
Total valence charge:    3.00000

read_vps: Pseudopotential includes a core correction:
read_vps: Pseudo-core for xc-correction

xc_check: Exchange-correlation functional:
xc_check: GGA Perdew, Burke & Ernzerhof 1996
V l=0 = -2*Zval/r beyond r=  1.7165
V l=1 = -2*Zval/r beyond r=  1.7165
V l=2 = -2*Zval/r beyond r=  1.7165
V l=3 = -2*Zval/r beyond r=  1.6951
All V_l potentials equal beyond r=  1.7165
This should be close to max(r_c) in ps generation
All pots = -2*Zval/r beyond r=  1.7165

VLOCAL1: 99.0% of the norm of Vloc inside     14.733 Ry
VLOCAL1: 99.9% of the norm of Vloc inside     33.577 Ry
atom: Maximum radius for 4*pi*r*r*local-pseudopot. charge    2.04484
atom: Maximum radius for r*vlocal+2*Zval:    1.75994
GHOST: No ghost state for L =  0
GHOST: No ghost state for L =  1
GHOST: No ghost state for L =  2
GHOST: No ghost state for L =  3

KBgen: Kleinman-Bylander projectors: 
   l= 0   rc=  1.897051   el= -0.693730   Ekb=  4.595746   kbcos=  0.286105
   l= 1   rc=  1.920920   el= -0.265236   Ekb= -2.350715   kbcos= -0.315747
   l= 2   rc=  2.044840   el=  0.002055   Ekb= -0.690767   kbcos= -0.013822
   l= 3   rc=  2.149707   el=  0.003188   Ekb= -0.315358   kbcos= -0.002055

KBgen: Total number of  Kleinman-Bylander projectors:   16
atom: -------------------------------------------------------------------------

atom: SANKEY-TYPE ORBITALS:
atom: Selected multiple-zeta basis: split     

SPLIT: Orbitals with angular momentum L= 0

SPLIT: Basis orbitals for state 2s

SPLIT: PAO cut-off radius determined from an
SPLIT: energy shift=  0.007350 Ry

   izeta = 1
                 lambda =    1.000000
                     rc =    5.422032
                 energy =   -0.686029
                kinetic =    0.576707
    potential(screened) =   -1.262736
       potential(ionic) =   -3.271094

   izeta = 2
                 rmatch =    4.222573
              splitnorm =    0.150000
                 energy =   -0.602132
                kinetic =    0.858975
    potential(screened) =   -1.461107
       potential(ionic) =   -3.582536

SPLIT: Orbitals with angular momentum L= 1

SPLIT: Basis orbitals for state 2p

SPLIT: PAO cut-off radius determined from an
SPLIT: energy shift=  0.007350 Ry

   izeta = 1
                 lambda =    1.000000
                     rc =    6.790259
                 energy =   -0.258578
                kinetic =    1.481412
    potential(screened) =   -1.739989
       potential(ionic) =   -3.657461

   izeta = 2
                 rmatch =    4.608740
              splitnorm =    0.150000
                 energy =   -0.173757
                kinetic =    2.186690
    potential(screened) =   -2.360447
       potential(ionic) =   -4.464260

POLgen: Perturbative polarization orbital with L=  2

POLgen: Polarization orbital for state 2p

   izeta = 1
                     rc =    6.790259
                 energy =    0.684082
                kinetic =    1.471481
    potential(screened) =   -0.787399
       potential(ionic) =   -2.406985
atom: Total number of Sankey-type orbitals: 13

atm_pop: Valence configuration (for local Pseudopot. screening):
 2s( 2.00)                                                            
 2p( 1.00)                                                            
Vna: chval, zval:    3.00000   3.00000

Vna:  Cut-off radius for the neutral-atom potential:   6.790259
comcore: Pseudo-core radius Rcore=  2.122997

atom: _________________________________________________________________________

<basis_specs>
===============================================================================
C                    Z=   6    Mass=  12.010        Charge= 0.17977+309
Lmxo=1 Lmxkb= 3    BasisType=split      Semic=F
L=0  Nsemic=0  Cnfigmx=2
          n=1  nzeta=2  polorb=0
            splnorm:   0.15000    
               vcte:    0.0000    
               rinn:    0.0000    
                rcs:    0.0000      0.0000    
            lambdas:    1.0000      1.0000    
L=1  Nsemic=0  Cnfigmx=2
          n=1  nzeta=2  polorb=1
            splnorm:   0.15000    
               vcte:    0.0000    
               rinn:    0.0000    
                rcs:    0.0000      0.0000    
            lambdas:    1.0000      1.0000    
-------------------------------------------------------------------------------
L=0  Nkbl=1  erefs: 0.17977+309
L=1  Nkbl=1  erefs: 0.17977+309
L=2  Nkbl=1  erefs: 0.17977+309
L=3  Nkbl=1  erefs: 0.17977+309
===============================================================================
</basis_specs>

atom: Called for C                     (Z =   6)

read_vps: Pseudopotential generation method:
read_vps: ATM3      Troullier-Martins                       
Total valence charge:    4.00000

read_vps: Pseudopotential includes a core correction:
read_vps: Pseudo-core for xc-correction

xc_check: Exchange-correlation functional:
xc_check: GGA Perdew, Burke & Ernzerhof 1996
V l=0 = -2*Zval/r beyond r=  1.5227
V l=1 = -2*Zval/r beyond r=  1.5227
V l=2 = -2*Zval/r beyond r=  1.5227
V l=3 = -2*Zval/r beyond r=  1.5038
All V_l potentials equal beyond r=  1.5227
This should be close to max(r_c) in ps generation
All pots = -2*Zval/r beyond r=  1.5227

VLOCAL1: 99.0% of the norm of Vloc inside     18.722 Ry
VLOCAL1: 99.9% of the norm of Vloc inside     42.668 Ry
atom: Maximum radius for 4*pi*r*r*local-pseudopot. charge    1.83678
atom: Maximum radius for r*vlocal+2*Zval:    1.58088
GHOST: No ghost state for L =  0
GHOST: No ghost state for L =  1
GHOST: No ghost state for L =  2
GHOST: No ghost state for L =  3

KBgen: Kleinman-Bylander projectors: 
   l= 0   rc=  1.704034   el= -1.009801   Ekb=  5.335044   kbcos=  0.316824
   l= 1   rc=  1.704034   el= -0.388707   Ekb= -3.785862   kbcos= -0.366464
   l= 2   rc=  1.791422   el=  0.001971   Ekb= -0.970471   kbcos= -0.009212
   l= 3   rc=  1.859892   el=  0.003065   Ekb= -0.399525   kbcos= -0.001223

KBgen: Total number of  Kleinman-Bylander projectors:   16
atom: -------------------------------------------------------------------------

atom: SANKEY-TYPE ORBITALS:
atom: Selected multiple-zeta basis: split     

SPLIT: Orbitals with angular momentum L= 0

SPLIT: Basis orbitals for state 2s

SPLIT: PAO cut-off radius determined from an
SPLIT: energy shift=  0.007350 Ry

   izeta = 1
                 lambda =    1.000000
                     rc =    4.632753
                 energy =   -1.002270
                kinetic =    0.855760
    potential(screened) =   -1.858031
       potential(ionic) =   -5.417575

   izeta = 2
                 rmatch =    3.431921
              splitnorm =    0.150000
                 energy =   -0.867111
                kinetic =    1.300804
    potential(screened) =   -2.167915
       potential(ionic) =   -5.962684

SPLIT: Orbitals with angular momentum L= 1

SPLIT: Basis orbitals for state 2p

SPLIT: PAO cut-off radius determined from an
SPLIT: energy shift=  0.007350 Ry

   izeta = 1
                 lambda =    1.000000
                     rc =    5.658549
                 energy =   -0.381140
                kinetic =    2.399701
    potential(screened) =   -2.780841
       potential(ionic) =   -6.206085

   izeta = 2
                 rmatch =    3.653288
              splitnorm =    0.150000
                 energy =   -0.249149
                kinetic =    3.542762
    potential(screened) =   -3.791911
       potential(ionic) =   -7.581078

POLgen: Perturbative polarization orbital with L=  2

POLgen: Polarization orbital for state 2p

   izeta = 1
                     rc =    5.658549
                 energy =    1.109913
                kinetic =    2.304789
    potential(screened) =   -1.194876
       potential(ionic) =   -4.013592
atom: Total number of Sankey-type orbitals: 13

atm_pop: Valence configuration (for local Pseudopot. screening):
 2s( 2.00)                                                            
 2p( 2.00)                                                            
Vna: chval, zval:    4.00000   4.00000

Vna:  Cut-off radius for the neutral-atom potential:   5.658549
comcore: Pseudo-core radius Rcore=  1.791422

atom: _________________________________________________________________________

prinput: Basis input ----------------------------------------------------------

PAO.BasisType split     

%block ChemicalSpeciesLabel
    1    5 B                       # Species index, atomic number, species label
    2    6 C                       # Species index, atomic number, species label
%endblock ChemicalSpeciesLabel

%block PAO.Basis                 # Define Basis set
B                     2                    # Species label, number of l-shells
 n=2   0   2                         # n, l, Nzeta 
   5.422      4.223   
   1.000      1.000   
 n=2   1   2 P   1                   # n, l, Nzeta, Polarization, NzetaPol
   6.790      4.609   
   1.000      1.000   
C                     2                    # Species label, number of l-shells
 n=2   0   2                         # n, l, Nzeta 
   4.633      3.432   
   1.000      1.000   
 n=2   1   2 P   1                   # n, l, Nzeta, Polarization, NzetaPol
   5.659      3.653   
   1.000      1.000   
%endblock PAO.Basis

prinput: ----------------------------------------------------------------------

coor:   Atomic-coordinates input format  =     Fractional

siesta: Atomic coordinates (Bohr) and species
siesta:      4.63094  34.85847   0.00000  1        1
siesta:      4.63094  37.54693   0.00000  1        2
siesta:      6.95932  30.82560   0.00000  1        3
siesta:      6.95932  33.51406   0.00000  1        4
siesta:      9.28770  26.79272   0.00000  1        5
siesta:      9.28770  29.48119   0.00000  1        6
siesta:     11.61608  22.75985   0.00000  1        7
siesta:     11.61608  25.44831   0.00000  1        8
siesta:     -0.02582  13.34970   0.00000  1        9
siesta:      2.30256  14.69411   0.00000  1       10
siesta:      2.30256  17.38257   0.00000  1       11
siesta:      4.63094  18.72698   0.00000  1       12
siesta:      4.63094  21.41544   0.00000  1       13
siesta:      6.95932  22.75985   0.00000  1       14
siesta:      6.95932  25.44831   0.00000  1       15
siesta:     -4.68258  21.41544   0.00000  1       16
siesta:     -2.35420  22.75985   0.00000  1       17
siesta:     -2.35420  25.44831   0.00000  1       18
siesta:     -0.02582  26.79272   0.00000  1       19
siesta:     -0.02582  29.48119   0.00000  1       20
siesta:      2.30256  30.82560   0.00000  1       21
siesta:      2.30256  33.51406   0.00000  1       22
siesta:     -0.02582   2.59549   0.00000  2       23
siesta:     -0.02582   5.28395   0.00000  2       24
siesta:     -2.35420  38.89134   0.00000  2       25
siesta:     -2.35420  41.57980   0.00000  2       26
siesta:      2.30256  38.89134   0.00000  2       27
siesta:      2.30256  41.57980   0.00000  2       28
siesta:     -4.68258  34.85847   0.00000  2       29
siesta:     -4.68258  37.54693   0.00000  2       30
siesta:      2.30256   6.62836   0.00000  2       31
siesta:      2.30256   9.31683   0.00000  2       32
siesta:      4.63094  10.66124   0.00000  2       33
siesta:      4.63094  13.34970   0.00000  2       34
siesta:      6.95932  14.69411   0.00000  2       35
siesta:      6.95932  17.38257   0.00000  2       36
siesta:      9.28770  18.72698   0.00000  2       37
siesta:      9.28770  21.41544   0.00000  2       38
siesta:     -2.35420   6.62836   0.00000  2       39
siesta:     -2.35420   9.31683   0.00000  2       40
siesta:     -0.02582  10.66124   0.00000  2       41
siesta:     -4.68258  10.66124   0.00000  2       42
siesta:     -4.68258  13.34970   0.00000  2       43
siesta:     -2.35420  14.69411   0.00000  2       44
siesta:     -2.35420  17.38257   0.00000  2       45
siesta:     -0.02582  18.72698   0.00000  2       46
siesta:     -0.02582  21.41544   0.00000  2       47
siesta:      2.30256  22.75985   0.00000  2       48
siesta:      2.30256  25.44831   0.00000  2       49
siesta:     -7.01096  14.69411   0.00000  2       50
siesta:     -7.01096  17.38257   0.00000  2       51
siesta:     -4.68258  18.72698   0.00000  2       52
siesta:     -9.33934  18.72698   0.00000  2       53
siesta:     -9.33934  21.41544   0.00000  2       54
siesta:     -7.01096  22.75985   0.00000  2       55
siesta:     -7.01096  25.44831   0.00000  2       56
siesta:    -11.66772  22.75985   0.00000  2       57
siesta:    -11.66772  25.44831   0.00000  2       58
siesta:     -9.33934  26.79272   0.00000  2       59
siesta:     -9.33934  29.48119   0.00000  2       60
siesta:      4.63094  26.79272   0.00000  2       61
siesta:      4.63094  29.48119   0.00000  2       62
siesta:     -4.68258  26.79272   0.00000  2       63
siesta:     -4.68258  29.48119   0.00000  2       64
siesta:     -2.35420  30.82560   0.00000  2       65
siesta:     -2.35420  33.51406   0.00000  2       66
siesta:     -7.01096  30.82560   0.00000  2       67
siesta:     -7.01096  33.51406   0.00000  2       68
siesta:     -0.02582  34.85847   0.00000  2       69
siesta:     -0.02582  37.54693   0.00000  2       70
siesta:     -0.02582  42.92421   0.00000  2       71
siesta:     -0.02582  45.61267   0.00000  2       72

siesta: System type = slab      

initatomlists: Number of atoms, orbitals, and projectors:     72   936  1152

siesta: ******************** Simulation parameters ****************************
siesta:
siesta: The following are some of the parameters of the simulation.
siesta: A complete list of the parameters used, including default values,
siesta: can be found in file out.fdf
siesta:
redata: Non-Collinear-spin run           =     F
redata: SpinPolarized (Up/Down) run      =     F
redata: Number of spin components        =     1
redata: Long output                      =     F
redata: Number of Atomic Species         =        2
redata: Charge density info will appear in .RHO file
redata: Write Mulliken Pop.              =     NO
redata: Mesh Cutoff                      =   200.0000  Ry
redata: Net charge of the system         =     0.0000 |e|
redata: Max. number of SCF Iter          =      500
redata: SCF convergence failure will abort job
redata: Performing Pulay mixing using    =    10 iterations
redata: Mix DM in first SCF step ?       =     F
redata: Write Pulay info on disk?        =     F
redata: Discard 1st Pulay DM after  kick =     F
redata: New DM Mixing Weight             =     0.0500
redata: New DM Occupancy tolerance       = 0.000000000001
redata: No kicks to SCF
redata: DM Mixing Weight for Kicks       =     0.5000
redata: DM Tolerance for SCF             =     0.000100
redata: Require Energy convergence for SCF =     F
redata: DM Energy tolerance for SCF      =     0.000100 eV
redata: Require Harris convergence for SCF =     F
redata: DM Harris energy tolerance for SCF =     0.000100 eV
redata: Using Saved Data (generic)   =     F
redata: Use continuation files for DM    =     T
redata: Neglect nonoverlap interactions  =     F
redata: Method of Calculation            =     Diagonalization
redata: Divide and Conquer               =     T
redata: Electronic Temperature           =     0.0019  Ry
redata: Fix the spin of the system       =     F
redata: Dynamics option                  =     Verlet MD run
redata: Initial MD time step             =        1
redata:   Final MD time step             =        1
redata: Length of MD time step           =     1.0000  fs
redata: Initial Temperature of MD run    =     0.0000  K
redata: Perform a MD quench              =     F
redata: ***********************************************************************
Total number of electrons:   266.000000
Total ionic charge:   266.000000

* ProcessorY, Blocksize:    2  24

k-point displ. along   1 input, could be:     0.50    0.00
k-point displ. along   2 input, could be:     0.50    0.00
 Kpoints in:          231 . Kpoints trimmed:          231

siesta: k-grid: Number of k-points =   231
siesta: k-grid: Cutoff (effective) =     5.000 Ang
siesta: k-grid: Supercell and displacements
siesta: k-grid:   21   0   0      0.500
siesta: k-grid:    0  21   0      0.500
siesta: k-grid:    0   0   1      0.000
Naive supercell factors:     2    2    2

superc: Internal auxiliary supercell:     2 x     2 x     2  =       8
superc: Number of atoms, orbitals, and projectors:    576   7488   9216

* Maximum dynamic memory allocated =     4 MB

siesta:                 ==============================
                            Begin MD step =      1
                        ==============================

superc: Internal auxiliary supercell:     2 x     2 x     2  =       8
superc: Number of atoms, orbitals, and projectors:    576   7488   9216

outcell: Unit cell vectors (Ang):
       12.804619    7.392750    0.000000
        0.000000   14.785500    0.000000
        0.000000    0.000000   10.000000

outcell: Cell vector modules (Ang)   :   14.785500   14.785500   10.000000
outcell: Cell angles (23,13,12) (deg):     90.0000     90.0000     60.0000
outcell: Cell volume (Ang**3)        :   1893.2269
New_DM. Step:     1
Initializing Density Matrix...

InitMesh: MESH =   120 x   120 x    90 =     1296000
InitMesh: Mesh cutoff (required, used) =   200.000   223.865 Ry

* Maximum dynamic memory allocated =   225 MB

stepf: Fermi-Dirac step function

siesta: Program's energy decomposition (eV):
siesta: Ebs     =     -5498.815156
siesta: Eions   =     15585.763425
siesta: Ena     =      4188.640971
siesta: Ekin    =      5217.942150
siesta: Enl     =       821.365625
siesta: DEna    =        -0.000007
siesta: DUscf   =         0.000000
siesta: DUext   =         0.000000
siesta: Exc     =     -4204.613130
siesta: eta*DQ  =         0.000000
siesta: Emadel  =         0.000000
siesta: Emeta   =         0.000000
siesta: Emolmec =         0.000000
siesta: Ekinion =         0.000000
siesta: Eharris =     -9312.250711
siesta: Etot    =     -9562.427815
siesta: FreeEng =     -9562.427815

siesta: iscf   Eharris(eV)      E_KS(eV)   FreeEng(eV)   dDmax  Ef(eV)
siesta:    1    -9312.2507    -9562.4278    -9562.4278  6.5894 -8.5016
timer: Routine,Calls,Time,% = IterSCF        1    4750.497  99.75
elaps: Routine,Calls,Wall,% = IterSCF        1     594.625  99.75
siesta:    2   -14300.3560    -8530.7424    -8530.7633 20.4124 -3.1953
siesta:    3    -9248.8332    -9428.8955    -9428.9300  3.2521 -7.0234
siesta:    4    -9231.8740    -9301.8285    -9301.8893  1.5535 -5.5817
siesta:    5    -9187.3854    -9234.6342    -9234.6731  1.0621 -5.4988
siesta:    6    -9170.7278    -9191.7831    -9191.7843  0.8046 -5.2451
siesta:    7    -9164.3067    -9176.1640    -9176.2124  0.7235 -5.3065
siesta:    8    -9161.1930    -9167.9234    -9167.9533  0.7081 -5.2580
siesta:    9    -9158.2930    -9146.3030    -9146.3597  0.5715 -5.2087
siesta:   10    -9157.9652    -9139.8096    -9139.8445  0.5016 -5.2281
siesta:   11    -9159.6497    -9133.6236    -9133.6751  0.3375 -5.1277
siesta:   12    -9157.3978    -9131.8902    -9131.9728  0.2438 -5.1447
siesta:   13    -9157.0275    -9129.5131    -9129.5509  0.2022 -5.1452
siesta:   14    -9156.4415    -9131.0016    -9131.0215  0.1755 -5.1450
siesta:   15    -9155.8587    -9134.9850    -9135.0266  0.3386 -5.1112
siesta:   16    -9155.6140    -9137.8807    -9137.9327  0.1532 -5.1464
siesta:   17    -9155.4448    -9143.6809    -9143.7271  0.0825 -5.1580
siesta:   18    -9155.3546    -9146.7214    -9146.7750  0.0651 -5.2048
siesta:   19    -9155.3032    -9149.0165    -9149.0577  0.0464 -5.2135
siesta:   20    -9155.2873    -9151.3039    -9151.3501  0.0417 -5.2192
siesta:   21    -9155.2858    -9153.0059    -9153.0527  0.0384 -5.2228
siesta:   22    -9155.2829    -9154.8151    -9154.8592  0.0289 -5.2103
siesta:   23    -9155.2786    -9155.1118    -9155.1554  0.0210 -5.2076
siesta:   24    -9155.2756    -9155.5476    -9155.5916  0.0133 -5.2088
siesta:   25    -9155.2739    -9155.6751    -9155.7186  0.0090 -5.2075
siesta:   26    -9155.2733    -9155.7096    -9155.7535  0.0062 -5.2077
siesta:   27    -9155.2733    -9155.6379    -9155.6818  0.0039 -5.2078
siesta:   28    -9155.2732    -9155.5900    -9155.6337  0.0027 -5.2085
siesta:   29    -9155.2732    -9155.6153    -9155.6591  0.0018 -5.2095
siesta:   30    -9155.2732    -9155.4996    -9155.5434  0.0014 -5.2097
siesta:   31    -9155.2732    -9155.3775    -9155.4212  0.0010 -5.2099
siesta:   32    -9155.2732    -9155.2999    -9155.3436  0.0005 -5.2099
siesta:   33    -9155.2732    -9155.2928    -9155.3364  0.0005 -5.2100
siesta:   34    -9155.2732    -9155.2956    -9155.3393  0.0005 -5.2100
siesta:   35    -9155.2732    -9155.2992    -9155.3429  0.0005 -5.2099
siesta:   36    -9155.2732    -9155.2989    -9155.3426  0.0002 -5.2097
siesta:   37    -9155.2732    -9155.2924    -9155.3361  0.0001 -5.2097
siesta:   38    -9155.2732    -9155.2833    -9155.3270  0.0001 -5.2097

siesta: E_KS(eV) =            -9155.2813

siesta: E_KS - E_eggbox =     -9155.2813

siesta: Atomic forces (eV/Ang):
----------------------------------------
   Tot   -0.187967   -0.182305    0.000000
----------------------------------------
   Max  559.747920
   Res  144.169625    sqrt( Sum f_i^2 / 3N )
----------------------------------------
   Max  559.747920    constrained

Stress-tensor-Voigt (kbar):     -796.03    -2653.36       -0.68       -6.93        0.00        0.00
(Free)E + p*V (eV/cell)    -7796.4020
Target enthalpy (eV/cell)    -9155.3249

siesta: Stress tensor (static) (eV/Ang**3):
        -0.496840   -0.004324    0.000000
        -0.004324   -1.656081    0.000000
         0.000000    0.000000   -0.000423

siesta: Pressure (static):       1150.02490279  kBar

siesta: Stress tensor (total) (eV/Ang**3):
        -0.496840   -0.004324    0.000000
        -0.004324   -1.656081    0.000000
         0.000000    0.000000   -0.000423

siesta: Pressure (total):       1150.02490279  kBar

siesta: Temp_ion =       0.000 K

* Maximum dynamic memory allocated =   241 MB
Computing bands...

siesta: Program's energy decomposition (eV):
siesta: Ebs     =     -4104.217680
siesta: Eions   =     15585.763425
siesta: Ena     =      4188.640971
siesta: Ekin    =      8083.725899
siesta: Enl     =      -781.851723
siesta: DEna    =      -792.178998
siesta: DUscf   =       109.232546
siesta: DUext   =         0.000000
siesta: Exc     =     -4377.086536
siesta: eta*DQ  =         0.000000
siesta: Emadel  =         0.000000
siesta: Emeta   =         0.000000
siesta: Emolmec =         0.000000
siesta: Ekinion =         0.000000
siesta: Eharris =     -9155.273178
siesta: Etot    =     -9155.281265
siesta: FreeEng =     -9155.324932

siesta: Final energy (eV):
siesta:  Band Struct. =   -4104.217680
siesta:       Kinetic =    8083.725899
siesta:       Hartree =   26618.101145
siesta:    Ext. field =       0.000000
siesta:   Exch.-corr. =   -4377.086536
siesta:  Ion-electron =  -61015.560343
siesta:       Ion-ion =   21535.538570
siesta:       Ekinion =       0.000000
siesta:         Total =   -9155.281265

siesta: Atomic forces (eV/Ang):
siesta:      1   15.076312   -0.610196    0.000000
siesta:      2   24.454074 -402.041828    0.000000
siesta:      3   -1.379722    1.760380    0.000000
siesta:      4    3.894085    3.619944    0.000000
siesta:      5    4.647149    0.193181    0.000000
siesta:      6    5.312041    1.201029    0.000000
siesta:      7    1.876157   -4.993843    0.000000
siesta:      8    5.966403    4.357454    0.000000
siesta:      9   -0.161671 -105.565470    0.000000
siesta:     10   16.976196  400.097739    0.000000
siesta:     11   15.238053   -2.031753    0.000000
siesta:     12    2.511151   -3.138183    0.000000
siesta:     13   -5.772500    3.597072    0.000000
siesta:     14    4.435689   -3.690782    0.000000
siesta:     15   -4.505158    3.791828    0.000000
siesta:     16   -4.274211   -1.460033    0.000000
siesta:     17    5.545805   -3.392258    0.000000
siesta:     18   -5.177459    3.050697    0.000000
siesta:     19    3.983485   -1.953925    0.000000
siesta:     20    1.157574 -408.704456    0.000000
siesta:     21   18.719332   -1.277202    0.000000
siesta:     22   22.501344 -403.420909    0.000000
siesta:     23   -3.437398  404.895739    0.000000
siesta:     24    6.549862 -124.922924    0.000000
siesta:     25    2.737585  129.404261    0.000000
siesta:     26  -27.395415 -554.756874    0.000000
siesta:     27    7.496746  114.294073    0.000000
siesta:     28   19.413594 -405.795215    0.000000
siesta:     29  -25.888568    4.277320    0.000000
siesta:     30  -33.878738 -549.123318    0.000000
siesta:     31   15.601062  406.066256    0.000000
siesta:     32    3.548465 -120.266444    0.000000
siesta:     33   33.722290  410.148680    0.000000
siesta:     34   22.625980    4.617189    0.000000
siesta:     35   -2.334251   -2.024477    0.000000
siesta:     36    6.766988   -2.786740    0.000000
siesta:     37   -2.156300    0.714408    0.000000
siesta:     38    4.239002   -5.420448    0.000000
siesta:     39  -22.139661  551.372686    0.000000
siesta:     40    1.550016 -127.079851    0.000000
siesta:     41   -3.822117  543.143581    0.000000
siesta:     42  -33.596618  549.083535    0.000000
siesta:     43  -25.841902   -4.242605    0.000000
siesta:     44  -14.963432  550.712330    0.000000
siesta:     45  -22.669014   -7.637246    0.000000
siesta:     46    6.976400  559.747920    0.000000
siesta:     47    1.671475   -0.354257    0.000000
siesta:     48   -1.697520   -0.834022    0.000000
siesta:     49    1.466125    0.801390    0.000000
siesta:     50    2.477511   -2.303780    0.000000
siesta:     51   -2.466326   -0.354323    0.000000
siesta:     52    1.973080   -1.413389    0.000000
siesta:     53    0.626716   -0.670562    0.000000
siesta:     54   -1.827502   -1.484787    0.000000
siesta:     55   -2.354883    2.181945    0.000000
siesta:     56   -0.588987   -0.779969    0.000000
siesta:     57   -0.600554    6.165587    0.000000
siesta:     58    0.533428   -6.215638    0.000000
siesta:     59   -2.449433    1.624591    0.000000
siesta:     60    0.735059    1.018307    0.000000
siesta:     61   -3.139349    0.761595    0.000000
siesta:     62   -2.340348   -2.990456    0.000000
siesta:     63   -2.357878    1.967777    0.000000
siesta:     64    0.792628   -1.963540    0.000000
siesta:     65  -22.316908    3.196551    0.000000
siesta:     66  -24.642908 -557.024463    0.000000
siesta:     67   -2.204275    0.257477    0.000000
siesta:     68    2.369770    2.273234    0.000000
siesta:     69    7.439302  119.518512    0.000000
siesta:     70   -0.390185 -552.616850    0.000000
siesta:     71   12.223475  134.891349    0.000000
siesta:     72   -7.248184 -549.644900    0.000000
siesta: ----------------------------------------
siesta:    Tot   -0.187967   -0.182305    0.000000

siesta: Stress tensor (static) (eV/Ang**3):
siesta:    -0.496840   -0.004324    0.000000
siesta:    -0.004324   -1.656081    0.000000
siesta:     0.000000    0.000000   -0.000423

siesta: Cell volume =       1893.226884 Ang**3

siesta: Pressure (static):
siesta:                Solid            Molecule  Units
siesta:           0.00781756          0.11024269  Ry/Bohr**3
siesta:           0.71778133         10.12210878  eV/Ang**3
siesta:        1150.02490279      16217.58146628  kBar
(Free)E+ p_basis*V_orbitals  =       -9117.636340
(Free)Eharris+ p_basis*V_orbitals  =       -9117.626174

siesta: Electric dipole (a.u.)  =    0.000000    0.000000    0.000000
siesta: Electric dipole (Debye) =    0.000000    0.000000    0.000000

* Maximum dynamic memory allocated : Node    0 =   241 MB
* Maximum dynamic memory allocated : Node    1 =    85 MB
* Maximum dynamic memory allocated : Node    2 =    87 MB
* Maximum dynamic memory allocated : Node    3 =   228 MB
* Maximum dynamic memory allocated : Node    4 =   232 MB
* Maximum dynamic memory allocated : Node    5 =    85 MB
* Maximum dynamic memory allocated : Node    6 =    88 MB
* Maximum dynamic memory allocated : Node    7 =   213 MB

* Maximum memory occured during matrixMtoO                    

timer: CPU execution times:
timer:  Routine       Calls   Time/call    Tot.time        %
timer:  siesta            1  182450.869  182450.869   100.00
timer:  Setup             1       3.119       3.119     0.00
timer:  bands             3     273.546     820.637     0.45
timer:  writewave         1       0.016       0.016     0.00
timer:  KSV_init          1       0.003       0.003     0.00
timer:  IterMD            1  181621.192  181621.192    99.55
timer:  hsparse           1       0.394       0.394     0.00
timer:  overlap           1       7.795       7.795     0.00
timer:  IterSCF          38    4773.361  181387.706    99.42
timer:  kinefsm           2       4.050       8.100     0.00
timer:  nlefsm            2      21.636      43.271     0.02
timer:  DHSCF            39     122.422    4774.467     2.62
timer:  DHSCF1            1       1.002       1.002     0.00
timer:  DHSCF2            1      44.883      44.883     0.02
timer:  REORD           314       0.011       3.499     0.00
timer:  POISON           40       2.532     101.261     0.06
timer:  DHSCF3           39     120.055    4682.142     2.57
timer:  rhoofd           39      26.151    1019.899     0.56
timer:  cellXC           39       3.529     137.621     0.08
timer:  vmat             39      58.958    2299.376     1.26
timer:  MolMec            2       0.000       0.000     0.00
timer:  diagon           38    4649.731  176689.774    96.84
timer:  c-eigval       8899       6.797   60489.613    33.15
timer:  c-buildHS      8899       0.158    1404.761     0.77
timer:  cdiag         17677       7.015  124003.714    67.97
timer:  cdiag1        17677       0.437    7728.954     4.24
timer:  cdiag2        17677       1.921   33957.509    18.61
timer:  cdiag3        17677       3.980   70353.669    38.56
timer:  cdiag4        17677       0.230    4062.294     2.23
timer:  c-eigvec       8778       7.467   65548.993    35.93
timer:  c-buildD       8778       5.858   51421.453    28.18
timer:  DHSCF4            1      44.102      44.102     0.02
timer:  dfscf             1      41.410      41.410     0.02
timer:  overfsm           1       0.480       0.480     0.00
timer:  optical           1       5.166       5.166     0.00
  

elaps: ELAPSED times:
elaps:  Routine       Calls   Time/call    Tot.time        %
elaps:  siesta            1   22837.783   22837.783   100.00
elaps:  Setup             1       0.389       0.389     0.00
elaps:  bands             3      34.246     102.739     0.45
elaps:  writewave         1       0.002       0.002     0.00
elaps:  KSV_init          1       0.000       0.000     0.00
elaps:  IterMD            1   22733.975   22733.975    99.55
elaps:  hsparse           1       0.050       0.050     0.00
elaps:  overlap           1       0.982       0.982     0.00
elaps:  IterSCF          38     597.494   22704.766    99.42
elaps:  kinefsm           2       0.511       1.022     0.00
elaps:  nlefsm            2       2.724       5.447     0.02
elaps:  DHSCF            39      15.452     602.641     2.64
elaps:  DHSCF1            1       0.127       0.127     0.00
elaps:  DHSCF2            1       5.612       5.612     0.02
elaps:  REORD           314       0.001       0.466     0.00
elaps:  POISON           40       0.317      12.692     0.06
elaps:  DHSCF3           39      15.020     585.770     2.56
elaps:  rhoofd           39       6.790     264.823     1.16
elaps:  cellXC           39       0.441      17.195     0.08
elaps:  vmat             39       7.376     287.651     1.26
elaps:  MolMec            2       0.000       0.000     0.00
elaps:  diagon           38     582.060   22118.294    96.85
elaps:  c-eigval       8899       0.851    7568.603    33.14
elaps:  c-buildHS      8899       0.021     189.577     0.83
elaps:  cdiag         17677       0.858   15175.315    66.45
elaps:  cdiag1        17677       0.054     961.482     4.21
elaps:  cdiag2        17677       0.240    4249.288    18.61
elaps:  cdiag3        17677       0.499    8814.570    38.60
elaps:  cdiag4        17677       0.029     511.301     2.24
elaps:  c-eigvec       8778       0.900    7897.896    34.58
elaps:  c-buildD       8778       0.769    6746.419    29.54
elaps:  DHSCF4            1      10.808      10.808     0.05
elaps:  dfscf             1      10.278      10.278     0.05
elaps:  overfsm           1       0.064       0.064     0.00
elaps:  optical           1       0.000       0.000     0.00
  
>> End of run:  25-APR-2016   6:28:42
