Siesta Version:                                        siesta-3.2-pl-3
Architecture  : x86_64-unknown-linux-gnu--unknown
Compiler flags: mpiifort -g -O2 -fPIC -xSSE4.1 -fp-model source -shared-intel 
PARALLEL version

* Running on    8 nodes in parallel
>> Start of run:   2-MAY-2016   1:31:30

                           ***********************       
                           *  WELCOME TO SIESTA  *       
                           ***********************       

reinit: Reading from standard input
************************** Dump of input data file ****************************
#(1) General system descriptors
SystemName            GRP_doping    # Descriptive name of the system
SystemLabel           GRP_doping    # Short name for naming files
%include STRUCT.fdf
%include KPT.fdf
%include BASIS.fdf
#%include TS.fdf # for transiesta calculation
#(4) DFT, Grid, SCF
XC.functional         GGA           # LDA or GGA (default = LDA)
XC.authors            PBE           # CA (Ceperley-Aldr) = PZ
                                    #    (Perdew-Zunger) - LDA - Default
                                    # PW92 (Perdew-Wang-92) - LDA
                                    # PBE (Perdew-Burke-Ernzerhof) - GGA
MeshCutoff            200.000000    Ry      # Default: 50.0 Ry ~ 0.444 Bohr
                                    #         100.0 Ry ~ 0.314 Bohr
MaxSCFIterations      500           # Default: 50
DM.MixingWeight       0.05          # Default: 0.25
DM.NumberPulay        10            # Default: 0
DM.PulayOnFile        F             # SystemLabel.P1, SystemLabel.P2
DM.Tolerance          1.d-4         # Default: 1.d-4
DM.UseSaveDM          .true.        # because of the bug
SCFMustConverge       .true.
NeglNonOverlapInt     F             # Default: F
#(5) Eigenvalue problem: order-N or diagonalization
SolutionMethod        Diagon        # or Transiesta
ElectronicTemperature 300.0 K       # Default: 300.0 K
#(6) Molecular dynamics and relaxations
#MD.TypeOfRun          CG            # Type of dynamics:
#MD.VariableCell       F
#MD.NumCGsteps         0           # 0 for single-point / 100 for gopt
#MD.MaxCGDispl         0.2 Bohr      # Default: 0.2 Bohr
#MD.MaxForceTol        0.02 eV/Ang   # Default: 0.04 eV/Ang
#MD.MaxStressTol       1.0 GPa       # Default: 1.0 GPa
# Geometry Constraints
#%block GeometryConstraints
#	position from 1 to 44
#%endblock GeometryConstraints
BandLinesScale   pi/a
%block BandLines
 1   0.00000000  0.00000000  0.00000000
50   0.00000000  0.07809418  0.00000000
50   0.04509075  0.07809242  0.00000000
20   0.00000000  0.00000000  0.00000000
%endblock BandLines
************************** End of input data file *****************************

reinit: -----------------------------------------------------------------------
reinit: System Name: GRP_doping
reinit: -----------------------------------------------------------------------
reinit: System Label: GRP_doping                                                  
reinit: -----------------------------------------------------------------------

initatom: Reading input for the pseudopotentials and atomic orbitals ----------
 Species number:            1  Label: N Atomic number:           7
 Species number:            2  Label: C Atomic number:           6
Ground state valence configuration:   2s02  2p03
Reading pseudopotential information in formatted form from N.psf

Valence configuration for pseudopotential generation:
2s( 2.00) rc: 1.48
2p( 3.00) rc: 1.48
3d( 0.00) rc: 1.48
4f( 0.00) rc: 1.48
Ground state valence configuration:   2s02  2p02
Reading pseudopotential information in formatted form from C.psf

Valence configuration for pseudopotential generation:
2s( 2.00) rc: 1.54
2p( 2.00) rc: 1.54
3d( 0.00) rc: 1.54
4f( 0.00) rc: 1.54
For N, standard SIESTA heuristics set lmxkb to 3
 (one more than the basis l, including polarization orbitals).
Use PS.lmax or PS.KBprojectors blocks to override.
For C, standard SIESTA heuristics set lmxkb to 3
 (one more than the basis l, including polarization orbitals).
Use PS.lmax or PS.KBprojectors blocks to override.

<basis_specs>
===============================================================================
N                    Z=   7    Mass=  14.010        Charge= 0.17977+309
Lmxo=1 Lmxkb= 3    BasisType=split      Semic=F
L=0  Nsemic=0  Cnfigmx=2
          n=1  nzeta=2  polorb=0
            splnorm:   0.15000    
               vcte:    0.0000    
               rinn:    0.0000    
                rcs:    0.0000      0.0000    
            lambdas:    1.0000      1.0000    
L=1  Nsemic=0  Cnfigmx=2
          n=1  nzeta=2  polorb=1
            splnorm:   0.15000    
               vcte:    0.0000    
               rinn:    0.0000    
                rcs:    0.0000      0.0000    
            lambdas:    1.0000      1.0000    
-------------------------------------------------------------------------------
L=0  Nkbl=1  erefs: 0.17977+309
L=1  Nkbl=1  erefs: 0.17977+309
L=2  Nkbl=1  erefs: 0.17977+309
L=3  Nkbl=1  erefs: 0.17977+309
===============================================================================
</basis_specs>

atom: Called for N                     (Z =   7)

read_vps: Pseudopotential generation method:
read_vps: ATM3      Troullier-Martins                       
Total valence charge:    5.00000

read_vps: Pseudopotential includes a core correction:
read_vps: Pseudo-core for xc-correction

xc_check: Exchange-correlation functional:
xc_check: GGA Perdew, Burke & Ernzerhof 1996
V l=0 = -2*Zval/r beyond r=  1.4606
V l=1 = -2*Zval/r beyond r=  1.4606
V l=2 = -2*Zval/r beyond r=  1.4606
V l=3 = -2*Zval/r beyond r=  1.4606
All V_l potentials equal beyond r=  1.4606
This should be close to max(r_c) in ps generation
All pots = -2*Zval/r beyond r=  1.4606

VLOCAL1: 99.0% of the norm of Vloc inside     20.347 Ry
VLOCAL1: 99.9% of the norm of Vloc inside     46.372 Ry
atom: Maximum radius for 4*pi*r*r*local-pseudopot. charge    1.76189
atom: Maximum radius for r*vlocal+2*Zval:    1.53550
GHOST: No ghost state for L =  0
GHOST: No ghost state for L =  1
GHOST: No ghost state for L =  2
GHOST: No ghost state for L =  3

KBgen: Kleinman-Bylander projectors: 
   l= 0   rc=  1.634559   el= -1.363963   Ekb=  5.296955   kbcos=  0.335621
   l= 1   rc=  1.614250   el= -0.521451   Ekb= -5.259161   kbcos= -0.433408
   l= 2   rc=  1.718383   el=  0.001991   Ekb= -1.271464   kbcos= -0.007566
   l= 3   rc=  1.761893   el=  0.003093   Ekb= -0.494769   kbcos= -0.001015

KBgen: Total number of  Kleinman-Bylander projectors:   16
atom: -------------------------------------------------------------------------

atom: SANKEY-TYPE ORBITALS:
atom: Selected multiple-zeta basis: split     

SPLIT: Orbitals with angular momentum L= 0

SPLIT: Basis orbitals for state 2s

SPLIT: PAO cut-off radius determined from an
SPLIT: energy shift=  0.007350 Ry

   izeta = 1
                 lambda =    1.000000
                     rc =    4.071465
                 energy =   -1.356470
                kinetic =    1.176977
    potential(screened) =   -2.533447
       potential(ionic) =   -8.057990

   izeta = 2
                 rmatch =    2.905100
              splitnorm =    0.150000
                 energy =   -1.158343
                kinetic =    1.813009
    potential(screened) =   -2.971352
       potential(ionic) =   -8.901931

SPLIT: Orbitals with angular momentum L= 1

SPLIT: Basis orbitals for state 2p

SPLIT: PAO cut-off radius determined from an
SPLIT: energy shift=  0.007350 Ry

   izeta = 1
                 lambda =    1.000000
                     rc =    4.972977
                 energy =   -0.513884
                kinetic =    3.441732
    potential(screened) =   -3.955616
       potential(ionic) =   -9.287901

   izeta = 2
                 rmatch =    3.054066
              splitnorm =    0.150000
                 energy =   -0.318226
                kinetic =    5.125348
    potential(screened) =   -5.443573
       potential(ionic) =  -11.380999

POLgen: Perturbative polarization orbital with L=  2

POLgen: Polarization orbital for state 2p

   izeta = 1
                     rc =    4.972977
                 energy =    1.607437
                kinetic =    3.268125
    potential(screened) =   -1.660688
       potential(ionic) =   -5.973652
atom: Total number of Sankey-type orbitals: 13

atm_pop: Valence configuration (for local Pseudopot. screening):
 2s( 2.00)                                                            
 2p( 3.00)                                                            
Vna: chval, zval:    5.00000   5.00000

Vna:  Cut-off radius for the neutral-atom potential:   4.972977
comcore: Pseudo-core radius Rcore=  1.554824

atom: _________________________________________________________________________

<basis_specs>
===============================================================================
C                    Z=   6    Mass=  12.010        Charge= 0.17977+309
Lmxo=1 Lmxkb= 3    BasisType=split      Semic=F
L=0  Nsemic=0  Cnfigmx=2
          n=1  nzeta=2  polorb=0
            splnorm:   0.15000    
               vcte:    0.0000    
               rinn:    0.0000    
                rcs:    0.0000      0.0000    
            lambdas:    1.0000      1.0000    
L=1  Nsemic=0  Cnfigmx=2
          n=1  nzeta=2  polorb=1
            splnorm:   0.15000    
               vcte:    0.0000    
               rinn:    0.0000    
                rcs:    0.0000      0.0000    
            lambdas:    1.0000      1.0000    
-------------------------------------------------------------------------------
L=0  Nkbl=1  erefs: 0.17977+309
L=1  Nkbl=1  erefs: 0.17977+309
L=2  Nkbl=1  erefs: 0.17977+309
L=3  Nkbl=1  erefs: 0.17977+309
===============================================================================
</basis_specs>

atom: Called for C                     (Z =   6)

read_vps: Pseudopotential generation method:
read_vps: ATM3      Troullier-Martins                       
Total valence charge:    4.00000

read_vps: Pseudopotential includes a core correction:
read_vps: Pseudo-core for xc-correction

xc_check: Exchange-correlation functional:
xc_check: GGA Perdew, Burke & Ernzerhof 1996
V l=0 = -2*Zval/r beyond r=  1.5227
V l=1 = -2*Zval/r beyond r=  1.5227
V l=2 = -2*Zval/r beyond r=  1.5227
V l=3 = -2*Zval/r beyond r=  1.5038
All V_l potentials equal beyond r=  1.5227
This should be close to max(r_c) in ps generation
All pots = -2*Zval/r beyond r=  1.5227

VLOCAL1: 99.0% of the norm of Vloc inside     18.722 Ry
VLOCAL1: 99.9% of the norm of Vloc inside     42.668 Ry
atom: Maximum radius for 4*pi*r*r*local-pseudopot. charge    1.83678
atom: Maximum radius for r*vlocal+2*Zval:    1.58088
GHOST: No ghost state for L =  0
GHOST: No ghost state for L =  1
GHOST: No ghost state for L =  2
GHOST: No ghost state for L =  3

KBgen: Kleinman-Bylander projectors: 
   l= 0   rc=  1.704034   el= -1.009801   Ekb=  5.335044   kbcos=  0.316824
   l= 1   rc=  1.704034   el= -0.388707   Ekb= -3.785862   kbcos= -0.366464
   l= 2   rc=  1.791422   el=  0.001971   Ekb= -0.970471   kbcos= -0.009212
   l= 3   rc=  1.859892   el=  0.003065   Ekb= -0.399525   kbcos= -0.001223

KBgen: Total number of  Kleinman-Bylander projectors:   16
atom: -------------------------------------------------------------------------

atom: SANKEY-TYPE ORBITALS:
atom: Selected multiple-zeta basis: split     

SPLIT: Orbitals with angular momentum L= 0

SPLIT: Basis orbitals for state 2s

SPLIT: PAO cut-off radius determined from an
SPLIT: energy shift=  0.007350 Ry

   izeta = 1
                 lambda =    1.000000
                     rc =    4.632753
                 energy =   -1.002270
                kinetic =    0.855760
    potential(screened) =   -1.858031
       potential(ionic) =   -5.417575

   izeta = 2
                 rmatch =    3.431921
              splitnorm =    0.150000
                 energy =   -0.867111
                kinetic =    1.300804
    potential(screened) =   -2.167915
       potential(ionic) =   -5.962684

SPLIT: Orbitals with angular momentum L= 1

SPLIT: Basis orbitals for state 2p

SPLIT: PAO cut-off radius determined from an
SPLIT: energy shift=  0.007350 Ry

   izeta = 1
                 lambda =    1.000000
                     rc =    5.658549
                 energy =   -0.381140
                kinetic =    2.399701
    potential(screened) =   -2.780841
       potential(ionic) =   -6.206085

   izeta = 2
                 rmatch =    3.653288
              splitnorm =    0.150000
                 energy =   -0.249149
                kinetic =    3.542762
    potential(screened) =   -3.791911
       potential(ionic) =   -7.581078

POLgen: Perturbative polarization orbital with L=  2

POLgen: Polarization orbital for state 2p

   izeta = 1
                     rc =    5.658549
                 energy =    1.109913
                kinetic =    2.304789
    potential(screened) =   -1.194876
       potential(ionic) =   -4.013592
atom: Total number of Sankey-type orbitals: 13

atm_pop: Valence configuration (for local Pseudopot. screening):
 2s( 2.00)                                                            
 2p( 2.00)                                                            
Vna: chval, zval:    4.00000   4.00000

Vna:  Cut-off radius for the neutral-atom potential:   5.658549
comcore: Pseudo-core radius Rcore=  1.791422

atom: _________________________________________________________________________

prinput: Basis input ----------------------------------------------------------

PAO.BasisType split     

%block ChemicalSpeciesLabel
    1    7 N                       # Species index, atomic number, species label
    2    6 C                       # Species index, atomic number, species label
%endblock ChemicalSpeciesLabel

%block PAO.Basis                 # Define Basis set
N                     2                    # Species label, number of l-shells
 n=2   0   2                         # n, l, Nzeta 
   4.071      2.905   
   1.000      1.000   
 n=2   1   2 P   1                   # n, l, Nzeta, Polarization, NzetaPol
   4.973      3.054   
   1.000      1.000   
C                     2                    # Species label, number of l-shells
 n=2   0   2                         # n, l, Nzeta 
   4.633      3.432   
   1.000      1.000   
 n=2   1   2 P   1                   # n, l, Nzeta, Polarization, NzetaPol
   5.659      3.653   
   1.000      1.000   
%endblock PAO.Basis

prinput: ----------------------------------------------------------------------

coor:   Atomic-coordinates input format  =     Fractional

siesta: Atomic coordinates (Bohr) and species
siesta:      2.30256   6.62836   0.00000  1        1
siesta:      2.30256   9.31683   0.00000  1        2
siesta:      4.63094  10.66124   0.00000  1        3
siesta:      9.28770  21.41544   0.00000  1        4
siesta:     11.61608  22.75985   0.00000  1        5
siesta:     11.61608  25.44831   0.00000  1        6
siesta:     -0.02582  10.66124   0.00000  1        7
siesta:      6.95932  22.75985   0.00000  1        8
siesta:      6.95932  25.44831   0.00000  1        9
siesta:     -2.35420  25.44831   0.00000  1       10
siesta:     -7.01096  25.44831   0.00000  1       11
siesta:      4.63094  26.79272   0.00000  1       12
siesta:     -0.02582  26.79272   0.00000  1       13
siesta:     -0.02582  29.48119   0.00000  1       14
siesta:     -4.68258  26.79272   0.00000  1       15
siesta:     -4.68258  29.48119   0.00000  1       16
siesta:     -2.35420  30.82560   0.00000  1       17
siesta:     -0.02582   2.59549   0.00000  2       18
siesta:     -0.02582   5.28395   0.00000  2       19
siesta:     -2.35420  38.89134   0.00000  2       20
siesta:     -2.35420  41.57980   0.00000  2       21
siesta:      2.30256  38.89134   0.00000  2       22
siesta:      2.30256  41.57980   0.00000  2       23
siesta:      4.63094  34.85847   0.00000  2       24
siesta:      4.63094  37.54693   0.00000  2       25
siesta:      6.95932  30.82560   0.00000  2       26
siesta:      6.95932  33.51406   0.00000  2       27
siesta:      9.28770  26.79272   0.00000  2       28
siesta:      9.28770  29.48119   0.00000  2       29
siesta:     -4.68258  34.85847   0.00000  2       30
siesta:     -4.68258  37.54693   0.00000  2       31
siesta:      4.63094  13.34970   0.00000  2       32
siesta:      6.95932  14.69411   0.00000  2       33
siesta:      6.95932  17.38257   0.00000  2       34
siesta:      9.28770  18.72698   0.00000  2       35
siesta:     -2.35420   6.62836   0.00000  2       36
siesta:     -2.35420   9.31683   0.00000  2       37
siesta:     -0.02582  13.34970   0.00000  2       38
siesta:      2.30256  14.69411   0.00000  2       39
siesta:      2.30256  17.38257   0.00000  2       40
siesta:      4.63094  18.72698   0.00000  2       41
siesta:      4.63094  21.41544   0.00000  2       42
siesta:     -4.68258  10.66124   0.00000  2       43
siesta:     -4.68258  13.34970   0.00000  2       44
siesta:     -2.35420  14.69411   0.00000  2       45
siesta:     -2.35420  17.38257   0.00000  2       46
siesta:     -0.02582  18.72698   0.00000  2       47
siesta:     -0.02582  21.41544   0.00000  2       48
siesta:      2.30256  22.75985   0.00000  2       49
siesta:      2.30256  25.44831   0.00000  2       50
siesta:     -7.01096  14.69411   0.00000  2       51
siesta:     -7.01096  17.38257   0.00000  2       52
siesta:     -4.68258  18.72698   0.00000  2       53
siesta:     -4.68258  21.41544   0.00000  2       54
siesta:     -2.35420  22.75985   0.00000  2       55
siesta:     -9.33934  18.72698   0.00000  2       56
siesta:     -9.33934  21.41544   0.00000  2       57
siesta:     -7.01096  22.75985   0.00000  2       58
siesta:    -11.66772  22.75985   0.00000  2       59
siesta:    -11.66772  25.44831   0.00000  2       60
siesta:     -9.33934  26.79272   0.00000  2       61
siesta:     -9.33934  29.48119   0.00000  2       62
siesta:      4.63094  29.48119   0.00000  2       63
siesta:      2.30256  30.82560   0.00000  2       64
siesta:      2.30256  33.51406   0.00000  2       65
siesta:     -2.35420  33.51406   0.00000  2       66
siesta:     -7.01096  30.82560   0.00000  2       67
siesta:     -7.01096  33.51406   0.00000  2       68
siesta:     -0.02582  34.85847   0.00000  2       69
siesta:     -0.02582  37.54693   0.00000  2       70
siesta:     -0.02582  42.92421   0.00000  2       71
siesta:     -0.02582  45.61267   0.00000  2       72

siesta: System type = slab      

initatomlists: Number of atoms, orbitals, and projectors:     72   936  1152

siesta: ******************** Simulation parameters ****************************
siesta:
siesta: The following are some of the parameters of the simulation.
siesta: A complete list of the parameters used, including default values,
siesta: can be found in file out.fdf
siesta:
redata: Non-Collinear-spin run           =     F
redata: SpinPolarized (Up/Down) run      =     F
redata: Number of spin components        =     1
redata: Long output                      =     F
redata: Number of Atomic Species         =        2
redata: Charge density info will appear in .RHO file
redata: Write Mulliken Pop.              =     NO
redata: Mesh Cutoff                      =   200.0000  Ry
redata: Net charge of the system         =     0.0000 |e|
redata: Max. number of SCF Iter          =      500
redata: SCF convergence failure will abort job
redata: Performing Pulay mixing using    =    10 iterations
redata: Mix DM in first SCF step ?       =     F
redata: Write Pulay info on disk?        =     F
redata: Discard 1st Pulay DM after  kick =     F
redata: New DM Mixing Weight             =     0.0500
redata: New DM Occupancy tolerance       = 0.000000000001
redata: No kicks to SCF
redata: DM Mixing Weight for Kicks       =     0.5000
redata: DM Tolerance for SCF             =     0.000100
redata: Require Energy convergence for SCF =     F
redata: DM Energy tolerance for SCF      =     0.000100 eV
redata: Require Harris convergence for SCF =     F
redata: DM Harris energy tolerance for SCF =     0.000100 eV
redata: Using Saved Data (generic)   =     F
redata: Use continuation files for DM    =     T
redata: Neglect nonoverlap interactions  =     F
redata: Method of Calculation            =     Diagonalization
redata: Divide and Conquer               =     T
redata: Electronic Temperature           =     0.0019  Ry
redata: Fix the spin of the system       =     F
redata: Dynamics option                  =     Verlet MD run
redata: Initial MD time step             =        1
redata:   Final MD time step             =        1
redata: Length of MD time step           =     1.0000  fs
redata: Initial Temperature of MD run    =     0.0000  K
redata: Perform a MD quench              =     F
redata: ***********************************************************************
Total number of electrons:   305.000000
Total ionic charge:   305.000000

* ProcessorY, Blocksize:    2  24

k-point displ. along   1 input, could be:     0.50    0.00
k-point displ. along   2 input, could be:     0.50    0.00
 Kpoints in:          231 . Kpoints trimmed:          231

siesta: k-grid: Number of k-points =   231
siesta: k-grid: Cutoff (effective) =     5.000 Ang
siesta: k-grid: Supercell and displacements
siesta: k-grid:   21   0   0      0.500
siesta: k-grid:    0  21   0      0.500
siesta: k-grid:    0   0   1      0.000
Naive supercell factors:     2    2    2

superc: Internal auxiliary supercell:     2 x     2 x     2  =       8
superc: Number of atoms, orbitals, and projectors:    576   7488   9216

* Maximum dynamic memory allocated =     4 MB

siesta:                 ==============================
                            Begin MD step =      1
                        ==============================

superc: Internal auxiliary supercell:     2 x     2 x     2  =       8
superc: Number of atoms, orbitals, and projectors:    576   7488   9216

outcell: Unit cell vectors (Ang):
       12.804619    7.392750    0.000000
        0.000000   14.785500    0.000000
        0.000000    0.000000   10.000000

outcell: Cell vector modules (Ang)   :   14.785500   14.785500   10.000000
outcell: Cell angles (23,13,12) (deg):     90.0000     90.0000     60.0000
outcell: Cell volume (Ang**3)        :   1893.2269
New_DM. Step:     1
Initializing Density Matrix...

InitMesh: MESH =   120 x   120 x    90 =     1296000
InitMesh: Mesh cutoff (required, used) =   200.000   223.865 Ry

* Maximum dynamic memory allocated =   186 MB

stepf: Fermi-Dirac step function

siesta: Program's energy decomposition (eV):
siesta: Ebs     =     -6225.085542
siesta: Eions   =     21135.707422
siesta: Ena     =      4903.504472
siesta: Ekin    =      7804.862351
siesta: Enl     =       140.850568
siesta: DEna    =        -0.000015
siesta: DUscf   =         0.000000
siesta: DUext   =         0.000000
siesta: Exc     =     -4597.022718
siesta: eta*DQ  =         0.000000
siesta: Emadel  =         0.000000
siesta: Emeta   =         0.000000
siesta: Emolmec =         0.000000
siesta: Ekinion =         0.000000
siesta: Eharris =    -12527.047688
siesta: Etot    =    -12883.512763
siesta: FreeEng =    -12883.512763

siesta: iscf   Eharris(eV)      E_KS(eV)   FreeEng(eV)   dDmax  Ef(eV)
siesta:    1   -12527.0477   -12883.5128   -12883.5128  5.5885 -6.9833
timer: Routine,Calls,Time,% = IterSCF        1    4171.334  99.73
elaps: Routine,Calls,Wall,% = IterSCF        1     522.030  99.73
siesta:    2   -17142.8559   -11868.8281   -11868.8969 17.8881 -3.9891
siesta:    3   -12459.4663   -12657.8058   -12657.8408  2.3028 -4.9265
siesta:    4   -12430.6262   -12525.0873   -12525.1166  1.1440 -4.2554
siesta:    5   -12387.2521   -12481.6458   -12481.6973  0.8217 -4.0436
siesta:    6   -12371.0578   -12437.6150   -12437.6507  0.7097 -3.8215
siesta:    7   -12367.3991   -12423.8709   -12423.9513  0.6779 -3.9572
siesta:    8   -12365.6682   -12416.2922   -12416.3433  0.6832 -3.8485
siesta:    9   -12366.0656   -12394.5181   -12394.5604  0.5318 -3.9566
siesta:   10   -12363.8970   -12386.7067   -12386.7481  0.5367 -3.9135
siesta:   11   -12363.5644   -12368.0377   -12368.0814  0.3769 -3.8698
siesta:   12   -12363.6560   -12354.1705   -12354.2103  0.3358 -3.8427
siesta:   13   -12363.4221   -12347.6554   -12347.7057  0.2408 -3.8548
siesta:   14   -12362.5709   -12350.5794   -12350.6364  0.1970 -3.8841
siesta:   15   -12362.2576   -12350.1248   -12350.1838  0.1607 -3.8875
siesta:   16   -12362.0117   -12351.8859   -12351.9523  0.0934 -3.8874
siesta:   17   -12361.9176   -12352.9396   -12353.0098  0.0821 -3.9019
siesta:   18   -12361.8927   -12356.5824   -12356.6506  0.0551 -3.9109
siesta:   19   -12361.8686   -12359.9033   -12359.9707  0.0404 -3.9202
siesta:   20   -12361.8623   -12361.3231   -12361.3939  0.0335 -3.9218
siesta:   21   -12361.8689   -12362.2565   -12362.3253  0.0466 -3.9111
siesta:   22   -12361.8520   -12362.9146   -12362.9813  0.0189 -3.9072
siesta:   23   -12361.8442   -12363.1099   -12363.1785  0.0179 -3.9052
siesta:   24   -12361.8434   -12363.0770   -12363.1475  0.0174 -3.9045
siesta:   25   -12361.8429   -12362.7363   -12362.8064  0.0138 -3.9024
siesta:   26   -12361.8431   -12362.6444   -12362.7140  0.0100 -3.9017
siesta:   27   -12361.8425   -12362.4194   -12362.4888  0.0059 -3.9021
siesta:   28   -12361.8424   -12362.3667   -12362.4364  0.0041 -3.9021
siesta:   29   -12361.8426   -12362.1374   -12362.2072  0.0025 -3.9022
siesta:   30   -12361.8424   -12362.0575   -12362.1270  0.0015 -3.9027
siesta:   31   -12361.8424   -12361.9841   -12362.0538  0.0009 -3.9029
siesta:   32   -12361.8424   -12361.9386   -12362.0082  0.0004 -3.9028
siesta:   33   -12361.8423   -12361.9003   -12361.9700  0.0004 -3.9027
siesta:   34   -12361.8423   -12361.8602   -12361.9298  0.0003 -3.9027
siesta:   35   -12361.8423   -12361.8495   -12361.9192  0.0003 -3.9027
siesta:   36   -12361.8424   -12361.8440   -12361.9137  0.0002 -3.9027
siesta:   37   -12361.8423   -12361.8371   -12361.9068  0.0002 -3.9027
siesta:   38   -12361.8423   -12361.8376   -12361.9073  0.0001 -3.9027

siesta: E_KS(eV) =           -12361.8384

siesta: E_KS - E_eggbox =    -12361.8384

siesta: Atomic forces (eV/Ang):
----------------------------------------
   Tot   -0.497040   -0.131646    0.000000
----------------------------------------
   Max  683.539000
   Res  176.621838    sqrt( Sum f_i^2 / 3N )
----------------------------------------
   Max  683.539000    constrained

Stress-tensor-Voigt (kbar):     -664.08    -3122.03       -0.08        4.65        0.00        0.00
(Free)E + p*V (eV/cell)   -10870.5920
Target enthalpy (eV/cell)   -12361.9080

siesta: Stress tensor (static) (eV/Ang**3):
        -0.414482    0.002904    0.000000
         0.002904   -1.948599    0.000000
         0.000000    0.000000   -0.000053

siesta: Pressure (static):       1262.06609582  kBar

siesta: Stress tensor (total) (eV/Ang**3):
        -0.414482    0.002904    0.000000
         0.002904   -1.948599    0.000000
         0.000000    0.000000   -0.000053

siesta: Pressure (total):       1262.06609582  kBar

siesta: Temp_ion =       0.000 K

* Maximum dynamic memory allocated =   202 MB
Computing bands...

siesta: Program's energy decomposition (eV):
siesta: Ebs     =     -4989.148074
siesta: Eions   =     21135.707422
siesta: Ena     =      4903.504472
siesta: Ekin    =     10892.880533
siesta: Enl     =     -1567.746651
siesta: DEna    =      -794.020202
siesta: DUscf   =       110.244939
siesta: DUext   =         0.000000
siesta: Exc     =     -4770.994026
siesta: eta*DQ  =         0.000000
siesta: Emadel  =         0.000000
siesta: Emeta   =         0.000000
siesta: Emolmec =         0.000000
siesta: Ekinion =         0.000000
siesta: Eharris =    -12361.842341
siesta: Etot    =    -12361.838356
siesta: FreeEng =    -12361.908037

siesta: Final energy (eV):
siesta:  Band Struct. =   -4989.148074
siesta:       Kinetic =   10892.880533
siesta:       Hartree =   34989.336861
siesta:    Ext. field =       0.000000
siesta:   Exch.-corr. =   -4770.994026
siesta:  Ion-electron =  -80436.435333
siesta:       Ion-ion =   26963.373610
siesta:       Ekinion =       0.000000
siesta:         Total =  -12361.838356

siesta: Atomic forces (eV/Ang):
siesta:      1   17.912510  650.196363    0.000000
siesta:      2   -2.084125 -111.222199    0.000000
siesta:      3   36.013983  662.265885    0.000000
siesta:      4    0.619242   -2.359533    0.000000
siesta:      5   -0.614801    2.906603    0.000000
siesta:      6   -2.100701   -3.127937    0.000000
siesta:      7   -2.853327  664.370034    0.000000
siesta:      8   -2.405111   -0.453094    0.000000
siesta:      9    0.191424    0.346622    0.000000
siesta:     10   -1.871436   -1.566714    0.000000
siesta:     11   -0.398783   -2.120433    0.000000
siesta:     12   -1.551471    0.501965    0.000000
siesta:     13    1.221232    3.981368    0.000000
siesta:     14   15.894967 -683.539000    0.000000
siesta:     15   -0.284073   -0.420017    0.000000
siesta:     16   -1.266946   -2.619438    0.000000
siesta:     17  -36.191537   16.060955    0.000000
siesta:     18   -7.402839  640.722668    0.000000
siesta:     19   -4.882555 -123.768345    0.000000
siesta:     20    1.465069  125.787148    0.000000
siesta:     21   -9.030779 -548.177861    0.000000
siesta:     22    0.264975  128.459946    0.000000
siesta:     23   14.395647 -552.272128    0.000000
siesta:     24   27.046553    3.856790    0.000000
siesta:     25   15.177336 -658.193338    0.000000
siesta:     26    1.140290    0.252023    0.000000
siesta:     27   -2.601699    0.584309    0.000000
siesta:     28    1.305166    0.422279    0.000000
siesta:     29    0.474807   -1.606385    0.000000
siesta:     30  -26.208919    6.492315    0.000000
siesta:     31  -30.069704 -550.668496    0.000000
siesta:     32   24.848783   -3.680935    0.000000
siesta:     33   -2.117381   -1.342570    0.000000
siesta:     34    0.548968   -0.138949    0.000000
siesta:     35    1.109660    2.724322    0.000000
siesta:     36  -17.120385  550.574125    0.000000
siesta:     37   -2.159921 -132.234877    0.000000
siesta:     38    0.457617 -118.620358    0.000000
siesta:     39   18.423925  562.851868    0.000000
siesta:     40   23.153575   -5.706117    0.000000
siesta:     41   -1.333791    2.876646    0.000000
siesta:     42    1.657241    0.703411    0.000000
siesta:     43  -31.601653  552.406070    0.000000
siesta:     44  -27.113031   -4.241335    0.000000
siesta:     45  -24.703301  559.044102    0.000000
siesta:     46  -22.481271   -5.834339    0.000000
siesta:     47    1.158567  565.481127    0.000000
siesta:     48   -0.829247    1.493252    0.000000
siesta:     49    0.270616    0.747629    0.000000
siesta:     50    2.143006   -0.460181    0.000000
siesta:     51    3.170241   -2.394449    0.000000
siesta:     52   -2.630849    0.017913    0.000000
siesta:     53    1.921039    2.727001    0.000000
siesta:     54   -1.061835    0.337118    0.000000
siesta:     55    1.582460    0.080191    0.000000
siesta:     56    1.530071   -0.386491    0.000000
siesta:     57   -2.047449   -1.285257    0.000000
siesta:     58    0.963567    1.171527    0.000000
siesta:     59    0.186667    5.594530    0.000000
siesta:     60    0.877760   -5.122764    0.000000
siesta:     61   -1.347367    1.424155    0.000000
siesta:     62    1.621553    0.538676    0.000000
siesta:     63   -0.728173   -3.354998    0.000000
siesta:     64   26.675467   10.808845    0.000000
siesta:     65   17.016876 -681.665219    0.000000
siesta:     66  -10.425703 -560.436165    0.000000
siesta:     67   -2.277743    0.080178    0.000000
siesta:     68    2.948808    0.674495    0.000000
siesta:     69    0.592766  124.488203    0.000000
siesta:     70   15.513048 -665.904224    0.000000
siesta:     71    1.463034  128.228652    0.000000
siesta:     72   -1.657649 -547.488811    0.000000
siesta: ----------------------------------------
siesta:    Tot   -0.497040   -0.131646    0.000000

siesta: Stress tensor (static) (eV/Ang**3):
siesta:    -0.414482    0.002904    0.000000
siesta:     0.002904   -1.948599    0.000000
siesta:     0.000000    0.000000   -0.000053

siesta: Cell volume =       1893.226884 Ang**3

siesta: Pressure (static):
siesta:                Solid            Molecule  Units
siesta:           0.00857918          0.13903139  Ry/Bohr**3
siesta:           0.78771118         12.76538933  eV/Ang**3
siesta:        1262.06609582      20452.62958581  kBar
(Free)E+ p_basis*V_orbitals  =      -12333.600800
(Free)Eharris+ p_basis*V_orbitals  =      -12333.605491

siesta: Electric dipole (a.u.)  =    0.000000    0.000000    0.000000
siesta: Electric dipole (Debye) =    0.000000    0.000000    0.000000

* Maximum dynamic memory allocated : Node    0 =   202 MB
* Maximum dynamic memory allocated : Node    1 =    72 MB
* Maximum dynamic memory allocated : Node    2 =    73 MB
* Maximum dynamic memory allocated : Node    3 =   192 MB
* Maximum dynamic memory allocated : Node    4 =   188 MB
* Maximum dynamic memory allocated : Node    5 =    71 MB
* Maximum dynamic memory allocated : Node    6 =    72 MB
* Maximum dynamic memory allocated : Node    7 =   173 MB

* Maximum memory occured during matrixMtoO                    

timer: CPU execution times:
timer:  Routine       Calls   Time/call    Tot.time        %
timer:  siesta            1  155921.435  155921.435   100.00
timer:  Setup             1       3.026       3.026     0.00
timer:  bands             3     267.839     803.517     0.52
timer:  writewave         1       0.018       0.018     0.00
timer:  KSV_init          1       0.005       0.005     0.00
timer:  IterMD            1  155109.044  155109.044    99.48
timer:  hsparse           1       0.237       0.237     0.00
timer:  overlap           1       7.711       7.711     0.00
timer:  IterSCF          38    4077.389  154940.789    99.37
timer:  kinefsm           2       3.959       7.917     0.01
timer:  nlefsm            2      18.707      37.413     0.02
timer:  DHSCF            39      86.372    3368.515     2.16
timer:  DHSCF1            1       0.758       0.758     0.00
timer:  DHSCF2            1      33.269      33.269     0.02
timer:  REORD           314       0.010       3.121     0.00
timer:  POISON           40       2.240      89.595     0.06
timer:  DHSCF3           39      84.669    3302.073     2.12
timer:  rhoofd           39      17.128     667.988     0.43
timer:  cellXC           39       3.470     135.346     0.09
timer:  vmat             39      40.560    1581.830     1.01
timer:  MolMec            2       0.000       0.000     0.00
timer:  diagon           38    3989.755  151610.703    97.24
timer:  c-eigval       8899       6.659   59260.722    38.01
timer:  c-buildHS      8899       0.112     996.427     0.64
timer:  cdiag         17677       6.840  120916.477    77.55
timer:  cdiag1        17677       0.425    7505.143     4.81
timer:  cdiag2        17677       1.899   33577.204    21.53
timer:  cdiag3        17677       3.946   69753.506    44.74
timer:  cdiag4        17677       0.202    3577.466     2.29
timer:  c-eigvec       8778       7.207   63262.945    40.57
timer:  c-buildD       8778       3.400   29841.831    19.14
timer:  DHSCF4            1      30.363      30.363     0.02
timer:  dfscf             1      28.553      28.553     0.02
timer:  overfsm           1       0.400       0.400     0.00
timer:  optical           1       5.105       5.105     0.00
  

elaps: ELAPSED times:
elaps:  Routine       Calls   Time/call    Tot.time        %
elaps:  siesta            1   19511.348   19511.348   100.00
elaps:  Setup             1       0.378       0.378     0.00
elaps:  bands             3      33.531     100.592     0.52
elaps:  writewave         1       0.002       0.002     0.00
elaps:  KSV_init          1       0.000       0.000     0.00
elaps:  IterMD            1   19409.703   19409.703    99.48
elaps:  hsparse           1       0.029       0.029     0.00
elaps:  overlap           1       0.966       0.966     0.00
elaps:  IterSCF          38     510.228   19388.658    99.37
elaps:  kinefsm           2       0.498       0.997     0.01
elaps:  nlefsm            2       2.366       4.732     0.02
elaps:  DHSCF            39      10.911     425.547     2.18
elaps:  DHSCF1            1       0.098       0.098     0.00
elaps:  DHSCF2            1       4.157       4.157     0.02
elaps:  REORD           314       0.001       0.422     0.00
elaps:  POISON           40       0.280      11.208     0.06
elaps:  DHSCF3           39      10.592     413.097     2.12
elaps:  rhoofd           39       4.747     185.137     0.95
elaps:  cellXC           39       0.433      16.898     0.09
elaps:  vmat             39       5.074     197.873     1.01
elaps:  MolMec            2       0.000       0.000     0.00
elaps:  diagon           38     499.284   18972.800    97.24
elaps:  c-eigval       8899       0.833    7414.596    38.00
elaps:  c-buildHS      8899       0.015     136.974     0.70
elaps:  cdiag         17677       0.844   14923.623    76.49
elaps:  cdiag1        17677       0.053     932.657     4.78
elaps:  cdiag2        17677       0.238    4201.487    21.53
elaps:  cdiag3        17677       0.494    8739.309    44.79
elaps:  cdiag4        17677       0.026     455.392     2.33
elaps:  c-eigvec       8778       0.883    7749.266    39.72
elaps:  c-buildD       8778       0.444    3901.001    19.99
elaps:  DHSCF4            1       7.913       7.913     0.04
elaps:  dfscf             1       7.529       7.529     0.04
elaps:  overfsm           1       0.051       0.051     0.00
elaps:  optical           1       0.000       0.000     0.00
  
>> End of run:   2-MAY-2016   6:56:41
