Siesta Version:                                        siesta-3.2-pl-3
Architecture  : x86_64-unknown-linux-gnu--unknown
Compiler flags: mpiifort -g -O2 -fPIC -xSSE4.1 -fp-model source -shared-intel 
PARALLEL version

* Running on   12 nodes in parallel
>> Start of run:   5-MAY-2016  16:41:07

                           ***********************       
                           *  WELCOME TO SIESTA  *       
                           ***********************       

reinit: Reading from standard input
************************** Dump of input data file ****************************
#(1) General system descriptors
SystemName            GRP_doping    # Descriptive name of the system
SystemLabel           GRP_doping    # Short name for naming files
%include STRUCT.fdf
%include KPT.fdf
%include BASIS.fdf
#%include TS.fdf # for transiesta calculation
#(4) DFT, Grid, SCF
XC.functional         GGA           # LDA or GGA (default = LDA)
XC.authors            PBE           # CA (Ceperley-Aldr) = PZ
                                    #    (Perdew-Zunger) - LDA - Default
                                    # PW92 (Perdew-Wang-92) - LDA
                                    # PBE (Perdew-Burke-Ernzerhof) - GGA
MeshCutoff            200.000000    Ry      # Default: 50.0 Ry ~ 0.444 Bohr
                                    #         100.0 Ry ~ 0.314 Bohr
MaxSCFIterations      500           # Default: 50
DM.MixingWeight       0.05          # Default: 0.25
DM.NumberPulay        10            # Default: 0
DM.PulayOnFile        F             # SystemLabel.P1, SystemLabel.P2
DM.Tolerance          1.d-4         # Default: 1.d-4
DM.UseSaveDM          .true.        # because of the bug
SCFMustConverge       .true.
NeglNonOverlapInt     F             # Default: F
#(5) Eigenvalue problem: order-N or diagonalization
SolutionMethod        Diagon        # or Transiesta
ElectronicTemperature 300.0 K       # Default: 300.0 K
#(6) Molecular dynamics and relaxations
#MD.TypeOfRun          CG            # Type of dynamics:
#MD.VariableCell       F
#MD.NumCGsteps         0           # 0 for single-point / 100 for gopt
#MD.MaxCGDispl         0.2 Bohr      # Default: 0.2 Bohr
#MD.MaxForceTol        0.02 eV/Ang   # Default: 0.04 eV/Ang
#MD.MaxStressTol       1.0 GPa       # Default: 1.0 GPa
# Geometry Constraints
#%block GeometryConstraints
#	position from 1 to 44
#%endblock GeometryConstraints
BandLinesScale   pi/a
%block BandLines
 1   0.00000000  0.00000000  0.00000000
50   0.00000000  0.07809418  0.00000000
50   0.04509075  0.07809242  0.00000000
20   0.00000000  0.00000000  0.00000000
%endblock BandLines
************************** End of input data file *****************************

reinit: -----------------------------------------------------------------------
reinit: System Name: GRP_doping
reinit: -----------------------------------------------------------------------
reinit: System Label: GRP_doping                                                  
reinit: -----------------------------------------------------------------------

initatom: Reading input for the pseudopotentials and atomic orbitals ----------
 Species number:            1  Label: N Atomic number:           7
 Species number:            2  Label: C Atomic number:           6
Ground state valence configuration:   2s02  2p03
Reading pseudopotential information in formatted form from N.psf

Valence configuration for pseudopotential generation:
2s( 2.00) rc: 1.48
2p( 3.00) rc: 1.48
3d( 0.00) rc: 1.48
4f( 0.00) rc: 1.48
Ground state valence configuration:   2s02  2p02
Reading pseudopotential information in formatted form from C.psf

Valence configuration for pseudopotential generation:
2s( 2.00) rc: 1.54
2p( 2.00) rc: 1.54
3d( 0.00) rc: 1.54
4f( 0.00) rc: 1.54
For N, standard SIESTA heuristics set lmxkb to 3
 (one more than the basis l, including polarization orbitals).
Use PS.lmax or PS.KBprojectors blocks to override.
For C, standard SIESTA heuristics set lmxkb to 3
 (one more than the basis l, including polarization orbitals).
Use PS.lmax or PS.KBprojectors blocks to override.

<basis_specs>
===============================================================================
N                    Z=   7    Mass=  14.010        Charge= 0.17977+309
Lmxo=1 Lmxkb= 3    BasisType=split      Semic=F
L=0  Nsemic=0  Cnfigmx=2
          n=1  nzeta=2  polorb=0
            splnorm:   0.15000    
               vcte:    0.0000    
               rinn:    0.0000    
                rcs:    0.0000      0.0000    
            lambdas:    1.0000      1.0000    
L=1  Nsemic=0  Cnfigmx=2
          n=1  nzeta=2  polorb=1
            splnorm:   0.15000    
               vcte:    0.0000    
               rinn:    0.0000    
                rcs:    0.0000      0.0000    
            lambdas:    1.0000      1.0000    
-------------------------------------------------------------------------------
L=0  Nkbl=1  erefs: 0.17977+309
L=1  Nkbl=1  erefs: 0.17977+309
L=2  Nkbl=1  erefs: 0.17977+309
L=3  Nkbl=1  erefs: 0.17977+309
===============================================================================
</basis_specs>

atom: Called for N                     (Z =   7)

read_vps: Pseudopotential generation method:
read_vps: ATM3      Troullier-Martins                       
Total valence charge:    5.00000

read_vps: Pseudopotential includes a core correction:
read_vps: Pseudo-core for xc-correction

xc_check: Exchange-correlation functional:
xc_check: GGA Perdew, Burke & Ernzerhof 1996
V l=0 = -2*Zval/r beyond r=  1.4606
V l=1 = -2*Zval/r beyond r=  1.4606
V l=2 = -2*Zval/r beyond r=  1.4606
V l=3 = -2*Zval/r beyond r=  1.4606
All V_l potentials equal beyond r=  1.4606
This should be close to max(r_c) in ps generation
All pots = -2*Zval/r beyond r=  1.4606

VLOCAL1: 99.0% of the norm of Vloc inside     20.347 Ry
VLOCAL1: 99.9% of the norm of Vloc inside     46.372 Ry
atom: Maximum radius for 4*pi*r*r*local-pseudopot. charge    1.76189
atom: Maximum radius for r*vlocal+2*Zval:    1.53550
GHOST: No ghost state for L =  0
GHOST: No ghost state for L =  1
GHOST: No ghost state for L =  2
GHOST: No ghost state for L =  3

KBgen: Kleinman-Bylander projectors: 
   l= 0   rc=  1.634559   el= -1.363963   Ekb=  5.296955   kbcos=  0.335621
   l= 1   rc=  1.614250   el= -0.521451   Ekb= -5.259161   kbcos= -0.433408
   l= 2   rc=  1.718383   el=  0.001991   Ekb= -1.271464   kbcos= -0.007566
   l= 3   rc=  1.761893   el=  0.003093   Ekb= -0.494769   kbcos= -0.001015

KBgen: Total number of  Kleinman-Bylander projectors:   16
atom: -------------------------------------------------------------------------

atom: SANKEY-TYPE ORBITALS:
atom: Selected multiple-zeta basis: split     

SPLIT: Orbitals with angular momentum L= 0

SPLIT: Basis orbitals for state 2s

SPLIT: PAO cut-off radius determined from an
SPLIT: energy shift=  0.007350 Ry

   izeta = 1
                 lambda =    1.000000
                     rc =    4.071465
                 energy =   -1.356470
                kinetic =    1.176977
    potential(screened) =   -2.533447
       potential(ionic) =   -8.057990

   izeta = 2
                 rmatch =    2.905100
              splitnorm =    0.150000
                 energy =   -1.158343
                kinetic =    1.813009
    potential(screened) =   -2.971352
       potential(ionic) =   -8.901931

SPLIT: Orbitals with angular momentum L= 1

SPLIT: Basis orbitals for state 2p

SPLIT: PAO cut-off radius determined from an
SPLIT: energy shift=  0.007350 Ry

   izeta = 1
                 lambda =    1.000000
                     rc =    4.972977
                 energy =   -0.513884
                kinetic =    3.441732
    potential(screened) =   -3.955616
       potential(ionic) =   -9.287901

   izeta = 2
                 rmatch =    3.054066
              splitnorm =    0.150000
                 energy =   -0.318226
                kinetic =    5.125348
    potential(screened) =   -5.443573
       potential(ionic) =  -11.380999

POLgen: Perturbative polarization orbital with L=  2

POLgen: Polarization orbital for state 2p

   izeta = 1
                     rc =    4.972977
                 energy =    1.607437
                kinetic =    3.268125
    potential(screened) =   -1.660688
       potential(ionic) =   -5.973652
atom: Total number of Sankey-type orbitals: 13

atm_pop: Valence configuration (for local Pseudopot. screening):
 2s( 2.00)                                                            
 2p( 3.00)                                                            
Vna: chval, zval:    5.00000   5.00000

Vna:  Cut-off radius for the neutral-atom potential:   4.972977
comcore: Pseudo-core radius Rcore=  1.554824

atom: _________________________________________________________________________

<basis_specs>
===============================================================================
C                    Z=   6    Mass=  12.010        Charge= 0.17977+309
Lmxo=1 Lmxkb= 3    BasisType=split      Semic=F
L=0  Nsemic=0  Cnfigmx=2
          n=1  nzeta=2  polorb=0
            splnorm:   0.15000    
               vcte:    0.0000    
               rinn:    0.0000    
                rcs:    0.0000      0.0000    
            lambdas:    1.0000      1.0000    
L=1  Nsemic=0  Cnfigmx=2
          n=1  nzeta=2  polorb=1
            splnorm:   0.15000    
               vcte:    0.0000    
               rinn:    0.0000    
                rcs:    0.0000      0.0000    
            lambdas:    1.0000      1.0000    
-------------------------------------------------------------------------------
L=0  Nkbl=1  erefs: 0.17977+309
L=1  Nkbl=1  erefs: 0.17977+309
L=2  Nkbl=1  erefs: 0.17977+309
L=3  Nkbl=1  erefs: 0.17977+309
===============================================================================
</basis_specs>

atom: Called for C                     (Z =   6)

read_vps: Pseudopotential generation method:
read_vps: ATM3      Troullier-Martins                       
Total valence charge:    4.00000

read_vps: Pseudopotential includes a core correction:
read_vps: Pseudo-core for xc-correction

xc_check: Exchange-correlation functional:
xc_check: GGA Perdew, Burke & Ernzerhof 1996
V l=0 = -2*Zval/r beyond r=  1.5227
V l=1 = -2*Zval/r beyond r=  1.5227
V l=2 = -2*Zval/r beyond r=  1.5227
V l=3 = -2*Zval/r beyond r=  1.5038
All V_l potentials equal beyond r=  1.5227
This should be close to max(r_c) in ps generation
All pots = -2*Zval/r beyond r=  1.5227

VLOCAL1: 99.0% of the norm of Vloc inside     18.722 Ry
VLOCAL1: 99.9% of the norm of Vloc inside     42.668 Ry
atom: Maximum radius for 4*pi*r*r*local-pseudopot. charge    1.83678
atom: Maximum radius for r*vlocal+2*Zval:    1.58088
GHOST: No ghost state for L =  0
GHOST: No ghost state for L =  1
GHOST: No ghost state for L =  2
GHOST: No ghost state for L =  3

KBgen: Kleinman-Bylander projectors: 
   l= 0   rc=  1.704034   el= -1.009801   Ekb=  5.335044   kbcos=  0.316824
   l= 1   rc=  1.704034   el= -0.388707   Ekb= -3.785862   kbcos= -0.366464
   l= 2   rc=  1.791422   el=  0.001971   Ekb= -0.970471   kbcos= -0.009212
   l= 3   rc=  1.859892   el=  0.003065   Ekb= -0.399525   kbcos= -0.001223

KBgen: Total number of  Kleinman-Bylander projectors:   16
atom: -------------------------------------------------------------------------

atom: SANKEY-TYPE ORBITALS:
atom: Selected multiple-zeta basis: split     

SPLIT: Orbitals with angular momentum L= 0

SPLIT: Basis orbitals for state 2s

SPLIT: PAO cut-off radius determined from an
SPLIT: energy shift=  0.007350 Ry

   izeta = 1
                 lambda =    1.000000
                     rc =    4.632753
                 energy =   -1.002270
                kinetic =    0.855760
    potential(screened) =   -1.858031
       potential(ionic) =   -5.417575

   izeta = 2
                 rmatch =    3.431921
              splitnorm =    0.150000
                 energy =   -0.867111
                kinetic =    1.300804
    potential(screened) =   -2.167915
       potential(ionic) =   -5.962684

SPLIT: Orbitals with angular momentum L= 1

SPLIT: Basis orbitals for state 2p

SPLIT: PAO cut-off radius determined from an
SPLIT: energy shift=  0.007350 Ry

   izeta = 1
                 lambda =    1.000000
                     rc =    5.658549
                 energy =   -0.381140
                kinetic =    2.399701
    potential(screened) =   -2.780841
       potential(ionic) =   -6.206085

   izeta = 2
                 rmatch =    3.653288
              splitnorm =    0.150000
                 energy =   -0.249149
                kinetic =    3.542762
    potential(screened) =   -3.791911
       potential(ionic) =   -7.581078

POLgen: Perturbative polarization orbital with L=  2

POLgen: Polarization orbital for state 2p

   izeta = 1
                     rc =    5.658549
                 energy =    1.109913
                kinetic =    2.304789
    potential(screened) =   -1.194876
       potential(ionic) =   -4.013592
atom: Total number of Sankey-type orbitals: 13

atm_pop: Valence configuration (for local Pseudopot. screening):
 2s( 2.00)                                                            
 2p( 2.00)                                                            
Vna: chval, zval:    4.00000   4.00000

Vna:  Cut-off radius for the neutral-atom potential:   5.658549
comcore: Pseudo-core radius Rcore=  1.791422

atom: _________________________________________________________________________

prinput: Basis input ----------------------------------------------------------

PAO.BasisType split     

%block ChemicalSpeciesLabel
    1    7 N                       # Species index, atomic number, species label
    2    6 C                       # Species index, atomic number, species label
%endblock ChemicalSpeciesLabel

%block PAO.Basis                 # Define Basis set
N                     2                    # Species label, number of l-shells
 n=2   0   2                         # n, l, Nzeta 
   4.071      2.905   
   1.000      1.000   
 n=2   1   2 P   1                   # n, l, Nzeta, Polarization, NzetaPol
   4.973      3.054   
   1.000      1.000   
C                     2                    # Species label, number of l-shells
 n=2   0   2                         # n, l, Nzeta 
   4.633      3.432   
   1.000      1.000   
 n=2   1   2 P   1                   # n, l, Nzeta, Polarization, NzetaPol
   5.659      3.653   
   1.000      1.000   
%endblock PAO.Basis

prinput: ----------------------------------------------------------------------

coor:   Atomic-coordinates input format  =     Fractional

siesta: Atomic coordinates (Bohr) and species
siesta:      6.95932  30.82560   0.00000  1        1
siesta:      9.28770  29.48119   0.00000  1        2
siesta:      2.30256   9.31683   0.00000  1        3
siesta:     -0.02582  10.66124   0.00000  1        4
siesta:     -0.02582  13.34970   0.00000  1        5
siesta:     -2.35420  14.69411   0.00000  1        6
siesta:     -2.35420  17.38257   0.00000  1        7
siesta:     -4.68258  18.72698   0.00000  1        8
siesta:     -4.68258  21.41544   0.00000  1        9
siesta:     -7.01096  22.75985   0.00000  1       10
siesta:      4.63094  29.48119   0.00000  1       11
siesta:     -0.02582  29.48119   0.00000  1       12
siesta:     -4.68258  29.48119   0.00000  1       13
siesta:      2.30256  30.82560   0.00000  1       14
siesta:     -2.35420  30.82560   0.00000  1       15
siesta:     -7.01096  30.82560   0.00000  1       16
siesta:     -0.02582   2.59549   0.00000  2       17
siesta:     -0.02582   5.28395   0.00000  2       18
siesta:     -2.35420  38.89134   0.00000  2       19
siesta:     -2.35420  41.57980   0.00000  2       20
siesta:      2.30256  38.89134   0.00000  2       21
siesta:      2.30256  41.57980   0.00000  2       22
siesta:      4.63094  34.85847   0.00000  2       23
siesta:      4.63094  37.54693   0.00000  2       24
siesta:      6.95932  33.51406   0.00000  2       25
siesta:      9.28770  26.79272   0.00000  2       26
siesta:     -4.68258  34.85847   0.00000  2       27
siesta:     -4.68258  37.54693   0.00000  2       28
siesta:      2.30256   6.62836   0.00000  2       29
siesta:      4.63094  10.66124   0.00000  2       30
siesta:      4.63094  13.34970   0.00000  2       31
siesta:      6.95932  14.69411   0.00000  2       32
siesta:      6.95932  17.38257   0.00000  2       33
siesta:      9.28770  18.72698   0.00000  2       34
siesta:      9.28770  21.41544   0.00000  2       35
siesta:     11.61608  22.75985   0.00000  2       36
siesta:     11.61608  25.44831   0.00000  2       37
siesta:     -2.35420   6.62836   0.00000  2       38
siesta:     -2.35420   9.31683   0.00000  2       39
siesta:      2.30256  14.69411   0.00000  2       40
siesta:      2.30256  17.38257   0.00000  2       41
siesta:      4.63094  18.72698   0.00000  2       42
siesta:      4.63094  21.41544   0.00000  2       43
siesta:      6.95932  22.75985   0.00000  2       44
siesta:      6.95932  25.44831   0.00000  2       45
siesta:     -4.68258  10.66124   0.00000  2       46
siesta:     -4.68258  13.34970   0.00000  2       47
siesta:     -0.02582  18.72698   0.00000  2       48
siesta:     -0.02582  21.41544   0.00000  2       49
siesta:      2.30256  22.75985   0.00000  2       50
siesta:      2.30256  25.44831   0.00000  2       51
siesta:     -7.01096  14.69411   0.00000  2       52
siesta:     -7.01096  17.38257   0.00000  2       53
siesta:     -2.35420  22.75985   0.00000  2       54
siesta:     -2.35420  25.44831   0.00000  2       55
siesta:     -9.33934  18.72698   0.00000  2       56
siesta:     -9.33934  21.41544   0.00000  2       57
siesta:     -7.01096  25.44831   0.00000  2       58
siesta:    -11.66772  22.75985   0.00000  2       59
siesta:    -11.66772  25.44831   0.00000  2       60
siesta:     -9.33934  26.79272   0.00000  2       61
siesta:     -9.33934  29.48119   0.00000  2       62
siesta:      4.63094  26.79272   0.00000  2       63
siesta:     -0.02582  26.79272   0.00000  2       64
siesta:     -4.68258  26.79272   0.00000  2       65
siesta:      2.30256  33.51406   0.00000  2       66
siesta:     -2.35420  33.51406   0.00000  2       67
siesta:     -7.01096  33.51406   0.00000  2       68
siesta:     -0.02582  34.85847   0.00000  2       69
siesta:     -0.02582  37.54693   0.00000  2       70
siesta:     -0.02582  42.92421   0.00000  2       71
siesta:     -0.02582  45.61267   0.00000  2       72

siesta: System type = slab      

initatomlists: Number of atoms, orbitals, and projectors:     72   936  1152

siesta: ******************** Simulation parameters ****************************
siesta:
siesta: The following are some of the parameters of the simulation.
siesta: A complete list of the parameters used, including default values,
siesta: can be found in file out.fdf
siesta:
redata: Non-Collinear-spin run           =     F
redata: SpinPolarized (Up/Down) run      =     F
redata: Number of spin components        =     1
redata: Long output                      =     F
redata: Number of Atomic Species         =        2
redata: Charge density info will appear in .RHO file
redata: Write Mulliken Pop.              =     NO
redata: Mesh Cutoff                      =   200.0000  Ry
redata: Net charge of the system         =     0.0000 |e|
redata: Max. number of SCF Iter          =      500
redata: SCF convergence failure will abort job
redata: Performing Pulay mixing using    =    10 iterations
redata: Mix DM in first SCF step ?       =     F
redata: Write Pulay info on disk?        =     F
redata: Discard 1st Pulay DM after  kick =     F
redata: New DM Mixing Weight             =     0.0500
redata: New DM Occupancy tolerance       = 0.000000000001
redata: No kicks to SCF
redata: DM Mixing Weight for Kicks       =     0.5000
redata: DM Tolerance for SCF             =     0.000100
redata: Require Energy convergence for SCF =     F
redata: DM Energy tolerance for SCF      =     0.000100 eV
redata: Require Harris convergence for SCF =     F
redata: DM Harris energy tolerance for SCF =     0.000100 eV
redata: Using Saved Data (generic)   =     F
redata: Use continuation files for DM    =     T
redata: Neglect nonoverlap interactions  =     F
redata: Method of Calculation            =     Diagonalization
redata: Divide and Conquer               =     T
redata: Electronic Temperature           =     0.0019  Ry
redata: Fix the spin of the system       =     F
redata: Dynamics option                  =     Verlet MD run
redata: Initial MD time step             =        1
redata:   Final MD time step             =        1
redata: Length of MD time step           =     1.0000  fs
redata: Initial Temperature of MD run    =     0.0000  K
redata: Perform a MD quench              =     F
redata: ***********************************************************************
Total number of electrons:   304.000000
Total ionic charge:   304.000000

* ProcessorY, Blocksize:    3  24

k-point displ. along   1 input, could be:     0.50    0.00
k-point displ. along   2 input, could be:     0.50    0.00
 Kpoints in:          231 . Kpoints trimmed:          231

siesta: k-grid: Number of k-points =   231
siesta: k-grid: Cutoff (effective) =     5.000 Ang
siesta: k-grid: Supercell and displacements
siesta: k-grid:   21   0   0      0.500
siesta: k-grid:    0  21   0      0.500
siesta: k-grid:    0   0   1      0.000
Naive supercell factors:     2    2    2

superc: Internal auxiliary supercell:     2 x     2 x     2  =       8
superc: Number of atoms, orbitals, and projectors:    576   7488   9216

* Maximum dynamic memory allocated =     4 MB

siesta:                 ==============================
                            Begin MD step =      1
                        ==============================

superc: Internal auxiliary supercell:     2 x     2 x     2  =       8
superc: Number of atoms, orbitals, and projectors:    576   7488   9216

outcell: Unit cell vectors (Ang):
       12.804619    7.392750    0.000000
        0.000000   14.785500    0.000000
        0.000000    0.000000   10.000000

outcell: Cell vector modules (Ang)   :   14.785500   14.785500   10.000000
outcell: Cell angles (23,13,12) (deg):     90.0000     90.0000     60.0000
outcell: Cell volume (Ang**3)        :   1893.2269
New_DM. Step:     1
Initializing Density Matrix...

InitMesh: MESH =   120 x   120 x    90 =     1296000
InitMesh: Mesh cutoff (required, used) =   200.000   223.865 Ry

* Maximum dynamic memory allocated =   134 MB

stepf: Fermi-Dirac step function

siesta: Program's energy decomposition (eV):
siesta: Ebs     =     -6187.756022
siesta: Eions   =     20974.960578
siesta: Ena     =      4886.146171
siesta: Ekin    =      7720.939539
siesta: Enl     =       160.868295
siesta: DEna    =        -0.000015
siesta: DUscf   =         0.000000
siesta: DUext   =         0.000000
siesta: Exc     =     -4571.047270
siesta: eta*DQ  =         0.000000
siesta: Emadel  =         0.000000
siesta: Emeta   =         0.000000
siesta: Emolmec =         0.000000
siesta: Ekinion =         0.000000
siesta: Eharris =    -12414.682868
siesta: Etot    =    -12778.053857
siesta: FreeEng =    -12778.053857

siesta: iscf   Eharris(eV)      E_KS(eV)   FreeEng(eV)   dDmax  Ef(eV)
siesta:    1   -12414.6829   -12778.0539   -12778.0539  6.2117 -7.1913
timer: Routine,Calls,Time,% = IterSCF        1    3003.481  99.59
elaps: Routine,Calls,Wall,% = IterSCF        1     250.887  99.59
siesta:    2   -15806.6409   -11849.9272   -11849.9398  9.1882 -3.0197
siesta:    3   -12364.2722   -12492.8617   -12492.9409  1.3751 -4.3570
siesta:    4   -12309.7329   -12425.8052   -12425.8072  1.0638 -4.0742
siesta:    5   -12277.9567   -12387.7753   -12387.7790  0.8301 -3.9231
siesta:    6   -12270.9109   -12364.4166   -12364.4644  1.0709 -3.7798
siesta:    7   -12261.8666   -12350.4077   -12350.4732  0.6896 -4.0424
siesta:    8   -12257.9983   -12339.8157   -12339.8381  0.7531 -4.0039
siesta:    9   -12254.7902   -12326.5509   -12326.6085  0.7802 -4.0647
siesta:   10   -12254.6151   -12293.5765   -12293.6218  0.4574 -3.9944
siesta:   11   -12254.4337   -12279.6864   -12279.7266  0.3789 -4.0353
siesta:   12   -12254.6301   -12261.7509   -12261.7991  0.3606 -3.9641
siesta:   13   -12253.6305   -12250.5750   -12250.6196  0.1884 -4.0037
siesta:   14   -12253.4039   -12249.2445   -12249.3184  0.3392 -4.0451
siesta:   15   -12253.1964   -12249.1798   -12249.2381  0.1324 -4.0403
siesta:   16   -12252.9968   -12251.0563   -12251.1295  0.2169 -4.0331
siesta:   17   -12252.9103   -12251.2394   -12251.3089  0.0778 -4.0444
siesta:   18   -12252.8758   -12251.3348   -12251.4129  0.0845 -4.0345
siesta:   19   -12252.8591   -12251.8796   -12251.9608  0.0424 -4.0241
siesta:   20   -12252.8492   -12251.5675   -12251.6491  0.0274 -4.0203
siesta:   21   -12252.8433   -12251.7686   -12251.8498  0.0364 -4.0196
siesta:   22   -12252.8396   -12252.4333   -12252.5141  0.0096 -4.0212
siesta:   23   -12252.8384   -12252.5377   -12252.6184  0.0099 -4.0215
siesta:   24   -12252.8382   -12252.6793   -12252.7604  0.0065 -4.0222
siesta:   25   -12252.8375   -12252.8777   -12252.9586  0.0054 -4.0216
siesta:   26   -12252.8374   -12252.8156   -12252.8967  0.0020 -4.0210
siesta:   27   -12252.8373   -12252.7926   -12252.8736  0.0016 -4.0210
siesta:   28   -12252.8373   -12252.7754   -12252.8565  0.0010 -4.0211
siesta:   29   -12252.8373   -12252.8039   -12252.8849  0.0011 -4.0213
siesta:   30   -12252.8373   -12252.8126   -12252.8936  0.0006 -4.0212
siesta:   31   -12252.8373   -12252.8196   -12252.9006  0.0006 -4.0213
siesta:   32   -12252.8373   -12252.8284   -12252.9094  0.0005 -4.0214
siesta:   33   -12252.8373   -12252.8318   -12252.9129  0.0001 -4.0214
siesta:   34   -12252.8373   -12252.8354   -12252.9164  0.0002 -4.0214
siesta:   35   -12252.8373   -12252.8340   -12252.9150  0.0001 -4.0214
siesta:   36   -12252.8373   -12252.8325   -12252.9136  0.0001 -4.0215
siesta:   37   -12252.8373   -12252.8349   -12252.9159  0.0001 -4.0215

siesta: E_KS(eV) =           -12252.8350

siesta: E_KS - E_eggbox =    -12252.8350

siesta: Atomic forces (eV/Ang):
----------------------------------------
   Tot   -0.243325   -0.013297    0.000000
----------------------------------------
   Max  689.529547
   Res  173.092675    sqrt( Sum f_i^2 / 3N )
----------------------------------------
   Max  689.529547    constrained

Stress-tensor-Voigt (kbar):     -681.76    -3082.46       -0.08      -14.13        0.00        0.00
(Free)E + p*V (eV/cell)   -10770.2285
Target enthalpy (eV/cell)   -12252.9160

siesta: Stress tensor (static) (eV/Ang**3):
        -0.425514   -0.008820    0.000000
        -0.008820   -1.923899    0.000000
         0.000000    0.000000   -0.000048

siesta: Pressure (static):       1254.76404421  kBar

siesta: Stress tensor (total) (eV/Ang**3):
        -0.425514   -0.008820    0.000000
        -0.008820   -1.923899    0.000000
         0.000000    0.000000   -0.000048

siesta: Pressure (total):       1254.76404421  kBar

siesta: Temp_ion =       0.000 K

* Maximum dynamic memory allocated =   145 MB
Computing bands...

siesta: Program's energy decomposition (eV):
siesta: Ebs     =     -4916.949108
siesta: Eions   =     20974.960578
siesta: Ena     =      4886.146171
siesta: Ekin    =     10794.396531
siesta: Enl     =     -1519.135734
siesta: DEna    =      -801.087074
siesta: DUscf   =       108.601938
siesta: DUext   =         0.000000
siesta: Exc     =     -4746.796237
siesta: eta*DQ  =         0.000000
siesta: Emadel  =         0.000000
siesta: Emeta   =         0.000000
siesta: Emolmec =         0.000000
siesta: Ekinion =         0.000000
siesta: Eharris =    -12252.837273
siesta: Etot    =    -12252.834983
siesta: FreeEng =    -12252.916023

siesta: Final energy (eV):
siesta:  Band Struct. =   -4916.949108
siesta:       Kinetic =   10794.396531
siesta:       Hartree =   35227.697730
siesta:    Ext. field =       0.000000
siesta:   Exch.-corr. =   -4746.796237
siesta:  Ion-electron =  -80770.337911
siesta:       Ion-ion =   27242.204905
siesta:       Ekinion =       0.000000
siesta:         Total =  -12252.834983

siesta: Atomic forces (eV/Ang):
siesta:      1    1.641700    1.557313    0.000000
siesta:      2   -1.336196   -0.605146    0.000000
siesta:      3   -5.617367 -119.117980    0.000000
siesta:      4   -6.178845  655.848587    0.000000
siesta:      5    2.388788 -109.437855    0.000000
siesta:      6   -5.442023  673.658650    0.000000
siesta:      7  -26.682052   -3.109955    0.000000
siesta:      8   -1.498593    3.397741    0.000000
siesta:      9    1.033587    1.936726    0.000000
siesta:     10   -0.153963    1.859634    0.000000
siesta:     11   -0.029200   -4.711954    0.000000
siesta:     12    1.232677 -689.529547    0.000000
siesta:     13    0.484134   -4.439863    0.000000
siesta:     14   35.180696   16.549318    0.000000
siesta:     15  -36.106107   16.996689    0.000000
siesta:     16   -2.961626    1.448637    0.000000
siesta:     17   -0.282451  645.594308    0.000000
siesta:     18    0.853860 -122.277282    0.000000
siesta:     19    1.645033  119.185919    0.000000
siesta:     20  -14.532222 -659.245536    0.000000
siesta:     21    2.635106  121.498346    0.000000
siesta:     22   -3.569320 -548.772846    0.000000
siesta:     23   27.035307    3.242321    0.000000
siesta:     24   24.973410 -550.016297    0.000000
siesta:     25   -1.271209   -1.963148    0.000000
siesta:     26    1.115329    3.776731    0.000000
siesta:     27  -25.332349    5.848579    0.000000
siesta:     28  -31.485888 -550.597451    0.000000
siesta:     29    6.764813  538.065873    0.000000
siesta:     30   31.541520  553.152066    0.000000
siesta:     31   27.579342   -4.491239    0.000000
siesta:     32   -2.731327   -1.658942    0.000000
siesta:     33    1.559868   -0.141546    0.000000
siesta:     34   -1.153176    0.441489    0.000000
siesta:     35    1.946458   -2.795137    0.000000
siesta:     36   -0.233156    7.963807    0.000000
siesta:     37   -0.482888   -6.346359    0.000000
siesta:     38  -20.095655  548.081000    0.000000
siesta:     39   -0.764741 -132.205109    0.000000
siesta:     40   24.988895  564.131557    0.000000
siesta:     41   24.586300   -4.487209    0.000000
siesta:     42   -1.283968    2.202405    0.000000
siesta:     43    0.147241    0.064981    0.000000
siesta:     44   -0.473938    1.077273    0.000000
siesta:     45   -0.496800   -0.818676    0.000000
siesta:     46  -30.270215  550.715783    0.000000
siesta:     47  -27.303528   -8.917436    0.000000
siesta:     48   16.140830  574.087432    0.000000
siesta:     49   -0.806668    0.524634    0.000000
siesta:     50    0.431415    0.172707    0.000000
siesta:     51    0.750814    0.848724    0.000000
siesta:     52    2.126707   -0.269568    0.000000
siesta:     53   -1.736635   -0.268378    0.000000
siesta:     54   -1.067173   -1.749348    0.000000
siesta:     55   -0.363346    1.627879    0.000000
siesta:     56    1.553216   -0.201709    0.000000
siesta:     57   -1.453653   -1.759675    0.000000
siesta:     58    1.325747   -1.456314    0.000000
siesta:     59    0.850549    5.723211    0.000000
siesta:     60    0.166881   -5.784750    0.000000
siesta:     61   -1.257273    1.469262    0.000000
siesta:     62    1.702385    1.643125    0.000000
siesta:     63    0.210185    0.670363    0.000000
siesta:     64   -0.615937    0.569892    0.000000
siesta:     65   -0.586601    0.296386    0.000000
siesta:     66   24.242327 -559.413734    0.000000
siesta:     67  -17.091795 -559.458422    0.000000
siesta:     68    1.557192   -1.191509    0.000000
siesta:     69    3.146360  126.321742    0.000000
siesta:     70   13.927346 -667.145281    0.000000
siesta:     71   -0.087632  122.628884    0.000000
siesta:     72  -14.873828 -550.508069    0.000000
siesta: ----------------------------------------
siesta:    Tot   -0.243325   -0.013297    0.000000

siesta: Stress tensor (static) (eV/Ang**3):
siesta:    -0.425514   -0.008820    0.000000
siesta:    -0.008820   -1.923899    0.000000
siesta:     0.000000    0.000000   -0.000048

siesta: Cell volume =       1893.226884 Ang**3

siesta: Pressure (static):
siesta:                Solid            Molecule  Units
siesta:           0.00852954          0.13617778  Ry/Bohr**3
siesta:           0.78315365         12.50338102  eV/Ang**3
siesta:        1254.76404421      20032.84144316  kBar
(Free)E+ p_basis*V_orbitals  =      -12224.465823
(Free)Eharris+ p_basis*V_orbitals  =      -12224.468187

siesta: Electric dipole (a.u.)  =    0.000000    0.000000    0.000000
siesta: Electric dipole (Debye) =    0.000000    0.000000    0.000000

* Maximum dynamic memory allocated : Node    0 =   144 MB
* Maximum dynamic memory allocated : Node    1 =    58 MB
* Maximum dynamic memory allocated : Node    2 =    61 MB
* Maximum dynamic memory allocated : Node    3 =   133 MB
* Maximum dynamic memory allocated : Node    4 =   145 MB
* Maximum dynamic memory allocated : Node    5 =    53 MB
* Maximum dynamic memory allocated : Node    6 =    53 MB
* Maximum dynamic memory allocated : Node    7 =   137 MB
* Maximum dynamic memory allocated : Node    8 =   127 MB
* Maximum dynamic memory allocated : Node    9 =    52 MB
* Maximum dynamic memory allocated : Node   10 =    54 MB
* Maximum dynamic memory allocated : Node   11 =   122 MB

* Maximum memory occured during matrixMtoO                    

timer: CPU execution times:
timer:  Routine       Calls   Time/call    Tot.time        %
timer:  siesta            1  108858.093  108858.093   100.00
timer:  Setup             1       3.520       3.520     0.00
timer:  bands             3     225.823     677.468     0.62
timer:  writewave         1       0.024       0.024     0.00
timer:  KSV_init          1       0.004       0.004     0.00
timer:  IterMD            1  108170.170  108170.170    99.37
timer:  hsparse           1       0.160       0.160     0.00
timer:  overlap           1       7.361       7.361     0.01
timer:  IterSCF          37    2920.214  108047.921    99.26
timer:  kinefsm           2       3.731       7.461     0.01
timer:  nlefsm            2      18.194      36.389     0.03
timer:  DHSCF            38      61.833    2349.651     2.16
timer:  DHSCF1            1       0.902       0.902     0.00
timer:  DHSCF2            1      24.565      24.565     0.02
timer:  REORD           306       0.003       0.793     0.00
timer:  POISON           39       0.448      17.489     0.02
timer:  DHSCF3           38      60.613    2303.282     2.12
timer:  rhoofd           38      12.129     460.913     0.42
timer:  cellXC           38       2.436      92.562     0.09
timer:  vmat             38      29.117    1106.458     1.02
timer:  MolMec            2       0.000       0.001     0.00
timer:  diagon           37    2857.122  105713.514    97.11
timer:  c-eigval       8668       5.581   48377.285    44.44
timer:  c-buildHS      8668       0.033     282.186     0.26
timer:  cdiag         17215       5.684   97848.458    89.89
timer:  cdiag1        17215       0.262    4507.620     4.14
timer:  cdiag2        17215       1.835   31587.248    29.02
timer:  cdiag3        17215       3.375   58095.807    53.37
timer:  cdiag4        17215       0.088    1520.282     1.40
timer:  c-eigvec       8547       5.848   49983.897    45.92
timer:  c-buildD       8547       0.934    7983.234     7.33
timer:  DHSCF4            1      20.661      20.661     0.02
timer:  dfscf             1      19.241      19.241     0.02
timer:  overfsm           1       0.277       0.277     0.00
timer:  optical           1       6.329       6.329     0.01
  

elaps: ELAPSED times:
elaps:  Routine       Calls   Time/call    Tot.time        %
elaps:  siesta            1    9092.872    9092.872   100.00
elaps:  Setup             1       0.292       0.292     0.00
elaps:  bands             3      18.878      56.635     0.62
elaps:  writewave         1       0.002       0.002     0.00
elaps:  KSV_init          1       0.000       0.000     0.00
elaps:  IterMD            1    9035.412    9035.412    99.37
elaps:  hsparse           1       0.016       0.016     0.00
elaps:  overlap           1       0.709       0.709     0.01
elaps:  IterSCF          37     243.924    9025.201    99.26
elaps:  kinefsm           2       0.362       0.723     0.01
elaps:  nlefsm            2       1.582       3.164     0.03
elaps:  DHSCF            38       5.209     197.958     2.18
elaps:  DHSCF1            1       0.077       0.077     0.00
elaps:  DHSCF2            1       2.051       2.051     0.02
elaps:  REORD           306       0.000       0.092     0.00
elaps:  POISON           39       0.038       1.467     0.02
elaps:  DHSCF3           38       5.064     192.441     2.12
elaps:  rhoofd           38       2.134      81.087     0.89
elaps:  cellXC           38       0.203       7.716     0.08
elaps:  vmat             38       2.433      92.471     1.02
elaps:  MolMec            2       0.000       0.000     0.00
elaps:  diagon           37     238.658    8830.347    97.11
elaps:  c-eigval       8668       0.466    4040.876    44.44
elaps:  c-buildHS      8668       0.003      29.467     0.32
elaps:  cdiag         17215       0.471    8113.690    89.23
elaps:  cdiag1        17215       0.021     367.948     4.05
elaps:  cdiag2        17215       0.153    2640.864    29.04
elaps:  cdiag3        17215       0.282    4859.800    53.45
elaps:  cdiag4        17215       0.007     121.664     1.34
elaps:  c-eigvec       8547       0.483    4126.634    45.38
elaps:  c-buildD       8547       0.084     715.102     7.86
elaps:  DHSCF4            1       3.352       3.352     0.04
elaps:  dfscf             1       3.165       3.165     0.03
elaps:  overfsm           1       0.029       0.029     0.00
elaps:  optical           1       0.000       0.000     0.00
  
>> End of run:   5-MAY-2016  19:12:40
