Siesta Version:                                        siesta-3.2-pl-3
Architecture  : x86_64-unknown-linux-gnu--unknown
Compiler flags: mpiifort -g -O2 -fPIC -xSSE4.1 -fp-model source -shared-intel 
PARALLEL version

* Running on    8 nodes in parallel
>> Start of run:   7-MAY-2016   7:52:41

                           ***********************       
                           *  WELCOME TO SIESTA  *       
                           ***********************       

reinit: Reading from standard input
************************** Dump of input data file ****************************
#(1) General system descriptors
SystemName            GRP_doping    # Descriptive name of the system
SystemLabel           GRP_doping    # Short name for naming files
%include STRUCT.fdf
%include KPT.fdf
%include BASIS.fdf
#%include TS.fdf # for transiesta calculation
#(4) DFT, Grid, SCF
XC.functional         GGA           # LDA or GGA (default = LDA)
XC.authors            PBE           # CA (Ceperley-Aldr) = PZ
                                    #    (Perdew-Zunger) - LDA - Default
                                    # PW92 (Perdew-Wang-92) - LDA
                                    # PBE (Perdew-Burke-Ernzerhof) - GGA
MeshCutoff            200.000000    Ry      # Default: 50.0 Ry ~ 0.444 Bohr
                                    #         100.0 Ry ~ 0.314 Bohr
MaxSCFIterations      500           # Default: 50
DM.MixingWeight       0.05          # Default: 0.25
DM.NumberPulay        10            # Default: 0
DM.PulayOnFile        F             # SystemLabel.P1, SystemLabel.P2
DM.Tolerance          1.d-4         # Default: 1.d-4
DM.UseSaveDM          .true.        # because of the bug
SCFMustConverge       .true.
NeglNonOverlapInt     F             # Default: F
#(5) Eigenvalue problem: order-N or diagonalization
SolutionMethod        Diagon        # or Transiesta
ElectronicTemperature 300.0 K       # Default: 300.0 K
#(6) Molecular dynamics and relaxations
#MD.TypeOfRun          CG            # Type of dynamics:
#MD.VariableCell       F
#MD.NumCGsteps         0           # 0 for single-point / 100 for gopt
#MD.MaxCGDispl         0.2 Bohr      # Default: 0.2 Bohr
#MD.MaxForceTol        0.02 eV/Ang   # Default: 0.04 eV/Ang
#MD.MaxStressTol       1.0 GPa       # Default: 1.0 GPa
# Geometry Constraints
#%block GeometryConstraints
#	position from 1 to 44
#%endblock GeometryConstraints
BandLinesScale   pi/a
%block BandLines
 1   0.00000000  0.00000000  0.00000000
50   0.00000000  0.07809418  0.00000000
50   0.04509075  0.07809242  0.00000000
20   0.00000000  0.00000000  0.00000000
%endblock BandLines
************************** End of input data file *****************************

reinit: -----------------------------------------------------------------------
reinit: System Name: GRP_doping
reinit: -----------------------------------------------------------------------
reinit: System Label: GRP_doping                                                  
reinit: -----------------------------------------------------------------------

initatom: Reading input for the pseudopotentials and atomic orbitals ----------
 Species number:            1  Label: N Atomic number:           7
 Species number:            2  Label: C Atomic number:           6
Ground state valence configuration:   2s02  2p03
Reading pseudopotential information in formatted form from N.psf

Valence configuration for pseudopotential generation:
2s( 2.00) rc: 1.48
2p( 3.00) rc: 1.48
3d( 0.00) rc: 1.48
4f( 0.00) rc: 1.48
Ground state valence configuration:   2s02  2p02
Reading pseudopotential information in formatted form from C.psf

Valence configuration for pseudopotential generation:
2s( 2.00) rc: 1.54
2p( 2.00) rc: 1.54
3d( 0.00) rc: 1.54
4f( 0.00) rc: 1.54
For N, standard SIESTA heuristics set lmxkb to 3
 (one more than the basis l, including polarization orbitals).
Use PS.lmax or PS.KBprojectors blocks to override.
For C, standard SIESTA heuristics set lmxkb to 3
 (one more than the basis l, including polarization orbitals).
Use PS.lmax or PS.KBprojectors blocks to override.

<basis_specs>
===============================================================================
N                    Z=   7    Mass=  14.010        Charge= 0.17977+309
Lmxo=1 Lmxkb= 3    BasisType=split      Semic=F
L=0  Nsemic=0  Cnfigmx=2
          n=1  nzeta=2  polorb=0
            splnorm:   0.15000    
               vcte:    0.0000    
               rinn:    0.0000    
                rcs:    0.0000      0.0000    
            lambdas:    1.0000      1.0000    
L=1  Nsemic=0  Cnfigmx=2
          n=1  nzeta=2  polorb=1
            splnorm:   0.15000    
               vcte:    0.0000    
               rinn:    0.0000    
                rcs:    0.0000      0.0000    
            lambdas:    1.0000      1.0000    
-------------------------------------------------------------------------------
L=0  Nkbl=1  erefs: 0.17977+309
L=1  Nkbl=1  erefs: 0.17977+309
L=2  Nkbl=1  erefs: 0.17977+309
L=3  Nkbl=1  erefs: 0.17977+309
===============================================================================
</basis_specs>

atom: Called for N                     (Z =   7)

read_vps: Pseudopotential generation method:
read_vps: ATM3      Troullier-Martins                       
Total valence charge:    5.00000

read_vps: Pseudopotential includes a core correction:
read_vps: Pseudo-core for xc-correction

xc_check: Exchange-correlation functional:
xc_check: GGA Perdew, Burke & Ernzerhof 1996
V l=0 = -2*Zval/r beyond r=  1.4606
V l=1 = -2*Zval/r beyond r=  1.4606
V l=2 = -2*Zval/r beyond r=  1.4606
V l=3 = -2*Zval/r beyond r=  1.4606
All V_l potentials equal beyond r=  1.4606
This should be close to max(r_c) in ps generation
All pots = -2*Zval/r beyond r=  1.4606

VLOCAL1: 99.0% of the norm of Vloc inside     20.347 Ry
VLOCAL1: 99.9% of the norm of Vloc inside     46.372 Ry
atom: Maximum radius for 4*pi*r*r*local-pseudopot. charge    1.76189
atom: Maximum radius for r*vlocal+2*Zval:    1.53550
GHOST: No ghost state for L =  0
GHOST: No ghost state for L =  1
GHOST: No ghost state for L =  2
GHOST: No ghost state for L =  3

KBgen: Kleinman-Bylander projectors: 
   l= 0   rc=  1.634559   el= -1.363963   Ekb=  5.296955   kbcos=  0.335621
   l= 1   rc=  1.614250   el= -0.521451   Ekb= -5.259161   kbcos= -0.433408
   l= 2   rc=  1.718383   el=  0.001991   Ekb= -1.271464   kbcos= -0.007566
   l= 3   rc=  1.761893   el=  0.003093   Ekb= -0.494769   kbcos= -0.001015

KBgen: Total number of  Kleinman-Bylander projectors:   16
atom: -------------------------------------------------------------------------

atom: SANKEY-TYPE ORBITALS:
atom: Selected multiple-zeta basis: split     

SPLIT: Orbitals with angular momentum L= 0

SPLIT: Basis orbitals for state 2s

SPLIT: PAO cut-off radius determined from an
SPLIT: energy shift=  0.007350 Ry

   izeta = 1
                 lambda =    1.000000
                     rc =    4.071465
                 energy =   -1.356470
                kinetic =    1.176977
    potential(screened) =   -2.533447
       potential(ionic) =   -8.057990

   izeta = 2
                 rmatch =    2.905100
              splitnorm =    0.150000
                 energy =   -1.158343
                kinetic =    1.813009
    potential(screened) =   -2.971352
       potential(ionic) =   -8.901931

SPLIT: Orbitals with angular momentum L= 1

SPLIT: Basis orbitals for state 2p

SPLIT: PAO cut-off radius determined from an
SPLIT: energy shift=  0.007350 Ry

   izeta = 1
                 lambda =    1.000000
                     rc =    4.972977
                 energy =   -0.513884
                kinetic =    3.441732
    potential(screened) =   -3.955616
       potential(ionic) =   -9.287901

   izeta = 2
                 rmatch =    3.054066
              splitnorm =    0.150000
                 energy =   -0.318226
                kinetic =    5.125348
    potential(screened) =   -5.443573
       potential(ionic) =  -11.380999

POLgen: Perturbative polarization orbital with L=  2

POLgen: Polarization orbital for state 2p

   izeta = 1
                     rc =    4.972977
                 energy =    1.607437
                kinetic =    3.268125
    potential(screened) =   -1.660688
       potential(ionic) =   -5.973652
atom: Total number of Sankey-type orbitals: 13

atm_pop: Valence configuration (for local Pseudopot. screening):
 2s( 2.00)                                                            
 2p( 3.00)                                                            
Vna: chval, zval:    5.00000   5.00000

Vna:  Cut-off radius for the neutral-atom potential:   4.972977
comcore: Pseudo-core radius Rcore=  1.554824

atom: _________________________________________________________________________

<basis_specs>
===============================================================================
C                    Z=   6    Mass=  12.010        Charge= 0.17977+309
Lmxo=1 Lmxkb= 3    BasisType=split      Semic=F
L=0  Nsemic=0  Cnfigmx=2
          n=1  nzeta=2  polorb=0
            splnorm:   0.15000    
               vcte:    0.0000    
               rinn:    0.0000    
                rcs:    0.0000      0.0000    
            lambdas:    1.0000      1.0000    
L=1  Nsemic=0  Cnfigmx=2
          n=1  nzeta=2  polorb=1
            splnorm:   0.15000    
               vcte:    0.0000    
               rinn:    0.0000    
                rcs:    0.0000      0.0000    
            lambdas:    1.0000      1.0000    
-------------------------------------------------------------------------------
L=0  Nkbl=1  erefs: 0.17977+309
L=1  Nkbl=1  erefs: 0.17977+309
L=2  Nkbl=1  erefs: 0.17977+309
L=3  Nkbl=1  erefs: 0.17977+309
===============================================================================
</basis_specs>

atom: Called for C                     (Z =   6)

read_vps: Pseudopotential generation method:
read_vps: ATM3      Troullier-Martins                       
Total valence charge:    4.00000

read_vps: Pseudopotential includes a core correction:
read_vps: Pseudo-core for xc-correction

xc_check: Exchange-correlation functional:
xc_check: GGA Perdew, Burke & Ernzerhof 1996
V l=0 = -2*Zval/r beyond r=  1.5227
V l=1 = -2*Zval/r beyond r=  1.5227
V l=2 = -2*Zval/r beyond r=  1.5227
V l=3 = -2*Zval/r beyond r=  1.5038
All V_l potentials equal beyond r=  1.5227
This should be close to max(r_c) in ps generation
All pots = -2*Zval/r beyond r=  1.5227

VLOCAL1: 99.0% of the norm of Vloc inside     18.722 Ry
VLOCAL1: 99.9% of the norm of Vloc inside     42.668 Ry
atom: Maximum radius for 4*pi*r*r*local-pseudopot. charge    1.83678
atom: Maximum radius for r*vlocal+2*Zval:    1.58088
GHOST: No ghost state for L =  0
GHOST: No ghost state for L =  1
GHOST: No ghost state for L =  2
GHOST: No ghost state for L =  3

KBgen: Kleinman-Bylander projectors: 
   l= 0   rc=  1.704034   el= -1.009801   Ekb=  5.335044   kbcos=  0.316824
   l= 1   rc=  1.704034   el= -0.388707   Ekb= -3.785862   kbcos= -0.366464
   l= 2   rc=  1.791422   el=  0.001971   Ekb= -0.970471   kbcos= -0.009212
   l= 3   rc=  1.859892   el=  0.003065   Ekb= -0.399525   kbcos= -0.001223

KBgen: Total number of  Kleinman-Bylander projectors:   16
atom: -------------------------------------------------------------------------

atom: SANKEY-TYPE ORBITALS:
atom: Selected multiple-zeta basis: split     

SPLIT: Orbitals with angular momentum L= 0

SPLIT: Basis orbitals for state 2s

SPLIT: PAO cut-off radius determined from an
SPLIT: energy shift=  0.007350 Ry

   izeta = 1
                 lambda =    1.000000
                     rc =    4.632753
                 energy =   -1.002270
                kinetic =    0.855760
    potential(screened) =   -1.858031
       potential(ionic) =   -5.417575

   izeta = 2
                 rmatch =    3.431921
              splitnorm =    0.150000
                 energy =   -0.867111
                kinetic =    1.300804
    potential(screened) =   -2.167915
       potential(ionic) =   -5.962684

SPLIT: Orbitals with angular momentum L= 1

SPLIT: Basis orbitals for state 2p

SPLIT: PAO cut-off radius determined from an
SPLIT: energy shift=  0.007350 Ry

   izeta = 1
                 lambda =    1.000000
                     rc =    5.658549
                 energy =   -0.381140
                kinetic =    2.399701
    potential(screened) =   -2.780841
       potential(ionic) =   -6.206085

   izeta = 2
                 rmatch =    3.653288
              splitnorm =    0.150000
                 energy =   -0.249149
                kinetic =    3.542762
    potential(screened) =   -3.791911
       potential(ionic) =   -7.581078

POLgen: Perturbative polarization orbital with L=  2

POLgen: Polarization orbital for state 2p

   izeta = 1
                     rc =    5.658549
                 energy =    1.109913
                kinetic =    2.304789
    potential(screened) =   -1.194876
       potential(ionic) =   -4.013592
atom: Total number of Sankey-type orbitals: 13

atm_pop: Valence configuration (for local Pseudopot. screening):
 2s( 2.00)                                                            
 2p( 2.00)                                                            
Vna: chval, zval:    4.00000   4.00000

Vna:  Cut-off radius for the neutral-atom potential:   5.658549
comcore: Pseudo-core radius Rcore=  1.791422

atom: _________________________________________________________________________

prinput: Basis input ----------------------------------------------------------

PAO.BasisType split     

%block ChemicalSpeciesLabel
    1    7 N                       # Species index, atomic number, species label
    2    6 C                       # Species index, atomic number, species label
%endblock ChemicalSpeciesLabel

%block PAO.Basis                 # Define Basis set
N                     2                    # Species label, number of l-shells
 n=2   0   2                         # n, l, Nzeta 
   4.071      2.905   
   1.000      1.000   
 n=2   1   2 P   1                   # n, l, Nzeta, Polarization, NzetaPol
   4.973      3.054   
   1.000      1.000   
C                     2                    # Species label, number of l-shells
 n=2   0   2                         # n, l, Nzeta 
   4.633      3.432   
   1.000      1.000   
 n=2   1   2 P   1                   # n, l, Nzeta, Polarization, NzetaPol
   5.659      3.653   
   1.000      1.000   
%endblock PAO.Basis

prinput: ----------------------------------------------------------------------

coor:   Atomic-coordinates input format  =     Fractional

siesta: Atomic coordinates (Bohr) and species
siesta:     -0.02582   5.28395   0.00000  1        1
siesta:     -4.68258  34.85847   0.00000  1        2
siesta:      6.95932  14.69411   0.00000  1        3
siesta:      9.28770  21.41544   0.00000  1        4
siesta:     -0.02582  13.34970   0.00000  1        5
siesta:     -0.02582  18.72698   0.00000  1        6
siesta:      2.30256  25.44831   0.00000  1        7
siesta:     -7.01096  14.69411   0.00000  1        8
siesta:     -9.33934  21.41544   0.00000  1        9
siesta:     -4.68258  26.79272   0.00000  1       10
siesta:      2.30256  30.82560   0.00000  1       11
siesta:     -0.02582  37.54693   0.00000  1       12
siesta:     -0.02582   2.59549   0.00000  2       13
siesta:     -2.35420  38.89134   0.00000  2       14
siesta:     -2.35420  41.57980   0.00000  2       15
siesta:      2.30256  38.89134   0.00000  2       16
siesta:      2.30256  41.57980   0.00000  2       17
siesta:      4.63094  34.85847   0.00000  2       18
siesta:      4.63094  37.54693   0.00000  2       19
siesta:      6.95932  30.82560   0.00000  2       20
siesta:      6.95932  33.51406   0.00000  2       21
siesta:      9.28770  26.79272   0.00000  2       22
siesta:      9.28770  29.48119   0.00000  2       23
siesta:     -4.68258  37.54693   0.00000  2       24
siesta:      2.30256   6.62836   0.00000  2       25
siesta:      2.30256   9.31683   0.00000  2       26
siesta:      4.63094  10.66124   0.00000  2       27
siesta:      4.63094  13.34970   0.00000  2       28
siesta:      6.95932  17.38257   0.00000  2       29
siesta:      9.28770  18.72698   0.00000  2       30
siesta:     11.61608  22.75985   0.00000  2       31
siesta:     11.61608  25.44831   0.00000  2       32
siesta:     -2.35420   6.62836   0.00000  2       33
siesta:     -2.35420   9.31683   0.00000  2       34
siesta:     -0.02582  10.66124   0.00000  2       35
siesta:      2.30256  14.69411   0.00000  2       36
siesta:      2.30256  17.38257   0.00000  2       37
siesta:      4.63094  18.72698   0.00000  2       38
siesta:      4.63094  21.41544   0.00000  2       39
siesta:      6.95932  22.75985   0.00000  2       40
siesta:      6.95932  25.44831   0.00000  2       41
siesta:     -4.68258  10.66124   0.00000  2       42
siesta:     -4.68258  13.34970   0.00000  2       43
siesta:     -2.35420  14.69411   0.00000  2       44
siesta:     -2.35420  17.38257   0.00000  2       45
siesta:     -0.02582  21.41544   0.00000  2       46
siesta:      2.30256  22.75985   0.00000  2       47
siesta:     -7.01096  17.38257   0.00000  2       48
siesta:     -4.68258  18.72698   0.00000  2       49
siesta:     -4.68258  21.41544   0.00000  2       50
siesta:     -2.35420  22.75985   0.00000  2       51
siesta:     -2.35420  25.44831   0.00000  2       52
siesta:     -9.33934  18.72698   0.00000  2       53
siesta:     -7.01096  22.75985   0.00000  2       54
siesta:     -7.01096  25.44831   0.00000  2       55
siesta:    -11.66772  22.75985   0.00000  2       56
siesta:    -11.66772  25.44831   0.00000  2       57
siesta:     -9.33934  26.79272   0.00000  2       58
siesta:     -9.33934  29.48119   0.00000  2       59
siesta:      4.63094  26.79272   0.00000  2       60
siesta:      4.63094  29.48119   0.00000  2       61
siesta:     -0.02582  26.79272   0.00000  2       62
siesta:     -0.02582  29.48119   0.00000  2       63
siesta:     -4.68258  29.48119   0.00000  2       64
siesta:      2.30256  33.51406   0.00000  2       65
siesta:     -2.35420  30.82560   0.00000  2       66
siesta:     -2.35420  33.51406   0.00000  2       67
siesta:     -7.01096  30.82560   0.00000  2       68
siesta:     -7.01096  33.51406   0.00000  2       69
siesta:     -0.02582  34.85847   0.00000  2       70
siesta:     -0.02582  42.92421   0.00000  2       71
siesta:     -0.02582  45.61267   0.00000  2       72

siesta: System type = slab      

initatomlists: Number of atoms, orbitals, and projectors:     72   936  1152

siesta: ******************** Simulation parameters ****************************
siesta:
siesta: The following are some of the parameters of the simulation.
siesta: A complete list of the parameters used, including default values,
siesta: can be found in file out.fdf
siesta:
redata: Non-Collinear-spin run           =     F
redata: SpinPolarized (Up/Down) run      =     F
redata: Number of spin components        =     1
redata: Long output                      =     F
redata: Number of Atomic Species         =        2
redata: Charge density info will appear in .RHO file
redata: Write Mulliken Pop.              =     NO
redata: Mesh Cutoff                      =   200.0000  Ry
redata: Net charge of the system         =     0.0000 |e|
redata: Max. number of SCF Iter          =      500
redata: SCF convergence failure will abort job
redata: Performing Pulay mixing using    =    10 iterations
redata: Mix DM in first SCF step ?       =     F
redata: Write Pulay info on disk?        =     F
redata: Discard 1st Pulay DM after  kick =     F
redata: New DM Mixing Weight             =     0.0500
redata: New DM Occupancy tolerance       = 0.000000000001
redata: No kicks to SCF
redata: DM Mixing Weight for Kicks       =     0.5000
redata: DM Tolerance for SCF             =     0.000100
redata: Require Energy convergence for SCF =     F
redata: DM Energy tolerance for SCF      =     0.000100 eV
redata: Require Harris convergence for SCF =     F
redata: DM Harris energy tolerance for SCF =     0.000100 eV
redata: Using Saved Data (generic)   =     F
redata: Use continuation files for DM    =     T
redata: Neglect nonoverlap interactions  =     F
redata: Method of Calculation            =     Diagonalization
redata: Divide and Conquer               =     T
redata: Electronic Temperature           =     0.0019  Ry
redata: Fix the spin of the system       =     F
redata: Dynamics option                  =     Verlet MD run
redata: Initial MD time step             =        1
redata:   Final MD time step             =        1
redata: Length of MD time step           =     1.0000  fs
redata: Initial Temperature of MD run    =     0.0000  K
redata: Perform a MD quench              =     F
redata: ***********************************************************************
Total number of electrons:   300.000000
Total ionic charge:   300.000000

* ProcessorY, Blocksize:    2  24

k-point displ. along   1 input, could be:     0.50    0.00
k-point displ. along   2 input, could be:     0.50    0.00
 Kpoints in:          231 . Kpoints trimmed:          231

siesta: k-grid: Number of k-points =   231
siesta: k-grid: Cutoff (effective) =     5.000 Ang
siesta: k-grid: Supercell and displacements
siesta: k-grid:   21   0   0      0.500
siesta: k-grid:    0  21   0      0.500
siesta: k-grid:    0   0   1      0.000
Naive supercell factors:     2    2    2

superc: Internal auxiliary supercell:     2 x     2 x     2  =       8
superc: Number of atoms, orbitals, and projectors:    576   7488   9216

* Maximum dynamic memory allocated =     4 MB

siesta:                 ==============================
                            Begin MD step =      1
                        ==============================

superc: Internal auxiliary supercell:     2 x     2 x     2  =       8
superc: Number of atoms, orbitals, and projectors:    576   7488   9216

outcell: Unit cell vectors (Ang):
       12.804619    7.392750    0.000000
        0.000000   14.785500    0.000000
        0.000000    0.000000   10.000000

outcell: Cell vector modules (Ang)   :   14.785500   14.785500   10.000000
outcell: Cell angles (23,13,12) (deg):     90.0000     90.0000     60.0000
outcell: Cell volume (Ang**3)        :   1893.2269
New_DM. Step:     1
Initializing Density Matrix...

InitMesh: MESH =   120 x   120 x    90 =     1296000
InitMesh: Mesh cutoff (required, used) =   200.000   223.865 Ry

* Maximum dynamic memory allocated =   190 MB

stepf: Fermi-Dirac step function

siesta: Program's energy decomposition (eV):
siesta: Ebs     =     -6116.674685
siesta: Eions   =     20331.973201
siesta: Ena     =      4839.095876
siesta: Ekin    =      7385.248291
siesta: Enl     =       273.293611
siesta: DEna    =        -0.000015
siesta: DUscf   =         0.000000
siesta: DUext   =         0.000000
siesta: Exc     =     -4470.456145
siesta: eta*DQ  =         0.000000
siesta: Emadel  =         0.000000
siesta: Emeta   =         0.000000
siesta: Emolmec =         0.000000
siesta: Ekinion =         0.000000
siesta: Eharris =    -11947.700294
siesta: Etot    =    -12304.791583
siesta: FreeEng =    -12304.791583

siesta: iscf   Eharris(eV)      E_KS(eV)   FreeEng(eV)   dDmax  Ef(eV)
siesta:    1   -11947.7003   -12304.7916   -12304.7916  7.7514 -7.0129
timer: Routine,Calls,Time,% = IterSCF        1    3422.306  99.66
elaps: Routine,Calls,Wall,% = IterSCF        1     428.667  99.66
siesta:    2   -15483.8966   -11393.9979   -11394.0170  8.7346 -2.5644
siesta:    3   -11934.6173   -12013.5221   -12013.5430  1.6420 -3.7846
siesta:    4   -11861.5752   -11956.6036   -11956.6785  1.1251 -3.9589
siesta:    5   -11831.6297   -11921.7724   -11921.8208  1.0546 -4.1663
siesta:    6   -11813.8028   -11899.1299   -11899.1962  0.9471 -4.2201
siesta:    7   -11809.0656   -11887.8541   -11887.8790  0.8233 -4.1250
siesta:    8   -11802.6986   -11870.4939   -11870.5270  0.8559 -4.0956
siesta:    9   -11800.5989   -11846.1317   -11846.1804  0.7935 -4.0252
siesta:   10   -11799.6240   -11836.1811   -11836.2270  0.7490 -4.0358
siesta:   11   -11799.5434   -11823.9480   -11823.9830  0.4928 -3.9826
siesta:   12   -11800.2876   -11802.1849   -11802.2400  0.4408 -3.8966
siesta:   13   -11799.5569   -11798.5157   -11798.5656  0.2978 -3.9502
siesta:   14   -11798.7954   -11799.6741   -11799.7361  0.2026 -3.9779
siesta:   15   -11798.6276   -11799.2398   -11799.2820  0.2928 -4.0325
siesta:   16   -11798.4654   -11799.2728   -11799.3290  0.1362 -4.0456
siesta:   17   -11798.3737   -11799.6682   -11799.7192  0.0688 -4.0666
siesta:   18   -11798.3279   -11800.0292   -11800.0770  0.0536 -4.0652
siesta:   19   -11798.3145   -11799.1574   -11799.1969  0.0524 -4.0630
siesta:   20   -11798.3133   -11799.3976   -11799.4340  0.0479 -4.0608
siesta:   21   -11798.3113   -11799.7711   -11799.8076  0.0395 -4.0610
siesta:   22   -11798.2993   -11799.6495   -11799.6861  0.0255 -4.0564
siesta:   23   -11798.2977   -11799.1487   -11799.1860  0.0170 -4.0535
siesta:   24   -11798.2951   -11798.6482   -11798.6855  0.0086 -4.0537
siesta:   25   -11798.2946   -11798.5530   -11798.5909  0.0065 -4.0534
siesta:   26   -11798.2944   -11798.4987   -11798.5370  0.0094 -4.0526
siesta:   27   -11798.2942   -11798.4064   -11798.4446  0.0064 -4.0527
siesta:   28   -11798.2937   -11798.2800   -11798.3181  0.0063 -4.0520
siesta:   29   -11798.2938   -11798.1373   -11798.1759  0.0052 -4.0528
siesta:   30   -11798.2937   -11798.1031   -11798.1415  0.0028 -4.0540
siesta:   31   -11798.2937   -11798.1997   -11798.2382  0.0014 -4.0548
siesta:   32   -11798.2936   -11798.1949   -11798.2334  0.0005 -4.0553
siesta:   33   -11798.2936   -11798.2018   -11798.2403  0.0004 -4.0552
siesta:   34   -11798.2936   -11798.2206   -11798.2591  0.0004 -4.0551
siesta:   35   -11798.2936   -11798.2354   -11798.2739  0.0002 -4.0551
siesta:   36   -11798.2936   -11798.2428   -11798.2813  0.0002 -4.0550
siesta:   37   -11798.2936   -11798.2594   -11798.2979  0.0001 -4.0550
siesta:   38   -11798.2936   -11798.2724   -11798.3109  0.0001 -4.0550
siesta:   39   -11798.2936   -11798.2780   -11798.3165  0.0001 -4.0550

siesta: E_KS(eV) =           -11798.2871

siesta: E_KS - E_eggbox =    -11798.2871

siesta: Atomic forces (eV/Ang):
----------------------------------------
   Tot   -0.320470    0.014024    0.000000
----------------------------------------
   Max  673.419975
   Res  169.511363    sqrt( Sum f_i^2 / 3N )
----------------------------------------
   Max  673.419975    constrained

Stress-tensor-Voigt (kbar):     -650.85    -2991.24       -0.09       -2.32        0.00        0.00
(Free)E + p*V (eV/cell)   -10363.7406
Target enthalpy (eV/cell)   -11798.3256

siesta: Stress tensor (static) (eV/Ang**3):
        -0.406222   -0.001451    0.000000
        -0.001451   -1.866963    0.000000
         0.000000    0.000000   -0.000054

siesta: Pressure (static):       1214.05598364  kBar

siesta: Stress tensor (total) (eV/Ang**3):
        -0.406222   -0.001451    0.000000
        -0.001451   -1.866963    0.000000
         0.000000    0.000000   -0.000054

siesta: Pressure (total):       1214.05598364  kBar

siesta: Temp_ion =       0.000 K

* Maximum dynamic memory allocated =   206 MB
Computing bands...

siesta: Program's energy decomposition (eV):
siesta: Ebs     =     -4857.610921
siesta: Eions   =     20331.973201
siesta: Ena     =      4839.095876
siesta: Ekin    =     10432.497363
siesta: Enl     =     -1418.441441
siesta: DEna    =      -780.973888
siesta: DUscf   =       102.910290
siesta: DUext   =         0.000000
siesta: Exc     =     -4641.402096
siesta: eta*DQ  =         0.000000
siesta: Emadel  =         0.000000
siesta: Emeta   =         0.000000
siesta: Emolmec =         0.000000
siesta: Ekinion =         0.000000
siesta: Eharris =    -11798.293587
siesta: Etot    =    -11798.287098
siesta: FreeEng =    -11798.325613

siesta: Final energy (eV):
siesta:  Band Struct. =   -4857.610921
siesta:       Kinetic =   10432.497363
siesta:       Hartree =   33944.948875
siesta:    Ext. field =       0.000000
siesta:   Exch.-corr. =   -4641.402096
siesta:  Ion-electron =  -77907.059833
siesta:       Ion-ion =   26372.728594
siesta:       Ekinion =       0.000000
siesta:         Total =  -11798.287098

siesta: Atomic forces (eV/Ang):
siesta:      1   -2.103712 -123.137261    0.000000
siesta:      2  -29.829548    7.638576    0.000000
siesta:      3   -2.768861    0.749872    0.000000
siesta:      4    0.509369   -1.960820    0.000000
siesta:      5    0.298560 -120.126732    0.000000
siesta:      6   -0.521483  673.419975    0.000000
siesta:      7    0.413528   -1.337444    0.000000
siesta:      8    2.759878    0.934658    0.000000
siesta:      9   -0.877758   -2.040846    0.000000
siesta:     10   -0.053740   -0.367421    0.000000
siesta:     11   25.204392    4.797240    0.000000
siesta:     12    2.327994 -664.476850    0.000000
siesta:     13   12.400654  551.418615    0.000000
siesta:     14    2.787714  128.811340    0.000000
siesta:     15   -2.523953 -546.696384    0.000000
siesta:     16   -2.852401  127.183315    0.000000
siesta:     17    1.689508 -546.645191    0.000000
siesta:     18   26.484012    5.488215    0.000000
siesta:     19   31.268686 -551.045121    0.000000
siesta:     20    1.405948   -0.061397    0.000000
siesta:     21   -2.684644    1.899871    0.000000
siesta:     22    1.862209    2.942878    0.000000
siesta:     23   -1.476594   -0.255512    0.000000
siesta:     24  -28.311927 -551.354902    0.000000
siesta:     25   17.234085  554.902399    0.000000
siesta:     26    0.687903 -128.066253    0.000000
siesta:     27   33.653447  551.807883    0.000000
siesta:     28   26.326702   -7.064435    0.000000
siesta:     29    0.267974   -1.771325    0.000000
siesta:     30    0.290926    0.696345    0.000000
siesta:     31   -1.152636    5.474958    0.000000
siesta:     32   -0.131331   -7.341651    0.000000
siesta:     33  -25.205193  555.980158    0.000000
siesta:     34   -2.537670 -126.008812    0.000000
siesta:     35   -1.437905  654.440306    0.000000
siesta:     36   23.265218  562.849982    0.000000
siesta:     37   27.313350   -9.467214    0.000000
siesta:     38   -1.834971    2.571971    0.000000
siesta:     39    0.929856    0.331487    0.000000
siesta:     40    0.512771    0.552116    0.000000
siesta:     41    0.143066   -1.252843    0.000000
siesta:     42  -31.912194  549.926810    0.000000
siesta:     43  -26.723126   -6.654008    0.000000
siesta:     44  -22.219867  562.381210    0.000000
siesta:     45  -27.313928   -9.257945    0.000000
siesta:     46    0.741187    0.331985    0.000000
siesta:     47    0.542752    1.077514    0.000000
siesta:     48   -0.315466   -1.851788    0.000000
siesta:     49    1.632247    2.803438    0.000000
siesta:     50   -0.396646   -0.047845    0.000000
siesta:     51   -1.924775    0.585105    0.000000
siesta:     52   -0.152950   -0.045008    0.000000
siesta:     53   -0.351654    0.789328    0.000000
siesta:     54   -0.289641    1.113087    0.000000
siesta:     55    0.195093   -0.938762    0.000000
siesta:     56    1.286453    5.175644    0.000000
siesta:     57    0.102529   -6.979978    0.000000
siesta:     58   -1.408453    2.590643    0.000000
siesta:     59    1.083921    0.363327    0.000000
siesta:     60   -1.095970    0.265305    0.000000
siesta:     61   -1.491198   -3.351502    0.000000
siesta:     62   -0.465877   -0.690334    0.000000
siesta:     63  -10.475425 -579.992700    0.000000
siesta:     64    2.579374   -2.715178    0.000000
siesta:     65    7.773758 -555.672267    0.000000
siesta:     66  -24.968566    2.935963    0.000000
siesta:     67   -0.139891 -564.693766    0.000000
siesta:     68   -0.868364   -0.122553    0.000000
siesta:     69    1.834162    1.168817    0.000000
siesta:     70    0.409168  120.537549    0.000000
siesta:     71   -0.162639  121.638927    0.000000
siesta:     72    0.442095 -645.070738    0.000000
siesta: ----------------------------------------
siesta:    Tot   -0.320470    0.014024    0.000000

siesta: Stress tensor (static) (eV/Ang**3):
siesta:    -0.406222   -0.001451    0.000000
siesta:    -0.001451   -1.866963    0.000000
siesta:     0.000000    0.000000   -0.000054

siesta: Cell volume =       1893.226884 Ang**3

siesta: Pressure (static):
siesta:                Solid            Molecule  Units
siesta:           0.00825282          0.13291341  Ry/Bohr**3
siesta:           0.75774595         12.20365737  eV/Ang**3
siesta:        1214.05598364      19552.62603102  kBar
(Free)E+ p_basis*V_orbitals  =      -11769.303557
(Free)Eharris+ p_basis*V_orbitals  =      -11769.319189

siesta: Electric dipole (a.u.)  =    0.000000    0.000000    0.000000
siesta: Electric dipole (Debye) =    0.000000    0.000000    0.000000

* Maximum dynamic memory allocated : Node    0 =   206 MB
* Maximum dynamic memory allocated : Node    1 =    73 MB
* Maximum dynamic memory allocated : Node    2 =    75 MB
* Maximum dynamic memory allocated : Node    3 =   196 MB
* Maximum dynamic memory allocated : Node    4 =   190 MB
* Maximum dynamic memory allocated : Node    5 =    71 MB
* Maximum dynamic memory allocated : Node    6 =    73 MB
* Maximum dynamic memory allocated : Node    7 =   176 MB

* Maximum memory occured during matrixMtoO                    

timer: CPU execution times:
timer:  Routine       Calls   Time/call    Tot.time        %
timer:  siesta            1  132770.890  132770.890   100.00
timer:  Setup             1       3.853       3.853     0.00
timer:  bands             3     243.820     731.460     0.55
timer:  writewave         1       0.046       0.046     0.00
timer:  KSV_init          1       0.007       0.007     0.00
timer:  IterMD            1  132030.370  132030.370    99.44
timer:  hsparse           1       0.283       0.283     0.00
timer:  overlap           1       6.718       6.718     0.01
timer:  IterSCF          39    3381.330  131871.860    99.32
timer:  kinefsm           2       3.467       6.934     0.01
timer:  nlefsm            2      17.626      35.251     0.03
timer:  DHSCF            40      78.310    3132.413     2.36
timer:  DHSCF1            1       0.745       0.745     0.00
timer:  DHSCF2            1      31.313      31.313     0.02
timer:  REORD           322       0.005       1.594     0.00
timer:  POISON           41       0.859      35.215     0.03
timer:  DHSCF3           40      76.751    3070.046     2.31
timer:  rhoofd           40      16.365     654.603     0.49
timer:  cellXC           40       3.267     130.691     0.10
timer:  vmat             40      35.688    1427.535     1.08
timer:  MolMec            2       0.000       0.000     0.00
timer:  diagon           39    3301.876  128773.177    96.99
timer:  c-eigval       9130       6.028   55038.332    41.45
timer:  c-buildHS      9130       0.049     444.527     0.33
timer:  cdiag         18139       6.174  111982.507    84.34
timer:  cdiag1        18139       0.385    6978.228     5.26
timer:  cdiag2        18139       1.769   32091.718    24.17
timer:  cdiag3        18139       3.734   67722.244    51.01
timer:  cdiag4        18139       0.149    2710.594     2.04
timer:  c-eigvec       9009       6.408   57729.326    43.48
timer:  c-buildD       9009       1.853   16691.796    12.57
timer:  DHSCF4            1      29.537      29.537     0.02
timer:  dfscf             1      27.637      27.637     0.02
timer:  overfsm           1       0.387       0.387     0.00
timer:  optical           1       4.582       4.582     0.00
  

elaps: ELAPSED times:
elaps:  Routine       Calls   Time/call    Tot.time        %
elaps:  siesta            1   16627.653   16627.653   100.00
elaps:  Setup             1       0.502       0.502     0.00
elaps:  bands             3      30.554      91.663     0.55
elaps:  writewave         1       0.006       0.006     0.00
elaps:  KSV_init          1       0.001       0.001     0.00
elaps:  IterMD            1   16534.887   16534.887    99.44
elaps:  hsparse           1       0.036       0.036     0.00
elaps:  overlap           1       0.905       0.905     0.01
elaps:  IterSCF          39     423.465   16515.154    99.32
elaps:  kinefsm           2       0.462       0.925     0.01
elaps:  nlefsm            2       2.286       4.573     0.03
elaps:  DHSCF            40       9.904     396.161     2.38
elaps:  DHSCF1            1       0.095       0.095     0.00
elaps:  DHSCF2            1       3.920       3.920     0.02
elaps:  REORD           322       0.001       0.215     0.00
elaps:  POISON           41       0.108       4.444     0.03
elaps:  DHSCF3           40       9.612     384.495     2.31
elaps:  rhoofd           40       4.541     181.652     1.09
elaps:  cellXC           40       0.409      16.353     0.10
elaps:  vmat             40       4.470     178.791     1.08
elaps:  MolMec            2       0.000       0.000     0.00
elaps:  diagon           39     413.512   16126.977    96.99
elaps:  c-eigval       9130       0.755    6892.562    41.45
elaps:  c-buildHS      9130       0.007      62.314     0.37
elaps:  cdiag         18139       0.768   13931.025    83.78
elaps:  cdiag1        18139       0.049     881.457     5.30
elaps:  cdiag2        18139       0.222    4019.625    24.17
elaps:  cdiag3        18139       0.468    8492.130    51.07
elaps:  cdiag4        18139       0.018     329.283     1.98
elaps:  c-eigvec       9009       0.793    7146.709    42.98
elaps:  c-buildD       9009       0.241    2173.213    13.07
elaps:  DHSCF4            1       7.553       7.553     0.05
elaps:  dfscf             1       7.145       7.145     0.04
elaps:  overfsm           1       0.049       0.049     0.00
elaps:  optical           1       0.001       0.001     0.00
  
>> End of run:   7-MAY-2016  12:29:49
