Siesta Version:                                        siesta-3.2-pl-3
Architecture  : x86_64-unknown-linux-gnu--unknown
Compiler flags: mpiifort -g -O2 -fPIC -xSSE4.1 -fp-model source -shared-intel 
PARALLEL version

* Running on   12 nodes in parallel
>> Start of run:   6-APR-2016  14:05:49

                           ***********************       
                           *  WELCOME TO SIESTA  *       
                           ***********************       

reinit: Reading from standard input
************************** Dump of input data file ****************************
#(1) General system descriptors
SystemName            GRP_doping    # Descriptive name of the system
SystemLabel           GRP_doping    # Short name for naming files
%include STRUCT.fdf
%include KPT.fdf
%include BASIS.fdf
#%include TS.fdf # for transiesta calculation
#(4) DFT, Grid, SCF
XC.functional         GGA           # LDA or GGA (default = LDA)
XC.authors            PBE           # CA (Ceperley-Aldr) = PZ
                                    #    (Perdew-Zunger) - LDA - Default
                                    # PW92 (Perdew-Wang-92) - LDA
                                    # PBE (Perdew-Burke-Ernzerhof) - GGA
MeshCutoff            200.000000    Ry      # Default: 50.0 Ry ~ 0.444 Bohr
                                    #         100.0 Ry ~ 0.314 Bohr
MaxSCFIterations      500           # Default: 50
DM.MixingWeight       0.05          # Default: 0.25
DM.NumberPulay        10            # Default: 0
DM.PulayOnFile        F             # SystemLabel.P1, SystemLabel.P2
DM.Tolerance          1.d-4         # Default: 1.d-4
DM.UseSaveDM          .true.        # because of the bug
SCFMustConverge       .true.
NeglNonOverlapInt     F             # Default: F
Diag.ParallelOverK    .true.
#(5) Eigenvalue problem: order-N or diagonalization
SolutionMethod        Diagon        # or Transiesta
ElectronicTemperature 300.0 K       # Default: 300.0 K
#(6) Molecular dynamics and relaxations
#MD.TypeOfRun          CG            # Type of dynamics:
#MD.VariableCell       F
#MD.NumCGsteps         0           # 0 for single-point / 100 for gopt
#MD.MaxCGDispl         0.2 Bohr      # Default: 0.2 Bohr
#MD.MaxForceTol        0.02 eV/Ang   # Default: 0.04 eV/Ang
#MD.MaxStressTol       1.0 GPa       # Default: 1.0 GPa
************************** End of input data file *****************************

reinit: -----------------------------------------------------------------------
reinit: System Name: GRP_doping
reinit: -----------------------------------------------------------------------
reinit: System Label: GRP_doping                                                  
reinit: -----------------------------------------------------------------------

initatom: Reading input for the pseudopotentials and atomic orbitals ----------
 Species number:            1  Label: C Atomic number:           6
 Species number:            2  Label: B Atomic number:           5
Ground state valence configuration:   2s02  2p02
Reading pseudopotential information in formatted form from C.psf

Valence configuration for pseudopotential generation:
2s( 2.00) rc: 1.54
2p( 2.00) rc: 1.54
3d( 0.00) rc: 1.54
4f( 0.00) rc: 1.54
Ground state valence configuration:   2s02  2p01
Reading pseudopotential information in formatted form from B.psf

Valence configuration for pseudopotential generation:
2s( 2.00) rc: 1.74
2p( 1.00) rc: 1.74
3d( 0.00) rc: 1.74
4f( 0.00) rc: 1.74
For C, standard SIESTA heuristics set lmxkb to 3
 (one more than the basis l, including polarization orbitals).
Use PS.lmax or PS.KBprojectors blocks to override.
For B, standard SIESTA heuristics set lmxkb to 3
 (one more than the basis l, including polarization orbitals).
Use PS.lmax or PS.KBprojectors blocks to override.

<basis_specs>
===============================================================================
C                    Z=   6    Mass=  12.010        Charge= 0.17977+309
Lmxo=1 Lmxkb= 3    BasisType=split      Semic=F
L=0  Nsemic=0  Cnfigmx=2
          n=1  nzeta=2  polorb=0
            splnorm:   0.15000    
               vcte:    0.0000    
               rinn:    0.0000    
                rcs:    0.0000      0.0000    
            lambdas:    1.0000      1.0000    
L=1  Nsemic=0  Cnfigmx=2
          n=1  nzeta=2  polorb=1
            splnorm:   0.15000    
               vcte:    0.0000    
               rinn:    0.0000    
                rcs:    0.0000      0.0000    
            lambdas:    1.0000      1.0000    
-------------------------------------------------------------------------------
L=0  Nkbl=1  erefs: 0.17977+309
L=1  Nkbl=1  erefs: 0.17977+309
L=2  Nkbl=1  erefs: 0.17977+309
L=3  Nkbl=1  erefs: 0.17977+309
===============================================================================
</basis_specs>

atom: Called for C                     (Z =   6)

read_vps: Pseudopotential generation method:
read_vps: ATM3      Troullier-Martins                       
Total valence charge:    4.00000

read_vps: Pseudopotential includes a core correction:
read_vps: Pseudo-core for xc-correction

xc_check: Exchange-correlation functional:
xc_check: GGA Perdew, Burke & Ernzerhof 1996
V l=0 = -2*Zval/r beyond r=  1.5227
V l=1 = -2*Zval/r beyond r=  1.5227
V l=2 = -2*Zval/r beyond r=  1.5227
V l=3 = -2*Zval/r beyond r=  1.5038
All V_l potentials equal beyond r=  1.5227
This should be close to max(r_c) in ps generation
All pots = -2*Zval/r beyond r=  1.5227

VLOCAL1: 99.0% of the norm of Vloc inside     18.722 Ry
VLOCAL1: 99.9% of the norm of Vloc inside     42.668 Ry
atom: Maximum radius for 4*pi*r*r*local-pseudopot. charge    1.83678
atom: Maximum radius for r*vlocal+2*Zval:    1.58088
GHOST: No ghost state for L =  0
GHOST: No ghost state for L =  1
GHOST: No ghost state for L =  2
GHOST: No ghost state for L =  3

KBgen: Kleinman-Bylander projectors: 
   l= 0   rc=  1.704034   el= -1.009801   Ekb=  5.335044   kbcos=  0.316824
   l= 1   rc=  1.704034   el= -0.388707   Ekb= -3.785862   kbcos= -0.366464
   l= 2   rc=  1.791422   el=  0.001971   Ekb= -0.970471   kbcos= -0.009212
   l= 3   rc=  1.859892   el=  0.003065   Ekb= -0.399525   kbcos= -0.001223

KBgen: Total number of  Kleinman-Bylander projectors:   16
atom: -------------------------------------------------------------------------

atom: SANKEY-TYPE ORBITALS:
atom: Selected multiple-zeta basis: split     

SPLIT: Orbitals with angular momentum L= 0

SPLIT: Basis orbitals for state 2s

SPLIT: PAO cut-off radius determined from an
SPLIT: energy shift=  0.007350 Ry

   izeta = 1
                 lambda =    1.000000
                     rc =    4.632753
                 energy =   -1.002270
                kinetic =    0.855760
    potential(screened) =   -1.858031
       potential(ionic) =   -5.417575

   izeta = 2
                 rmatch =    3.431921
              splitnorm =    0.150000
                 energy =   -0.867111
                kinetic =    1.300804
    potential(screened) =   -2.167915
       potential(ionic) =   -5.962684

SPLIT: Orbitals with angular momentum L= 1

SPLIT: Basis orbitals for state 2p

SPLIT: PAO cut-off radius determined from an
SPLIT: energy shift=  0.007350 Ry

   izeta = 1
                 lambda =    1.000000
                     rc =    5.658549
                 energy =   -0.381140
                kinetic =    2.399701
    potential(screened) =   -2.780841
       potential(ionic) =   -6.206085

   izeta = 2
                 rmatch =    3.653288
              splitnorm =    0.150000
                 energy =   -0.249149
                kinetic =    3.542762
    potential(screened) =   -3.791911
       potential(ionic) =   -7.581078

POLgen: Perturbative polarization orbital with L=  2

POLgen: Polarization orbital for state 2p

   izeta = 1
                     rc =    5.658549
                 energy =    1.109913
                kinetic =    2.304789
    potential(screened) =   -1.194876
       potential(ionic) =   -4.013592
atom: Total number of Sankey-type orbitals: 13

atm_pop: Valence configuration (for local Pseudopot. screening):
 2s( 2.00)                                                            
 2p( 2.00)                                                            
Vna: chval, zval:    4.00000   4.00000

Vna:  Cut-off radius for the neutral-atom potential:   5.658549
comcore: Pseudo-core radius Rcore=  1.791422

atom: _________________________________________________________________________

<basis_specs>
===============================================================================
B                    Z=   5    Mass=  10.810        Charge= 0.17977+309
Lmxo=1 Lmxkb= 3    BasisType=split      Semic=F
L=0  Nsemic=0  Cnfigmx=2
          n=1  nzeta=2  polorb=0
            splnorm:   0.15000    
               vcte:    0.0000    
               rinn:    0.0000    
                rcs:    0.0000      0.0000    
            lambdas:    1.0000      1.0000    
L=1  Nsemic=0  Cnfigmx=2
          n=1  nzeta=2  polorb=1
            splnorm:   0.15000    
               vcte:    0.0000    
               rinn:    0.0000    
                rcs:    0.0000      0.0000    
            lambdas:    1.0000      1.0000    
-------------------------------------------------------------------------------
L=0  Nkbl=1  erefs: 0.17977+309
L=1  Nkbl=1  erefs: 0.17977+309
L=2  Nkbl=1  erefs: 0.17977+309
L=3  Nkbl=1  erefs: 0.17977+309
===============================================================================
</basis_specs>

atom: Called for B                     (Z =   5)

read_vps: Pseudopotential generation method:
read_vps: ATM3      Troullier-Martins                       
Total valence charge:    3.00000

read_vps: Pseudopotential includes a core correction:
read_vps: Pseudo-core for xc-correction

xc_check: Exchange-correlation functional:
xc_check: GGA Perdew, Burke & Ernzerhof 1996
V l=0 = -2*Zval/r beyond r=  1.7165
V l=1 = -2*Zval/r beyond r=  1.7165
V l=2 = -2*Zval/r beyond r=  1.7165
V l=3 = -2*Zval/r beyond r=  1.6951
All V_l potentials equal beyond r=  1.7165
This should be close to max(r_c) in ps generation
All pots = -2*Zval/r beyond r=  1.7165

VLOCAL1: 99.0% of the norm of Vloc inside     14.733 Ry
VLOCAL1: 99.9% of the norm of Vloc inside     33.577 Ry
atom: Maximum radius for 4*pi*r*r*local-pseudopot. charge    2.04484
atom: Maximum radius for r*vlocal+2*Zval:    1.75994
GHOST: No ghost state for L =  0
GHOST: No ghost state for L =  1
GHOST: No ghost state for L =  2
GHOST: No ghost state for L =  3

KBgen: Kleinman-Bylander projectors: 
   l= 0   rc=  1.897051   el= -0.693730   Ekb=  4.595746   kbcos=  0.286105
   l= 1   rc=  1.920920   el= -0.265236   Ekb= -2.350715   kbcos= -0.315747
   l= 2   rc=  2.044840   el=  0.002055   Ekb= -0.690767   kbcos= -0.013822
   l= 3   rc=  2.149707   el=  0.003188   Ekb= -0.315358   kbcos= -0.002055

KBgen: Total number of  Kleinman-Bylander projectors:   16
atom: -------------------------------------------------------------------------

atom: SANKEY-TYPE ORBITALS:
atom: Selected multiple-zeta basis: split     

SPLIT: Orbitals with angular momentum L= 0

SPLIT: Basis orbitals for state 2s

SPLIT: PAO cut-off radius determined from an
SPLIT: energy shift=  0.007350 Ry

   izeta = 1
                 lambda =    1.000000
                     rc =    5.422032
                 energy =   -0.686029
                kinetic =    0.576707
    potential(screened) =   -1.262736
       potential(ionic) =   -3.271094

   izeta = 2
                 rmatch =    4.222573
              splitnorm =    0.150000
                 energy =   -0.602132
                kinetic =    0.858975
    potential(screened) =   -1.461107
       potential(ionic) =   -3.582536

SPLIT: Orbitals with angular momentum L= 1

SPLIT: Basis orbitals for state 2p

SPLIT: PAO cut-off radius determined from an
SPLIT: energy shift=  0.007350 Ry

   izeta = 1
                 lambda =    1.000000
                     rc =    6.790259
                 energy =   -0.258578
                kinetic =    1.481412
    potential(screened) =   -1.739989
       potential(ionic) =   -3.657461

   izeta = 2
                 rmatch =    4.608740
              splitnorm =    0.150000
                 energy =   -0.173757
                kinetic =    2.186690
    potential(screened) =   -2.360447
       potential(ionic) =   -4.464260

POLgen: Perturbative polarization orbital with L=  2

POLgen: Polarization orbital for state 2p

   izeta = 1
                     rc =    6.790259
                 energy =    0.684082
                kinetic =    1.471481
    potential(screened) =   -0.787399
       potential(ionic) =   -2.406985
atom: Total number of Sankey-type orbitals: 13

atm_pop: Valence configuration (for local Pseudopot. screening):
 2s( 2.00)                                                            
 2p( 1.00)                                                            
Vna: chval, zval:    3.00000   3.00000

Vna:  Cut-off radius for the neutral-atom potential:   6.790259
comcore: Pseudo-core radius Rcore=  2.122997

atom: _________________________________________________________________________

prinput: Basis input ----------------------------------------------------------

PAO.BasisType split     

%block ChemicalSpeciesLabel
    1    6 C                       # Species index, atomic number, species label
    2    5 B                       # Species index, atomic number, species label
%endblock ChemicalSpeciesLabel

%block PAO.Basis                 # Define Basis set
C                     2                    # Species label, number of l-shells
 n=2   0   2                         # n, l, Nzeta 
   4.633      3.432   
   1.000      1.000   
 n=2   1   2 P   1                   # n, l, Nzeta, Polarization, NzetaPol
   5.659      3.653   
   1.000      1.000   
B                     2                    # Species label, number of l-shells
 n=2   0   2                         # n, l, Nzeta 
   5.422      4.223   
   1.000      1.000   
 n=2   1   2 P   1                   # n, l, Nzeta, Polarization, NzetaPol
   6.790      4.609   
   1.000      1.000   
%endblock PAO.Basis

prinput: ----------------------------------------------------------------------

coor:   Atomic-coordinates input format  =     Cartesian coordinates
coor:                                          (in Angstroms)

siesta: Atomic coordinates (Bohr) and species
siesta:      2.23554   1.32097   0.00000  1        1
siesta:      4.56367   2.66461   0.00000  1        2
siesta:     32.50328  21.48508   0.00000  1        3
siesta:     34.83141  22.82873   0.00000  1        4
siesta:     34.83116  17.45226   0.00000  1        5
siesta:     37.15930  18.79590   0.00000  1        6
siesta:     32.50291  13.41944   0.00000  1        7
siesta:     34.83104  14.76308   0.00000  1        8
siesta:     30.17465   9.38661   0.00000  1        9
siesta:     32.50278  10.73026   0.00000  1       10
siesta:     27.84639   5.35379   0.00000  1       11
siesta:     30.17453   6.69743   0.00000  1       12
siesta:     27.84714  21.48508   0.00000  1       13
siesta:     30.17527  22.82873   0.00000  1       14
siesta:      6.89168   1.32097   0.00000  1       15
siesta:      9.21981   2.66461   0.00000  1       16
siesta:     11.54782   1.32097   0.00000  1       17
siesta:     13.87595   2.66461   0.00000  1       18
siesta:     16.20396   1.32097   0.00000  1       19
siesta:     18.53210   2.66461   0.00000  1       20
siesta:     20.86199   1.32097   0.00000  1       21
siesta:     23.19013   2.66461   0.00000  1       22
siesta:     25.51813   1.32097   0.00000  1       23
siesta:     27.84627   2.66461   0.00000  1       24
siesta:      4.56380   5.35379   0.00000  1       25
siesta:      6.89193   6.69743   0.00000  1       26
siesta:      9.21994   5.35379   0.00000  1       27
siesta:     11.54807   6.69743   0.00000  1       28
siesta:     13.87608   5.35379   0.00000  1       29
siesta:     16.20421   6.69743   0.00000  1       30
siesta:     20.86224   6.69743   0.00000  1       31
siesta:     23.19025   5.35379   0.00000  1       32
siesta:     25.51838   6.69743   0.00000  1       33
siesta:      6.89205   9.38661   0.00000  1       34
siesta:      9.22019  10.73026   0.00000  1       35
siesta:     11.54820   9.38661   0.00000  1       36
siesta:     13.87633  10.73026   0.00000  1       37
siesta:     16.20434   9.38661   0.00000  1       38
siesta:     18.53247  10.73026   0.00000  1       39
siesta:     20.86237   9.38661   0.00000  1       40
siesta:      9.22031  13.41944   0.00000  1       41
siesta:     11.54845  14.76308   0.00000  1       42
siesta:     13.87645  13.41944   0.00000  1       43
siesta:     16.20459  14.76308   0.00000  1       44
siesta:     18.53448  13.41944   0.00000  1       45
siesta:     20.86262  14.76308   0.00000  1       46
siesta:     11.54857  17.45226   0.00000  1       47
siesta:     13.87670  18.79590   0.00000  1       48
siesta:     16.20471  17.45226   0.00000  1       49
siesta:     18.53284  18.79590   0.00000  1       50
siesta:     13.87683  21.48508   0.00000  1       51
siesta:     16.20496  22.82873   0.00000  1       52
siesta:     18.53486  21.48508   0.00000  1       53
siesta:     20.86299  22.82873   0.00000  1       54
siesta:     25.51851   9.38661   0.00000  1       55
siesta:     27.84664  10.73026   0.00000  1       56
siesta:     23.19063  13.41944   0.00000  1       57
siesta:     25.51876  14.76308   0.00000  1       58
siesta:     20.86274  17.45226   0.00000  1       59
siesta:     23.19088  18.79590   0.00000  1       60
siesta:     27.84677  13.41944   0.00000  1       61
siesta:     30.17490  14.76308   0.00000  1       62
siesta:     27.84702  18.79590   0.00000  1       63
siesta:     23.19100  21.48508   0.00000  1       64
siesta:     25.51913  22.82873   0.00000  1       65
siesta:     30.17503  17.45226   0.00000  1       66
siesta:     32.50316  18.79590   0.00000  1       67
siesta:     37.16131  21.48508   0.00000  1       68
siesta:     39.48945  22.82873   0.00000  1       69
siesta:     18.53411   5.35379   0.00000  2       70
siesta:     23.19050  10.73026   0.00000  2       71
siesta:     25.51888  17.45226   0.00000  2       72

siesta: System type = slab      

initatomlists: Number of atoms, orbitals, and projectors:     72   936  1152

siesta: ******************** Simulation parameters ****************************
siesta:
siesta: The following are some of the parameters of the simulation.
siesta: A complete list of the parameters used, including default values,
siesta: can be found in file out.fdf
siesta:
redata: Non-Collinear-spin run           =     F
redata: SpinPolarized (Up/Down) run      =     F
redata: Number of spin components        =     1
redata: Long output                      =     F
redata: Number of Atomic Species         =        2
redata: Charge density info will appear in .RHO file
redata: Write Mulliken Pop.              =     NO
redata: Mesh Cutoff                      =   200.0000  Ry
redata: Net charge of the system         =     0.0000 |e|
redata: Max. number of SCF Iter          =      500
redata: SCF convergence failure will abort job
redata: Performing Pulay mixing using    =    10 iterations
redata: Mix DM in first SCF step ?       =     F
redata: Write Pulay info on disk?        =     F
redata: Discard 1st Pulay DM after  kick =     F
redata: New DM Mixing Weight             =     0.0500
redata: New DM Occupancy tolerance       = 0.000000000001
redata: No kicks to SCF
redata: DM Mixing Weight for Kicks       =     0.5000
redata: DM Tolerance for SCF             =     0.000100
redata: Require Energy convergence for SCF =     F
redata: DM Energy tolerance for SCF      =     0.000100 eV
redata: Require Harris convergence for SCF =     F
redata: DM Harris energy tolerance for SCF =     0.000100 eV
redata: Using Saved Data (generic)   =     F
redata: Use continuation files for DM    =     T
redata: Neglect nonoverlap interactions  =     F
redata: Method of Calculation            =     Diagonalization
redata: Divide and Conquer               =     T
redata: Electronic Temperature           =     0.0019  Ry
redata: Fix the spin of the system       =     F
redata: Dynamics option                  =     Verlet MD run
redata: Initial MD time step             =        1
redata:   Final MD time step             =        1
redata: Length of MD time step           =     1.0000  fs
redata: Initial Temperature of MD run    =     0.0000  K
redata: Perform a MD quench              =     F
redata: ***********************************************************************
Total number of electrons:   285.000000
Total ionic charge:   285.000000

* ProcessorY, Blocksize:    3  24

k-point displ. along   1 input, could be:     0.50    0.00
k-point displ. along   2 input, could be:     0.50    0.00
 Kpoints in:          231 . Kpoints trimmed:          231

siesta: k-grid: Number of k-points =   231
siesta: k-grid: Cutoff (effective) =     5.000 Ang
siesta: k-grid: Supercell and displacements
siesta: k-grid:   21   0   0      0.500
siesta: k-grid:    0  21   0      0.500
siesta: k-grid:    0   0   1      0.000
Naive supercell factors:     2    2    2

superc: Internal auxiliary supercell:     2 x     2 x     2  =       8
superc: Number of atoms, orbitals, and projectors:    576   7488   9216

* Maximum dynamic memory allocated =     4 MB

siesta:                 ==============================
                            Begin MD step =      1
                        ==============================

superc: Internal auxiliary supercell:     2 x     2 x     2  =       8
superc: Number of atoms, orbitals, and projectors:    576   7488   9216

outcell: Unit cell vectors (Ang):
       14.785000    0.000000    0.000000
        7.393000   12.805052    0.000000
        0.000000    0.000000   10.000000

outcell: Cell vector modules (Ang)   :   14.785000   14.786000   10.000000
outcell: Cell angles (23,13,12) (deg):     90.0000     90.0000     60.0000
outcell: Cell volume (Ang**3)        :   1893.2269
New_DM. Step:     1
Initializing Density Matrix...

iodm: Reading Density Matrix from files

InitMesh: MESH =   120 x   120 x    90 =     1296000
InitMesh: Mesh cutoff (required, used) =   200.000   223.865 Ry

* Maximum dynamic memory allocated =   143 MB

stepf: Fermi-Dirac step function

siesta: Program's energy decomposition (eV):
siesta: Ebs     =     -3856.917106
siesta: Eions   =     18018.840937
siesta: Ena     =      3907.275011
siesta: Ekin    =      7688.743545
siesta: Enl     =      -758.810913
siesta: DEna    =      -304.109626
siesta: DUscf   =        28.821790
siesta: DUext   =         0.000000
siesta: Exc     =     -4050.260556
siesta: eta*DQ  =         0.000000
siesta: Emadel  =         0.000000
siesta: Emeta   =         0.000000
siesta: Emolmec =         0.000000
siesta: Ekinion =         0.000000
siesta: Eharris =    -11507.181708
siesta: Etot    =    -11507.181687
siesta: FreeEng =    -11507.181687

siesta: iscf   Eharris(eV)      E_KS(eV)   FreeEng(eV)   dDmax  Ef(eV)
siesta:    1   -11507.1817   -11507.1817   -11507.1817  0.0002 -5.4241
timer: Routine,Calls,Time,% = IterSCF        1    1175.825  98.93
elaps: Routine,Calls,Wall,% = IterSCF        1      98.225  98.93
siesta:    2   -11507.1818   -11507.1817   -11507.1966  0.0006 -5.4236
siesta:    3   -11507.1817   -11507.1817   -11507.1967  0.0000 -5.4240

siesta: E_KS(eV) =           -11507.1817

siesta: E_KS - E_eggbox =    -11507.1817

siesta: Atomic forces (eV/Ang):
----------------------------------------
   Tot    0.189003   -0.263125    0.000000
----------------------------------------
   Max    3.455154
   Res    0.710023    sqrt( Sum f_i^2 / 3N )
----------------------------------------
   Max    3.455154    constrained

Stress-tensor-Voigt (kbar):      -63.61      -62.24       -0.08       -0.04        0.00        0.00
(Free)E + p*V (eV/cell)   -11457.5948
Target enthalpy (eV/cell)   -11507.1966

siesta: Stress tensor (static) (eV/Ang**3):
        -0.039702   -0.000027    0.000000
        -0.000027   -0.038845    0.000000
         0.000000    0.000000   -0.000052

siesta: Pressure (static):         41.97685887  kBar

siesta: Stress tensor (total) (eV/Ang**3):
        -0.039702   -0.000027    0.000000
        -0.000027   -0.038845    0.000000
         0.000000    0.000000   -0.000052

siesta: Pressure (total):         41.97685887  kBar

siesta: Temp_ion =       0.000 K

* Maximum dynamic memory allocated =   239 MB

siesta: Program's energy decomposition (eV):
siesta: Ebs     =     -3856.915607
siesta: Eions   =     18018.840937
siesta: Ena     =      3907.275011
siesta: Ekin    =      7688.747119
siesta: Enl     =      -758.811817
siesta: DEna    =      -304.111911
siesta: DUscf   =        28.822129
siesta: DUext   =         0.000000
siesta: Exc     =     -4050.261280
siesta: eta*DQ  =         0.000000
siesta: Emadel  =         0.000000
siesta: Emeta   =         0.000000
siesta: Emolmec =         0.000000
siesta: Ekinion =         0.000000
siesta: Eharris =    -11507.181688
siesta: Etot    =    -11507.181688
siesta: FreeEng =    -11507.196633

siesta: Final energy (eV):
siesta:  Band Struct. =   -3856.915607
siesta:       Kinetic =    7688.747119
siesta:       Hartree =   22635.470913
siesta:    Ext. field =       0.000000
siesta:   Exch.-corr. =   -4050.261280
siesta:  Ion-electron =  -52335.048986
siesta:       Ion-ion =   14553.910546
siesta:       Ekinion =       0.000000
siesta:         Total =  -11507.181688

siesta: Atomic forces (eV/Ang):
siesta:      1   -0.114001   -0.047433    0.000000
siesta:      2    0.050063    0.069353    0.000000
siesta:      3   -0.063324    0.037293    0.000000
siesta:      4    0.207239    0.085357    0.000000
siesta:      5    0.065959    0.064123    0.000000
siesta:      6    0.031288   -0.004937    0.000000
siesta:      7   -0.066535    0.078829    0.000000
siesta:      8    0.049873   -0.063695    0.000000
siesta:      9    0.112924    0.047247    0.000000
siesta:     10    0.098118   -0.136965    0.000000
siesta:     11    0.007232   -0.131613    0.000000
siesta:     12   -0.028517    0.021167    0.000000
siesta:     13    0.543708   -0.335159    0.000000
siesta:     14   -0.220604    0.151284    0.000000
siesta:     15    0.009439    0.056259    0.000000
siesta:     16   -0.226102    0.127495    0.000000
siesta:     17    0.325439   -0.213621    0.000000
siesta:     18   -0.243792   -0.113190    0.000000
siesta:     19    0.565532   -0.334671    0.000000
siesta:     20   -0.011074   -3.455154    0.000000
siesta:     21   -0.701795   -0.456418    0.000000
siesta:     22    0.312710    0.266740    0.000000
siesta:     23   -0.106445   -0.012763    0.000000
siesta:     24    0.170725   -0.009377    0.000000
siesta:     25    0.049928   -0.039114    0.000000
siesta:     26   -0.038446   -0.077328    0.000000
siesta:     27   -0.069896   -0.054655    0.000000
siesta:     28   -0.096843   -0.087521    0.000000
siesta:     29    0.050472    0.537004    0.000000
siesta:     30   -2.984136    1.742909    0.000000
siesta:     31    2.413753    1.974471    0.000000
siesta:     32    0.040305    0.155168    0.000000
siesta:     33    0.689207    0.244045    0.000000
siesta:     34   -0.042148    0.087948    0.000000
siesta:     35   -0.031550    0.016277    0.000000
siesta:     36    0.050935   -0.028989    0.000000
siesta:     37    0.017267    0.070880    0.000000
siesta:     38   -0.609961   -0.178512    0.000000
siesta:     39    0.009394   -0.437277    0.000000
siesta:     40   -2.608056   -2.049545    0.000000
siesta:     41   -0.077018   -0.014640    0.000000
siesta:     42    0.089506    0.006923    0.000000
siesta:     43   -0.113277    0.057488    0.000000
siesta:     44    0.067754   -0.028449    0.000000
siesta:     45   -0.072865    0.019085    0.000000
siesta:     46    0.363010    0.251703    0.000000
siesta:     47    0.003029   -0.013316    0.000000
siesta:     48    0.039952   -0.079660    0.000000
siesta:     49   -0.113592    0.061676    0.000000
siesta:     50   -0.010795   -0.056802    0.000000
siesta:     51   -0.001226    0.053069    0.000000
siesta:     52    0.012054    0.036241    0.000000
siesta:     53    0.003344   -0.031685    0.000000
siesta:     54    0.022897    0.149882    0.000000
siesta:     55    3.170187   -1.839391    0.000000
siesta:     56    0.136445   -0.711737    0.000000
siesta:     57    0.482387    3.235582    0.000000
siesta:     58   -0.505569   -3.056480    0.000000
siesta:     59   -0.189956    0.615379    0.000000
siesta:     60   -3.035680    1.730056    0.000000
siesta:     61   -0.122357   -0.128943    0.000000
siesta:     62   -0.077817   -0.405930    0.000000
siesta:     63    2.976826    1.764797    0.000000
siesta:     64   -0.447800   -0.318049    0.000000
siesta:     65   -0.030117    0.294948    0.000000
siesta:     66    0.039960    0.785035    0.000000
siesta:     67    0.029051   -0.178974    0.000000
siesta:     68   -0.068615   -0.087897    0.000000
siesta:     69    0.045982    0.027327    0.000000
siesta:     70    0.016262   -0.116095    0.000000
siesta:     71   -0.194851    0.133803    0.000000
siesta:     72    0.143607    0.016016    0.000000
siesta: ----------------------------------------
siesta:    Tot    0.189003   -0.263125    0.000000

siesta: Stress tensor (static) (eV/Ang**3):
siesta:    -0.039702   -0.000027    0.000000
siesta:    -0.000027   -0.038845    0.000000
siesta:     0.000000    0.000000   -0.000052

siesta: Cell volume =       1893.226895 Ang**3

siesta: Pressure (static):
siesta:                Solid            Molecule  Units
siesta:           0.00028535          0.00017071  Ry/Bohr**3
siesta:           0.02619961          0.01567429  eV/Ang**3
siesta:          41.97685887         25.11326019  kBar
(Free)E+ p_basis*V_orbitals  =      -11475.511154
(Free)Eharris+ p_basis*V_orbitals  =      -11475.511155

siesta: Electric dipole (a.u.)  =    0.000000    0.000000    0.000000
siesta: Electric dipole (Debye) =    0.000000    0.000000    0.000000

* Maximum dynamic memory allocated : Node    0 =   239 MB
* Maximum dynamic memory allocated : Node    1 =   150 MB
* Maximum dynamic memory allocated : Node    2 =   152 MB
* Maximum dynamic memory allocated : Node    3 =   228 MB
* Maximum dynamic memory allocated : Node    4 =   235 MB
* Maximum dynamic memory allocated : Node    5 =   145 MB
* Maximum dynamic memory allocated : Node    6 =   147 MB
* Maximum dynamic memory allocated : Node    7 =   228 MB
* Maximum dynamic memory allocated : Node    8 =   234 MB
* Maximum dynamic memory allocated : Node    9 =   145 MB
* Maximum dynamic memory allocated : Node   10 =   146 MB
* Maximum dynamic memory allocated : Node   11 =   227 MB

* Maximum memory occured during cdiag                         

timer: CPU execution times:
timer:  Routine       Calls   Time/call    Tot.time        %
timer:  siesta            1    3537.715    3537.715   100.00
timer:  Setup             1       3.467       3.467     0.10
timer:  bands             1       0.015       0.015     0.00
timer:  writewave         1       0.021       0.021     0.00
timer:  KSV_init          1       0.003       0.003     0.00
timer:  IterMD            1    3527.747    3527.747    99.72
timer:  hsparse           1       0.290       0.290     0.01
timer:  overlap           1       5.082       5.082     0.14
timer:  IterSCF           3    1132.386    3397.159    96.03
timer:  kinefsm           2       2.582       5.163     0.15
timer:  nlefsm            2      19.593      39.186     1.11
timer:  DHSCF             4      79.426     317.703     8.98
timer:  DHSCF1            1       1.185       1.185     0.03
timer:  DHSCF2            1      30.264      30.264     0.86
timer:  REORD            34       0.003       0.087     0.00
timer:  POISON            5       0.472       2.360     0.07
timer:  DHSCF3            4      65.701     262.802     7.43
timer:  rhoofd            4      12.693      50.770     1.44
timer:  cellXC            4       2.444       9.774     0.28
timer:  vmat              4      34.684     138.735     3.92
timer:  MolMec            2       0.000       0.000     0.00
timer:  diagon            3    1041.828    3125.484    88.35
timer:  cdiag           120      17.884    2065.061    58.37
timer:  cdiag1          120       0.871     100.545     2.84
timer:  cdiag2          120       3.014     348.007     9.84
timer:  cdiag3          120      13.803    1593.883    45.05
timer:  cdiag4          120       0.193      22.284     0.63
timer:  DHSCF4            1      23.381      23.381     0.66
timer:  dfscf             1      21.385      21.385     0.60
timer:  overfsm           1       0.284       0.284     0.01
timer:  optical           1       5.952       5.952     0.17
  

elaps: ELAPSED times:
elaps:  Routine       Calls   Time/call    Tot.time        %
elaps:  siesta            1     295.529     295.529   100.00
elaps:  Setup             1       0.290       0.290     0.10
elaps:  bands             1       0.001       0.001     0.00
elaps:  writewave         1       0.002       0.002     0.00
elaps:  KSV_init          1       0.000       0.000     0.00
elaps:  IterMD            1     294.696     294.696    99.72
elaps:  hsparse           1       0.028       0.028     0.01
elaps:  overlap           1       0.377       0.377     0.13
elaps:  IterSCF           3      94.596     283.788    96.03
elaps:  kinefsm           2       0.194       0.389     0.13
elaps:  nlefsm            2       1.861       3.723     1.26
elaps:  DHSCF             4       7.024      28.094     9.51
elaps:  DHSCF1            1       0.101       0.101     0.03
elaps:  DHSCF2            1       2.528       2.528     0.86
elaps:  REORD            34       0.000       0.010     0.00
elaps:  POISON            5       0.040       0.198     0.07
elaps:  DHSCF3            4       5.488      21.951     7.43
elaps:  rhoofd            4       1.863       7.451     2.52
elaps:  cellXC            4       0.204       0.815     0.28
elaps:  vmat              4       2.897      11.587     3.92
elaps:  MolMec            2       0.000       0.000     0.00
elaps:  diagon            3      87.031     261.092    88.35
elaps:  cdiag           120       1.481     177.691    60.13
elaps:  cdiag1          120       0.070       8.355     2.83
elaps:  cdiag2          120       0.243      29.169     9.87
elaps:  cdiag3          120       1.150     138.046    46.71
elaps:  cdiag4          120       0.017       2.096     0.71
elaps:  DHSCF4            1       3.508       3.508     1.19
elaps:  dfscf             1       3.268       3.268     1.11
elaps:  overfsm           1       0.029       0.029     0.01
elaps:  optical           1       0.000       0.000     0.00
  
>> End of run:   6-APR-2016  14:10:45
