Siesta Version:                                        siesta-3.2-pl-3
Architecture  : x86_64-unknown-linux-gnu--unknown
Compiler flags: mpiifort -g -O2 -fPIC -xSSE4.1 -fp-model source -shared-intel 
PARALLEL version

* Running on    8 nodes in parallel
>> Start of run:  23-APR-2016  17:42:47

                           ***********************       
                           *  WELCOME TO SIESTA  *       
                           ***********************       

reinit: Reading from standard input
************************** Dump of input data file ****************************
#(1) General system descriptors
SystemName            GRP_doping    # Descriptive name of the system
SystemLabel           GRP_doping    # Short name for naming files
%include STRUCT.fdf
%include KPT.fdf
%include BASIS.fdf
#%include TS.fdf # for transiesta calculation
#(4) DFT, Grid, SCF
XC.functional         GGA           # LDA or GGA (default = LDA)
XC.authors            PBE           # CA (Ceperley-Aldr) = PZ
                                    #    (Perdew-Zunger) - LDA - Default
                                    # PW92 (Perdew-Wang-92) - LDA
                                    # PBE (Perdew-Burke-Ernzerhof) - GGA
MeshCutoff            200.000000    Ry      # Default: 50.0 Ry ~ 0.444 Bohr
                                    #         100.0 Ry ~ 0.314 Bohr
MaxSCFIterations      500           # Default: 50
DM.MixingWeight       0.05          # Default: 0.25
DM.NumberPulay        10            # Default: 0
DM.PulayOnFile        F             # SystemLabel.P1, SystemLabel.P2
DM.Tolerance          1.d-4         # Default: 1.d-4
DM.UseSaveDM          .true.        # because of the bug
SCFMustConverge       .true.
NeglNonOverlapInt     F             # Default: F
#(5) Eigenvalue problem: order-N or diagonalization
SolutionMethod        Diagon        # or Transiesta
ElectronicTemperature 300.0 K       # Default: 300.0 K
#(6) Molecular dynamics and relaxations
#MD.TypeOfRun          CG            # Type of dynamics:
#MD.VariableCell       F
#MD.NumCGsteps         0           # 0 for single-point / 100 for gopt
#MD.MaxCGDispl         0.2 Bohr      # Default: 0.2 Bohr
#MD.MaxForceTol        0.02 eV/Ang   # Default: 0.04 eV/Ang
#MD.MaxStressTol       1.0 GPa       # Default: 1.0 GPa
# Geometry Constraints
#%block GeometryConstraints
#	position from 1 to 44
#%endblock GeometryConstraints
BandLinesScale   pi/a
%block BandLines
 1   0.00000000  0.00000000  0.00000000
50   0.00000000  0.07809418  0.00000000
50   0.04509075  0.07809242  0.00000000
20   0.00000000  0.00000000  0.00000000
%endblock BandLines
************************** End of input data file *****************************

reinit: -----------------------------------------------------------------------
reinit: System Name: GRP_doping
reinit: -----------------------------------------------------------------------
reinit: System Label: GRP_doping                                                  
reinit: -----------------------------------------------------------------------

initatom: Reading input for the pseudopotentials and atomic orbitals ----------
 Species number:            1  Label: N Atomic number:           7
 Species number:            2  Label: C Atomic number:           6
Ground state valence configuration:   2s02  2p03
Reading pseudopotential information in formatted form from N.psf

Valence configuration for pseudopotential generation:
2s( 2.00) rc: 1.48
2p( 3.00) rc: 1.48
3d( 0.00) rc: 1.48
4f( 0.00) rc: 1.48
Ground state valence configuration:   2s02  2p02
Reading pseudopotential information in formatted form from C.psf

Valence configuration for pseudopotential generation:
2s( 2.00) rc: 1.54
2p( 2.00) rc: 1.54
3d( 0.00) rc: 1.54
4f( 0.00) rc: 1.54
For N, standard SIESTA heuristics set lmxkb to 3
 (one more than the basis l, including polarization orbitals).
Use PS.lmax or PS.KBprojectors blocks to override.
For C, standard SIESTA heuristics set lmxkb to 3
 (one more than the basis l, including polarization orbitals).
Use PS.lmax or PS.KBprojectors blocks to override.

<basis_specs>
===============================================================================
N                    Z=   7    Mass=  14.010        Charge= 0.17977+309
Lmxo=1 Lmxkb= 3    BasisType=split      Semic=F
L=0  Nsemic=0  Cnfigmx=2
          n=1  nzeta=2  polorb=0
            splnorm:   0.15000    
               vcte:    0.0000    
               rinn:    0.0000    
                rcs:    0.0000      0.0000    
            lambdas:    1.0000      1.0000    
L=1  Nsemic=0  Cnfigmx=2
          n=1  nzeta=2  polorb=1
            splnorm:   0.15000    
               vcte:    0.0000    
               rinn:    0.0000    
                rcs:    0.0000      0.0000    
            lambdas:    1.0000      1.0000    
-------------------------------------------------------------------------------
L=0  Nkbl=1  erefs: 0.17977+309
L=1  Nkbl=1  erefs: 0.17977+309
L=2  Nkbl=1  erefs: 0.17977+309
L=3  Nkbl=1  erefs: 0.17977+309
===============================================================================
</basis_specs>

atom: Called for N                     (Z =   7)

read_vps: Pseudopotential generation method:
read_vps: ATM3      Troullier-Martins                       
Total valence charge:    5.00000

read_vps: Pseudopotential includes a core correction:
read_vps: Pseudo-core for xc-correction

xc_check: Exchange-correlation functional:
xc_check: GGA Perdew, Burke & Ernzerhof 1996
V l=0 = -2*Zval/r beyond r=  1.4606
V l=1 = -2*Zval/r beyond r=  1.4606
V l=2 = -2*Zval/r beyond r=  1.4606
V l=3 = -2*Zval/r beyond r=  1.4606
All V_l potentials equal beyond r=  1.4606
This should be close to max(r_c) in ps generation
All pots = -2*Zval/r beyond r=  1.4606

VLOCAL1: 99.0% of the norm of Vloc inside     20.347 Ry
VLOCAL1: 99.9% of the norm of Vloc inside     46.372 Ry
atom: Maximum radius for 4*pi*r*r*local-pseudopot. charge    1.76189
atom: Maximum radius for r*vlocal+2*Zval:    1.53550
GHOST: No ghost state for L =  0
GHOST: No ghost state for L =  1
GHOST: No ghost state for L =  2
GHOST: No ghost state for L =  3

KBgen: Kleinman-Bylander projectors: 
   l= 0   rc=  1.634559   el= -1.363963   Ekb=  5.296955   kbcos=  0.335621
   l= 1   rc=  1.614250   el= -0.521451   Ekb= -5.259161   kbcos= -0.433408
   l= 2   rc=  1.718383   el=  0.001991   Ekb= -1.271464   kbcos= -0.007566
   l= 3   rc=  1.761893   el=  0.003093   Ekb= -0.494769   kbcos= -0.001015

KBgen: Total number of  Kleinman-Bylander projectors:   16
atom: -------------------------------------------------------------------------

atom: SANKEY-TYPE ORBITALS:
atom: Selected multiple-zeta basis: split     

SPLIT: Orbitals with angular momentum L= 0

SPLIT: Basis orbitals for state 2s

SPLIT: PAO cut-off radius determined from an
SPLIT: energy shift=  0.007350 Ry

   izeta = 1
                 lambda =    1.000000
                     rc =    4.071465
                 energy =   -1.356470
                kinetic =    1.176977
    potential(screened) =   -2.533447
       potential(ionic) =   -8.057990

   izeta = 2
                 rmatch =    2.905100
              splitnorm =    0.150000
                 energy =   -1.158343
                kinetic =    1.813009
    potential(screened) =   -2.971352
       potential(ionic) =   -8.901931

SPLIT: Orbitals with angular momentum L= 1

SPLIT: Basis orbitals for state 2p

SPLIT: PAO cut-off radius determined from an
SPLIT: energy shift=  0.007350 Ry

   izeta = 1
                 lambda =    1.000000
                     rc =    4.972977
                 energy =   -0.513884
                kinetic =    3.441732
    potential(screened) =   -3.955616
       potential(ionic) =   -9.287901

   izeta = 2
                 rmatch =    3.054066
              splitnorm =    0.150000
                 energy =   -0.318226
                kinetic =    5.125348
    potential(screened) =   -5.443573
       potential(ionic) =  -11.380999

POLgen: Perturbative polarization orbital with L=  2

POLgen: Polarization orbital for state 2p

   izeta = 1
                     rc =    4.972977
                 energy =    1.607437
                kinetic =    3.268125
    potential(screened) =   -1.660688
       potential(ionic) =   -5.973652
atom: Total number of Sankey-type orbitals: 13

atm_pop: Valence configuration (for local Pseudopot. screening):
 2s( 2.00)                                                            
 2p( 3.00)                                                            
Vna: chval, zval:    5.00000   5.00000

Vna:  Cut-off radius for the neutral-atom potential:   4.972977
comcore: Pseudo-core radius Rcore=  1.554824

atom: _________________________________________________________________________

<basis_specs>
===============================================================================
C                    Z=   6    Mass=  12.010        Charge= 0.17977+309
Lmxo=1 Lmxkb= 3    BasisType=split      Semic=F
L=0  Nsemic=0  Cnfigmx=2
          n=1  nzeta=2  polorb=0
            splnorm:   0.15000    
               vcte:    0.0000    
               rinn:    0.0000    
                rcs:    0.0000      0.0000    
            lambdas:    1.0000      1.0000    
L=1  Nsemic=0  Cnfigmx=2
          n=1  nzeta=2  polorb=1
            splnorm:   0.15000    
               vcte:    0.0000    
               rinn:    0.0000    
                rcs:    0.0000      0.0000    
            lambdas:    1.0000      1.0000    
-------------------------------------------------------------------------------
L=0  Nkbl=1  erefs: 0.17977+309
L=1  Nkbl=1  erefs: 0.17977+309
L=2  Nkbl=1  erefs: 0.17977+309
L=3  Nkbl=1  erefs: 0.17977+309
===============================================================================
</basis_specs>

atom: Called for C                     (Z =   6)

read_vps: Pseudopotential generation method:
read_vps: ATM3      Troullier-Martins                       
Total valence charge:    4.00000

read_vps: Pseudopotential includes a core correction:
read_vps: Pseudo-core for xc-correction

xc_check: Exchange-correlation functional:
xc_check: GGA Perdew, Burke & Ernzerhof 1996
V l=0 = -2*Zval/r beyond r=  1.5227
V l=1 = -2*Zval/r beyond r=  1.5227
V l=2 = -2*Zval/r beyond r=  1.5227
V l=3 = -2*Zval/r beyond r=  1.5038
All V_l potentials equal beyond r=  1.5227
This should be close to max(r_c) in ps generation
All pots = -2*Zval/r beyond r=  1.5227

VLOCAL1: 99.0% of the norm of Vloc inside     18.722 Ry
VLOCAL1: 99.9% of the norm of Vloc inside     42.668 Ry
atom: Maximum radius for 4*pi*r*r*local-pseudopot. charge    1.83678
atom: Maximum radius for r*vlocal+2*Zval:    1.58088
GHOST: No ghost state for L =  0
GHOST: No ghost state for L =  1
GHOST: No ghost state for L =  2
GHOST: No ghost state for L =  3

KBgen: Kleinman-Bylander projectors: 
   l= 0   rc=  1.704034   el= -1.009801   Ekb=  5.335044   kbcos=  0.316824
   l= 1   rc=  1.704034   el= -0.388707   Ekb= -3.785862   kbcos= -0.366464
   l= 2   rc=  1.791422   el=  0.001971   Ekb= -0.970471   kbcos= -0.009212
   l= 3   rc=  1.859892   el=  0.003065   Ekb= -0.399525   kbcos= -0.001223

KBgen: Total number of  Kleinman-Bylander projectors:   16
atom: -------------------------------------------------------------------------

atom: SANKEY-TYPE ORBITALS:
atom: Selected multiple-zeta basis: split     

SPLIT: Orbitals with angular momentum L= 0

SPLIT: Basis orbitals for state 2s

SPLIT: PAO cut-off radius determined from an
SPLIT: energy shift=  0.007350 Ry

   izeta = 1
                 lambda =    1.000000
                     rc =    4.632753
                 energy =   -1.002270
                kinetic =    0.855760
    potential(screened) =   -1.858031
       potential(ionic) =   -5.417575

   izeta = 2
                 rmatch =    3.431921
              splitnorm =    0.150000
                 energy =   -0.867111
                kinetic =    1.300804
    potential(screened) =   -2.167915
       potential(ionic) =   -5.962684

SPLIT: Orbitals with angular momentum L= 1

SPLIT: Basis orbitals for state 2p

SPLIT: PAO cut-off radius determined from an
SPLIT: energy shift=  0.007350 Ry

   izeta = 1
                 lambda =    1.000000
                     rc =    5.658549
                 energy =   -0.381140
                kinetic =    2.399701
    potential(screened) =   -2.780841
       potential(ionic) =   -6.206085

   izeta = 2
                 rmatch =    3.653288
              splitnorm =    0.150000
                 energy =   -0.249149
                kinetic =    3.542762
    potential(screened) =   -3.791911
       potential(ionic) =   -7.581078

POLgen: Perturbative polarization orbital with L=  2

POLgen: Polarization orbital for state 2p

   izeta = 1
                     rc =    5.658549
                 energy =    1.109913
                kinetic =    2.304789
    potential(screened) =   -1.194876
       potential(ionic) =   -4.013592
atom: Total number of Sankey-type orbitals: 13

atm_pop: Valence configuration (for local Pseudopot. screening):
 2s( 2.00)                                                            
 2p( 2.00)                                                            
Vna: chval, zval:    4.00000   4.00000

Vna:  Cut-off radius for the neutral-atom potential:   5.658549
comcore: Pseudo-core radius Rcore=  1.791422

atom: _________________________________________________________________________

prinput: Basis input ----------------------------------------------------------

PAO.BasisType split     

%block ChemicalSpeciesLabel
    1    7 N                       # Species index, atomic number, species label
    2    6 C                       # Species index, atomic number, species label
%endblock ChemicalSpeciesLabel

%block PAO.Basis                 # Define Basis set
N                     2                    # Species label, number of l-shells
 n=2   0   2                         # n, l, Nzeta 
   4.071      2.905   
   1.000      1.000   
 n=2   1   2 P   1                   # n, l, Nzeta, Polarization, NzetaPol
   4.973      3.054   
   1.000      1.000   
C                     2                    # Species label, number of l-shells
 n=2   0   2                         # n, l, Nzeta 
   4.633      3.432   
   1.000      1.000   
 n=2   1   2 P   1                   # n, l, Nzeta, Polarization, NzetaPol
   5.659      3.653   
   1.000      1.000   
%endblock PAO.Basis

prinput: ----------------------------------------------------------------------

coor:   Atomic-coordinates input format  =     Fractional

siesta: Atomic coordinates (Bohr) and species
siesta:      2.30256  38.89134   0.00000  1        1
siesta:      2.30256  41.57980   0.00000  1        2
siesta:      6.95932  30.82560   0.00000  1        3
siesta:      6.95932  33.51406   0.00000  1        4
siesta:      2.30256  22.75985   0.00000  1        5
siesta:      2.30256  25.44831   0.00000  1        6
siesta:     -7.01096  14.69411   0.00000  1        7
siesta:     -7.01096  17.38257   0.00000  1        8
siesta:     -4.68258  18.72698   0.00000  1        9
siesta:     -4.68258  21.41544   0.00000  1       10
siesta:     -2.35420  22.75985   0.00000  1       11
siesta:     -2.35420  25.44831   0.00000  1       12
siesta:    -11.66772  22.75985   0.00000  1       13
siesta:    -11.66772  25.44831   0.00000  1       14
siesta:     -9.33934  26.79272   0.00000  1       15
siesta:     -9.33934  29.48119   0.00000  1       16
siesta:      4.63094  26.79272   0.00000  1       17
siesta:      4.63094  29.48119   0.00000  1       18
siesta:     -2.35420  30.82560   0.00000  1       19
siesta:     -2.35420  33.51406   0.00000  1       20
siesta:     -7.01096  30.82560   0.00000  1       21
siesta:     -7.01096  33.51406   0.00000  1       22
siesta:     -0.02582  34.85847   0.00000  1       23
siesta:     -0.02582  37.54693   0.00000  1       24
siesta:     -0.02582   2.59549   0.00000  2       25
siesta:     -0.02582   5.28395   0.00000  2       26
siesta:     -2.35420  38.89134   0.00000  2       27
siesta:     -2.35420  41.57980   0.00000  2       28
siesta:      4.63094  34.85847   0.00000  2       29
siesta:      4.63094  37.54693   0.00000  2       30
siesta:      9.28770  26.79272   0.00000  2       31
siesta:      9.28770  29.48119   0.00000  2       32
siesta:     -4.68258  34.85847   0.00000  2       33
siesta:     -4.68258  37.54693   0.00000  2       34
siesta:      2.30256   6.62836   0.00000  2       35
siesta:      2.30256   9.31683   0.00000  2       36
siesta:      4.63094  10.66124   0.00000  2       37
siesta:      4.63094  13.34970   0.00000  2       38
siesta:      6.95932  14.69411   0.00000  2       39
siesta:      6.95932  17.38257   0.00000  2       40
siesta:      9.28770  18.72698   0.00000  2       41
siesta:      9.28770  21.41544   0.00000  2       42
siesta:     11.61608  22.75985   0.00000  2       43
siesta:     11.61608  25.44831   0.00000  2       44
siesta:     -2.35420   6.62836   0.00000  2       45
siesta:     -2.35420   9.31683   0.00000  2       46
siesta:     -0.02582  10.66124   0.00000  2       47
siesta:     -0.02582  13.34970   0.00000  2       48
siesta:      2.30256  14.69411   0.00000  2       49
siesta:      2.30256  17.38257   0.00000  2       50
siesta:      4.63094  18.72698   0.00000  2       51
siesta:      4.63094  21.41544   0.00000  2       52
siesta:      6.95932  22.75985   0.00000  2       53
siesta:      6.95932  25.44831   0.00000  2       54
siesta:     -4.68258  10.66124   0.00000  2       55
siesta:     -4.68258  13.34970   0.00000  2       56
siesta:     -2.35420  14.69411   0.00000  2       57
siesta:     -2.35420  17.38257   0.00000  2       58
siesta:     -0.02582  18.72698   0.00000  2       59
siesta:     -0.02582  21.41544   0.00000  2       60
siesta:     -9.33934  18.72698   0.00000  2       61
siesta:     -9.33934  21.41544   0.00000  2       62
siesta:     -7.01096  22.75985   0.00000  2       63
siesta:     -7.01096  25.44831   0.00000  2       64
siesta:     -0.02582  26.79272   0.00000  2       65
siesta:     -0.02582  29.48119   0.00000  2       66
siesta:     -4.68258  26.79272   0.00000  2       67
siesta:     -4.68258  29.48119   0.00000  2       68
siesta:      2.30256  30.82560   0.00000  2       69
siesta:      2.30256  33.51406   0.00000  2       70
siesta:     -0.02582  42.92421   0.00000  2       71
siesta:     -0.02582  45.61267   0.00000  2       72

siesta: System type = slab      

initatomlists: Number of atoms, orbitals, and projectors:     72   936  1152

siesta: ******************** Simulation parameters ****************************
siesta:
siesta: The following are some of the parameters of the simulation.
siesta: A complete list of the parameters used, including default values,
siesta: can be found in file out.fdf
siesta:
redata: Non-Collinear-spin run           =     F
redata: SpinPolarized (Up/Down) run      =     F
redata: Number of spin components        =     1
redata: Long output                      =     F
redata: Number of Atomic Species         =        2
redata: Charge density info will appear in .RHO file
redata: Write Mulliken Pop.              =     NO
redata: Mesh Cutoff                      =   200.0000  Ry
redata: Net charge of the system         =     0.0000 |e|
redata: Max. number of SCF Iter          =      500
redata: SCF convergence failure will abort job
redata: Performing Pulay mixing using    =    10 iterations
redata: Mix DM in first SCF step ?       =     F
redata: Write Pulay info on disk?        =     F
redata: Discard 1st Pulay DM after  kick =     F
redata: New DM Mixing Weight             =     0.0500
redata: New DM Occupancy tolerance       = 0.000000000001
redata: No kicks to SCF
redata: DM Mixing Weight for Kicks       =     0.5000
redata: DM Tolerance for SCF             =     0.000100
redata: Require Energy convergence for SCF =     F
redata: DM Energy tolerance for SCF      =     0.000100 eV
redata: Require Harris convergence for SCF =     F
redata: DM Harris energy tolerance for SCF =     0.000100 eV
redata: Using Saved Data (generic)   =     F
redata: Use continuation files for DM    =     T
redata: Neglect nonoverlap interactions  =     F
redata: Method of Calculation            =     Diagonalization
redata: Divide and Conquer               =     T
redata: Electronic Temperature           =     0.0019  Ry
redata: Fix the spin of the system       =     F
redata: Dynamics option                  =     Verlet MD run
redata: Initial MD time step             =        1
redata:   Final MD time step             =        1
redata: Length of MD time step           =     1.0000  fs
redata: Initial Temperature of MD run    =     0.0000  K
redata: Perform a MD quench              =     F
redata: ***********************************************************************
Total number of electrons:   312.000000
Total ionic charge:   312.000000

* ProcessorY, Blocksize:    2  24

k-point displ. along   1 input, could be:     0.50    0.00
k-point displ. along   2 input, could be:     0.50    0.00
 Kpoints in:          231 . Kpoints trimmed:          231

siesta: k-grid: Number of k-points =   231
siesta: k-grid: Cutoff (effective) =     5.000 Ang
siesta: k-grid: Supercell and displacements
siesta: k-grid:   21   0   0      0.500
siesta: k-grid:    0  21   0      0.500
siesta: k-grid:    0   0   1      0.000
Naive supercell factors:     2    2    2

superc: Internal auxiliary supercell:     2 x     2 x     2  =       8
superc: Number of atoms, orbitals, and projectors:    576   7488   9216

* Maximum dynamic memory allocated =     4 MB

siesta:                 ==============================
                            Begin MD step =      1
                        ==============================

superc: Internal auxiliary supercell:     2 x     2 x     2  =       8
superc: Number of atoms, orbitals, and projectors:    576   7488   9216

outcell: Unit cell vectors (Ang):
       12.804619    7.392750    0.000000
        0.000000   14.785500    0.000000
        0.000000    0.000000   10.000000

outcell: Cell vector modules (Ang)   :   14.785500   14.785500   10.000000
outcell: Cell angles (23,13,12) (deg):     90.0000     90.0000     60.0000
outcell: Cell volume (Ang**3)        :   1893.2269
New_DM. Step:     1
Initializing Density Matrix...

InitMesh: MESH =   120 x   120 x    90 =     1296000
InitMesh: Mesh cutoff (required, used) =   200.000   223.865 Ry

* Maximum dynamic memory allocated =   179 MB

stepf: Fermi-Dirac step function

siesta: Program's energy decomposition (eV):
siesta: Ebs     =     -6314.182353
siesta: Eions   =     22260.935331
siesta: Ena     =      4962.671268
siesta: Ekin    =      8392.322035
siesta: Enl     =       -54.683979
siesta: DEna    =        -0.000015
siesta: DUscf   =         0.000000
siesta: DUext   =         0.000000
siesta: Exc     =     -4769.168369
siesta: eta*DQ  =         0.000000
siesta: Emadel  =         0.000000
siesta: Emeta   =         0.000000
siesta: Emolmec =         0.000000
siesta: Ekinion =         0.000000
siesta: Eharris =    -13364.888463
siesta: Etot    =    -13729.794391
siesta: FreeEng =    -13729.794391

siesta: iscf   Eharris(eV)      E_KS(eV)   FreeEng(eV)   dDmax  Ef(eV)
siesta:    1   -13364.8885   -13729.7944   -13729.7944  5.9259 -6.5481
timer: Routine,Calls,Time,% = IterSCF        1    4212.526  99.73
elaps: Routine,Calls,Wall,% = IterSCF        1     527.191  99.73
siesta:    2   -17991.0714   -12689.6739   -12689.6740 14.0486 -4.9557
siesta:    3   -13283.8268   -13502.2738   -13502.3395  2.3416 -4.6150
siesta:    4   -13253.9767   -13370.3310   -13370.3447  1.2059 -3.6840
siesta:    5   -13211.5872   -13292.5410   -13292.5531  0.8509 -3.5825
siesta:    6   -13205.7762   -13275.0182   -13275.0581  0.7375 -3.6581
siesta:    7   -13201.5057   -13262.2499   -13262.3160  0.6764 -3.6060
siesta:    8   -13196.7056   -13240.4442   -13240.5000  0.6711 -3.6113
siesta:    9   -13195.6209   -13229.5863   -13229.6440  0.6643 -3.5727
siesta:   10   -13195.1717   -13215.6987   -13215.7484  0.4686 -3.5787
siesta:   11   -13194.8774   -13201.5389   -13201.6074  0.3447 -3.5107
siesta:   12   -13194.8485   -13191.6073   -13191.6813  0.2057 -3.5445
siesta:   13   -13194.6324   -13184.7120   -13184.7940  0.1570 -3.5309
siesta:   14   -13194.4871   -13185.8205   -13185.9175  0.2131 -3.5559
siesta:   15   -13194.3593   -13185.7787   -13185.8582  0.0950 -3.5690
siesta:   16   -13194.2688   -13187.4620   -13187.5494  0.0613 -3.5625
siesta:   17   -13194.2122   -13187.6015   -13187.6894  0.0466 -3.5701
siesta:   18   -13194.1969   -13189.7687   -13189.8638  0.0569 -3.5718
siesta:   19   -13194.1898   -13191.6014   -13191.6911  0.0585 -3.5699
siesta:   20   -13194.1925   -13193.6518   -13193.7482  0.0405 -3.5759
siesta:   21   -13194.1858   -13193.9599   -13194.0501  0.0327 -3.5741
siesta:   22   -13194.1843   -13194.3550   -13194.4496  0.0260 -3.5690
siesta:   23   -13194.1822   -13194.0455   -13194.1375  0.0073 -3.5642
siesta:   24   -13194.1827   -13194.0897   -13194.1828  0.0059 -3.5629
siesta:   25   -13194.1821   -13194.0521   -13194.1446  0.0051 -3.5616
siesta:   26   -13194.1819   -13194.1171   -13194.2095  0.0032 -3.5622
siesta:   27   -13194.1819   -13194.1863   -13194.2787  0.0027 -3.5623
siesta:   28   -13194.1820   -13194.2394   -13194.3319  0.0020 -3.5630
siesta:   29   -13194.1819   -13194.2330   -13194.3253  0.0011 -3.5631
siesta:   30   -13194.1819   -13194.2182   -13194.3106  0.0006 -3.5634
siesta:   31   -13194.1819   -13194.2116   -13194.3040  0.0005 -3.5635
siesta:   32   -13194.1819   -13194.1983   -13194.2906  0.0003 -3.5636
siesta:   33   -13194.1819   -13194.1973   -13194.2896  0.0002 -3.5636
siesta:   34   -13194.1819   -13194.1953   -13194.2877  0.0001 -3.5637
siesta:   35   -13194.1819   -13194.1935   -13194.2859  0.0001 -3.5636

siesta: E_KS(eV) =           -13194.1902

siesta: E_KS - E_eggbox =    -13194.1902

siesta: Atomic forces (eV/Ang):
----------------------------------------
   Tot   -0.181440   -0.108633    0.000000
----------------------------------------
   Max  678.512062
   Res  173.710052    sqrt( Sum f_i^2 / 3N )
----------------------------------------
   Max  678.512062    constrained

Stress-tensor-Voigt (kbar):     -617.89    -3100.22        0.03       15.89        0.00        0.00
(Free)E + p*V (eV/cell)   -11729.7948
Target enthalpy (eV/cell)   -13194.2826

siesta: Stress tensor (static) (eV/Ang**3):
        -0.385654    0.009919    0.000000
         0.009919   -1.934984    0.000000
         0.000000    0.000000    0.000017

siesta: Pressure (static):       1239.36196148  kBar

siesta: Stress tensor (total) (eV/Ang**3):
        -0.385654    0.009919    0.000000
         0.009919   -1.934984    0.000000
         0.000000    0.000000    0.000017

siesta: Pressure (total):       1239.36196148  kBar

siesta: Temp_ion =       0.000 K

* Maximum dynamic memory allocated =   196 MB
Computing bands...

siesta: Program's energy decomposition (eV):
siesta: Ebs     =     -5093.413033
siesta: Eions   =     22260.935331
siesta: Ena     =      4962.671268
siesta: Ekin    =     11445.272211
siesta: Enl     =     -1737.815282
siesta: DEna    =      -773.831438
siesta: DUscf   =       108.970027
siesta: DUext   =         0.000000
siesta: Exc     =     -4938.521664
siesta: eta*DQ  =         0.000000
siesta: Emadel  =         0.000000
siesta: Emeta   =         0.000000
siesta: Emolmec =         0.000000
siesta: Ekinion =         0.000000
siesta: Eharris =    -13194.181900
siesta: Etot    =    -13194.190210
siesta: FreeEng =    -13194.282570

siesta: Final energy (eV):
siesta:  Band Struct. =   -5093.413033
siesta:       Kinetic =   11445.272211
siesta:       Hartree =   36429.440687
siesta:    Ext. field =       0.000000
siesta:   Exch.-corr. =   -4938.521664
siesta:  Ion-electron =  -83778.351697
siesta:       Ion-ion =   27647.970255
siesta:       Ekinion =       0.000000
siesta:         Total =  -13194.190210

siesta: Atomic forces (eV/Ang):
siesta:      1    0.498221  106.153469    0.000000
siesta:      2   14.027953 -649.618805    0.000000
siesta:      3    3.753632   -0.188491    0.000000
siesta:      4   -3.026325   -1.775307    0.000000
siesta:      5    0.179695   -0.976415    0.000000
siesta:      6   -0.751390    1.154860    0.000000
siesta:      7    3.014835    2.230623    0.000000
siesta:      8   -4.070238   -0.151163    0.000000
siesta:      9    3.482920    1.889856    0.000000
siesta:     10   -1.560794    1.738618    0.000000
siesta:     11   -0.014179   -1.376116    0.000000
siesta:     12   -0.113936    0.697665    0.000000
siesta:     13    1.602944    2.820942    0.000000
siesta:     14    0.491835   -1.720633    0.000000
siesta:     15    1.791032   -0.013899    0.000000
siesta:     16   -1.097444    0.157365    0.000000
siesta:     17    1.559987   -1.392277    0.000000
siesta:     18   -3.380706   -2.129270    0.000000
siesta:     19  -26.249242    4.261986    0.000000
siesta:     20   -7.741877 -678.411027    0.000000
siesta:     21    1.674982    0.201360    0.000000
siesta:     22    1.138232   -2.494650    0.000000
siesta:     23    2.071071  108.776219    0.000000
siesta:     24   -5.165770 -659.197346    0.000000
siesta:     25  -23.494234  550.574394    0.000000
siesta:     26    1.838017 -121.366921    0.000000
siesta:     27   -1.179482  126.622619    0.000000
siesta:     28  -13.947868 -547.752868    0.000000
siesta:     29   25.283596    5.322836    0.000000
siesta:     30   31.553733 -554.733732    0.000000
siesta:     31    0.420259    2.200606    0.000000
siesta:     32   -1.581532    2.591237    0.000000
siesta:     33  -25.835449    8.993116    0.000000
siesta:     34  -28.216217 -551.744320    0.000000
siesta:     35    1.448505  547.710473    0.000000
siesta:     36    1.577089 -119.995640    0.000000
siesta:     37   20.133285  552.119863    0.000000
siesta:     38   27.850515   -3.984732    0.000000
siesta:     39   -3.129203   -0.908695    0.000000
siesta:     40    2.263692    0.143445    0.000000
siesta:     41   -1.500611   -0.037210    0.000000
siesta:     42    1.902740   -2.948323    0.000000
siesta:     43   -0.170834    7.584563    0.000000
siesta:     44   -0.388437   -6.516819    0.000000
siesta:     45  -14.809154  662.764261    0.000000
siesta:     46    2.995843 -118.726648    0.000000
siesta:     47   10.873743  670.109953    0.000000
siesta:     48    0.308619 -124.795761    0.000000
siesta:     49   18.906089  678.512062    0.000000
siesta:     50   23.211962   -6.657828    0.000000
siesta:     51   -2.206175    3.757001    0.000000
siesta:     52    0.024054   -0.555828    0.000000
siesta:     53   -1.200107    1.310288    0.000000
siesta:     54   -1.049758   -0.687539    0.000000
siesta:     55  -33.978888  554.998196    0.000000
siesta:     56  -24.829047   -7.427416    0.000000
siesta:     57  -18.453035  563.148639    0.000000
siesta:     58  -22.930174   -7.128529    0.000000
siesta:     59   -0.069709  567.066284    0.000000
siesta:     60    0.181593    1.381841    0.000000
siesta:     61    0.924147   -1.560190    0.000000
siesta:     62   -0.426318   -0.695961    0.000000
siesta:     63    0.915745    1.012778    0.000000
siesta:     64    0.400879   -0.877128    0.000000
siesta:     65    1.115315    0.448523    0.000000
siesta:     66   21.221942 -579.591312    0.000000
siesta:     67   -0.298765    0.632212    0.000000
siesta:     68    0.623780   -2.944661    0.000000
siesta:     69   23.300629    5.511878    0.000000
siesta:     70   22.790302 -566.520664    0.000000
siesta:     71   -4.301209  131.774627    0.000000
siesta:     72   -0.366748 -548.879164    0.000000
siesta: ----------------------------------------
siesta:    Tot   -0.181440   -0.108633    0.000000

siesta: Stress tensor (static) (eV/Ang**3):
siesta:    -0.385654    0.009919    0.000000
siesta:     0.009919   -1.934984    0.000000
siesta:     0.000000    0.000000    0.000017

siesta: Cell volume =       1893.226884 Ang**3

siesta: Pressure (static):
siesta:                Solid            Molecule  Units
siesta:           0.00842484          0.13725358  Ry/Bohr**3
siesta:           0.77354053         12.60215674  eV/Ang**3
siesta:        1239.36196148      20191.09930549  kBar
(Free)E+ p_basis*V_orbitals  =      -13166.976078
(Free)Eharris+ p_basis*V_orbitals  =      -13166.964456

siesta: Electric dipole (a.u.)  =    0.000000    0.000000    0.000000
siesta: Electric dipole (Debye) =    0.000000    0.000000    0.000000

* Maximum dynamic memory allocated : Node    0 =   196 MB
* Maximum dynamic memory allocated : Node    1 =    70 MB
* Maximum dynamic memory allocated : Node    2 =    73 MB
* Maximum dynamic memory allocated : Node    3 =   187 MB
* Maximum dynamic memory allocated : Node    4 =   184 MB
* Maximum dynamic memory allocated : Node    5 =    70 MB
* Maximum dynamic memory allocated : Node    6 =    71 MB
* Maximum dynamic memory allocated : Node    7 =   169 MB

* Maximum memory occured during matrixMtoO                    

timer: CPU execution times:
timer:  Routine       Calls   Time/call    Tot.time        %
timer:  siesta            1  145899.940  145899.940   100.00
timer:  Setup             1       3.044       3.044     0.00
timer:  bands             3     272.402     817.207     0.56
timer:  writewave         1       0.019       0.019     0.00
timer:  KSV_init          1       0.000       0.000     0.00
timer:  IterMD            1  145073.800  145073.800    99.43
timer:  hsparse           1       0.231       0.231     0.00
timer:  overlap           1       7.713       7.713     0.01
timer:  IterSCF          35    4140.354  144912.402    99.32
timer:  kinefsm           2       3.988       7.975     0.01
timer:  nlefsm            2      18.437      36.874     0.03
timer:  DHSCF            36      87.513    3150.484     2.16
timer:  DHSCF1            1       0.772       0.772     0.00
timer:  DHSCF2            1      33.252      33.252     0.02
timer:  REORD           290       0.011       3.076     0.00
timer:  POISON           37       2.478      91.702     0.06
timer:  DHSCF3           36      85.705    3085.363     2.11
timer:  rhoofd           36      16.629     598.645     0.41
timer:  cellXC           36       3.458     124.471     0.09
timer:  vmat             36      39.096    1407.473     0.96
timer:  MolMec            2       0.000       0.000     0.00
timer:  diagon           35    4051.371  141797.979    97.19
timer:  c-eigval       8206       6.736   55276.087    37.89
timer:  c-buildHS      8206       0.124    1020.257     0.70
timer:  cdiag         16291       6.946  113157.102    77.56
timer:  cdiag1        16291       0.434    7069.913     4.85
timer:  cdiag2        16291       1.916   31206.870    21.39
timer:  cdiag3        16291       3.976   64778.348    44.40
timer:  cdiag4        16291       0.208    3388.082     2.32
timer:  c-eigvec       8085       7.352   59439.675    40.74
timer:  c-buildD       8085       3.445   27854.559    19.09
timer:  DHSCF4            1      28.910      28.910     0.02
timer:  dfscf             1      27.113      27.113     0.02
timer:  overfsm           1       0.396       0.396     0.00
timer:  optical           1       5.135       5.135     0.00
  

elaps: ELAPSED times:
elaps:  Routine       Calls   Time/call    Tot.time        %
elaps:  siesta            1   18257.949   18257.949   100.00
elaps:  Setup             1       0.381       0.381     0.00
elaps:  bands             3      34.103     102.309     0.56
elaps:  writewave         1       0.002       0.002     0.00
elaps:  KSV_init          1       0.000       0.000     0.00
elaps:  IterMD            1   18154.582   18154.582    99.43
elaps:  hsparse           1       0.028       0.028     0.00
elaps:  overlap           1       0.968       0.968     0.01
elaps:  IterSCF          35     518.126   18134.393    99.32
elaps:  kinefsm           2       0.497       0.995     0.01
elaps:  nlefsm            2       2.353       4.707     0.03
elaps:  DHSCF            36      11.053     397.915     2.18
elaps:  DHSCF1            1       0.098       0.098     0.00
elaps:  DHSCF2            1       4.162       4.162     0.02
elaps:  REORD           290       0.001       0.403     0.00
elaps:  POISON           37       0.311      11.490     0.06
elaps:  DHSCF3           36      10.722     385.982     2.11
elaps:  rhoofd           36       4.418     159.053     0.87
elaps:  cellXC           36       0.432      15.548     0.09
elaps:  vmat             36       4.891     176.066     0.96
elaps:  MolMec            2       0.000       0.000     0.00
elaps:  diagon           35     506.995   17744.824    97.19
elaps:  c-eigval       8206       0.843    6916.170    37.88
elaps:  c-buildHS      8206       0.017     138.972     0.76
elaps:  cdiag         16291       0.867   14131.732    77.40
elaps:  cdiag1        16291       0.054     873.516     4.78
elaps:  cdiag2        16291       0.240    3905.334    21.39
elaps:  cdiag3        16291       0.498    8116.227    44.45
elaps:  cdiag4        16291       0.026     425.114     2.33
elaps:  c-eigvec       8085       0.921    7450.119    40.80
elaps:  c-buildD       8085       0.430    3473.721    19.03
elaps:  DHSCF4            1       7.369       7.369     0.04
elaps:  dfscf             1       6.995       6.995     0.04
elaps:  overfsm           1       0.050       0.050     0.00
elaps:  optical           1       0.000       0.000     0.00
  
>> End of run:  23-APR-2016  22:47:05
