Siesta Version:                                        siesta-3.2-pl-3
Architecture  : x86_64-unknown-linux-gnu--unknown
Compiler flags: mpiifort -g -O2 -fPIC -xSSE4.1 -fp-model source -shared-intel 
PARALLEL version

* Running on    8 nodes in parallel
>> Start of run:   1-MAY-2016   4:38:16

                           ***********************       
                           *  WELCOME TO SIESTA  *       
                           ***********************       

reinit: Reading from standard input
************************** Dump of input data file ****************************
#(1) General system descriptors
SystemName            GRP_doping    # Descriptive name of the system
SystemLabel           GRP_doping    # Short name for naming files
%include STRUCT.fdf
%include KPT.fdf
%include BASIS.fdf
#%include TS.fdf # for transiesta calculation
#(4) DFT, Grid, SCF
XC.functional         GGA           # LDA or GGA (default = LDA)
XC.authors            PBE           # CA (Ceperley-Aldr) = PZ
                                    #    (Perdew-Zunger) - LDA - Default
                                    # PW92 (Perdew-Wang-92) - LDA
                                    # PBE (Perdew-Burke-Ernzerhof) - GGA
MeshCutoff            200.000000    Ry      # Default: 50.0 Ry ~ 0.444 Bohr
                                    #         100.0 Ry ~ 0.314 Bohr
MaxSCFIterations      500           # Default: 50
DM.MixingWeight       0.05          # Default: 0.25
DM.NumberPulay        10            # Default: 0
DM.PulayOnFile        F             # SystemLabel.P1, SystemLabel.P2
DM.Tolerance          1.d-4         # Default: 1.d-4
DM.UseSaveDM          .true.        # because of the bug
SCFMustConverge       .true.
NeglNonOverlapInt     F             # Default: F
#(5) Eigenvalue problem: order-N or diagonalization
SolutionMethod        Diagon        # or Transiesta
ElectronicTemperature 300.0 K       # Default: 300.0 K
#(6) Molecular dynamics and relaxations
#MD.TypeOfRun          CG            # Type of dynamics:
#MD.VariableCell       F
#MD.NumCGsteps         0           # 0 for single-point / 100 for gopt
#MD.MaxCGDispl         0.2 Bohr      # Default: 0.2 Bohr
#MD.MaxForceTol        0.02 eV/Ang   # Default: 0.04 eV/Ang
#MD.MaxStressTol       1.0 GPa       # Default: 1.0 GPa
# Geometry Constraints
#%block GeometryConstraints
#	position from 1 to 44
#%endblock GeometryConstraints
BandLinesScale   pi/a
%block BandLines
 1   0.00000000  0.00000000  0.00000000
50   0.00000000  0.07809418  0.00000000
50   0.04509075  0.07809242  0.00000000
20   0.00000000  0.00000000  0.00000000
%endblock BandLines
************************** End of input data file *****************************

reinit: -----------------------------------------------------------------------
reinit: System Name: GRP_doping
reinit: -----------------------------------------------------------------------
reinit: System Label: GRP_doping                                                  
reinit: -----------------------------------------------------------------------

initatom: Reading input for the pseudopotentials and atomic orbitals ----------
 Species number:            1  Label: N Atomic number:           7
 Species number:            2  Label: C Atomic number:           6
Ground state valence configuration:   2s02  2p03
Reading pseudopotential information in formatted form from N.psf

Valence configuration for pseudopotential generation:
2s( 2.00) rc: 1.48
2p( 3.00) rc: 1.48
3d( 0.00) rc: 1.48
4f( 0.00) rc: 1.48
Ground state valence configuration:   2s02  2p02
Reading pseudopotential information in formatted form from C.psf

Valence configuration for pseudopotential generation:
2s( 2.00) rc: 1.54
2p( 2.00) rc: 1.54
3d( 0.00) rc: 1.54
4f( 0.00) rc: 1.54
For N, standard SIESTA heuristics set lmxkb to 3
 (one more than the basis l, including polarization orbitals).
Use PS.lmax or PS.KBprojectors blocks to override.
For C, standard SIESTA heuristics set lmxkb to 3
 (one more than the basis l, including polarization orbitals).
Use PS.lmax or PS.KBprojectors blocks to override.

<basis_specs>
===============================================================================
N                    Z=   7    Mass=  14.010        Charge= 0.17977+309
Lmxo=1 Lmxkb= 3    BasisType=split      Semic=F
L=0  Nsemic=0  Cnfigmx=2
          n=1  nzeta=2  polorb=0
            splnorm:   0.15000    
               vcte:    0.0000    
               rinn:    0.0000    
                rcs:    0.0000      0.0000    
            lambdas:    1.0000      1.0000    
L=1  Nsemic=0  Cnfigmx=2
          n=1  nzeta=2  polorb=1
            splnorm:   0.15000    
               vcte:    0.0000    
               rinn:    0.0000    
                rcs:    0.0000      0.0000    
            lambdas:    1.0000      1.0000    
-------------------------------------------------------------------------------
L=0  Nkbl=1  erefs: 0.17977+309
L=1  Nkbl=1  erefs: 0.17977+309
L=2  Nkbl=1  erefs: 0.17977+309
L=3  Nkbl=1  erefs: 0.17977+309
===============================================================================
</basis_specs>

atom: Called for N                     (Z =   7)

read_vps: Pseudopotential generation method:
read_vps: ATM3      Troullier-Martins                       
Total valence charge:    5.00000

read_vps: Pseudopotential includes a core correction:
read_vps: Pseudo-core for xc-correction

xc_check: Exchange-correlation functional:
xc_check: GGA Perdew, Burke & Ernzerhof 1996
V l=0 = -2*Zval/r beyond r=  1.4606
V l=1 = -2*Zval/r beyond r=  1.4606
V l=2 = -2*Zval/r beyond r=  1.4606
V l=3 = -2*Zval/r beyond r=  1.4606
All V_l potentials equal beyond r=  1.4606
This should be close to max(r_c) in ps generation
All pots = -2*Zval/r beyond r=  1.4606

VLOCAL1: 99.0% of the norm of Vloc inside     20.347 Ry
VLOCAL1: 99.9% of the norm of Vloc inside     46.372 Ry
atom: Maximum radius for 4*pi*r*r*local-pseudopot. charge    1.76189
atom: Maximum radius for r*vlocal+2*Zval:    1.53550
GHOST: No ghost state for L =  0
GHOST: No ghost state for L =  1
GHOST: No ghost state for L =  2
GHOST: No ghost state for L =  3

KBgen: Kleinman-Bylander projectors: 
   l= 0   rc=  1.634559   el= -1.363963   Ekb=  5.296955   kbcos=  0.335621
   l= 1   rc=  1.614250   el= -0.521451   Ekb= -5.259161   kbcos= -0.433408
   l= 2   rc=  1.718383   el=  0.001991   Ekb= -1.271464   kbcos= -0.007566
   l= 3   rc=  1.761893   el=  0.003093   Ekb= -0.494769   kbcos= -0.001015

KBgen: Total number of  Kleinman-Bylander projectors:   16
atom: -------------------------------------------------------------------------

atom: SANKEY-TYPE ORBITALS:
atom: Selected multiple-zeta basis: split     

SPLIT: Orbitals with angular momentum L= 0

SPLIT: Basis orbitals for state 2s

SPLIT: PAO cut-off radius determined from an
SPLIT: energy shift=  0.007350 Ry

   izeta = 1
                 lambda =    1.000000
                     rc =    4.071465
                 energy =   -1.356470
                kinetic =    1.176977
    potential(screened) =   -2.533447
       potential(ionic) =   -8.057990

   izeta = 2
                 rmatch =    2.905100
              splitnorm =    0.150000
                 energy =   -1.158343
                kinetic =    1.813009
    potential(screened) =   -2.971352
       potential(ionic) =   -8.901931

SPLIT: Orbitals with angular momentum L= 1

SPLIT: Basis orbitals for state 2p

SPLIT: PAO cut-off radius determined from an
SPLIT: energy shift=  0.007350 Ry

   izeta = 1
                 lambda =    1.000000
                     rc =    4.972977
                 energy =   -0.513884
                kinetic =    3.441732
    potential(screened) =   -3.955616
       potential(ionic) =   -9.287901

   izeta = 2
                 rmatch =    3.054066
              splitnorm =    0.150000
                 energy =   -0.318226
                kinetic =    5.125348
    potential(screened) =   -5.443573
       potential(ionic) =  -11.380999

POLgen: Perturbative polarization orbital with L=  2

POLgen: Polarization orbital for state 2p

   izeta = 1
                     rc =    4.972977
                 energy =    1.607437
                kinetic =    3.268125
    potential(screened) =   -1.660688
       potential(ionic) =   -5.973652
atom: Total number of Sankey-type orbitals: 13

atm_pop: Valence configuration (for local Pseudopot. screening):
 2s( 2.00)                                                            
 2p( 3.00)                                                            
Vna: chval, zval:    5.00000   5.00000

Vna:  Cut-off radius for the neutral-atom potential:   4.972977
comcore: Pseudo-core radius Rcore=  1.554824

atom: _________________________________________________________________________

<basis_specs>
===============================================================================
C                    Z=   6    Mass=  12.010        Charge= 0.17977+309
Lmxo=1 Lmxkb= 3    BasisType=split      Semic=F
L=0  Nsemic=0  Cnfigmx=2
          n=1  nzeta=2  polorb=0
            splnorm:   0.15000    
               vcte:    0.0000    
               rinn:    0.0000    
                rcs:    0.0000      0.0000    
            lambdas:    1.0000      1.0000    
L=1  Nsemic=0  Cnfigmx=2
          n=1  nzeta=2  polorb=1
            splnorm:   0.15000    
               vcte:    0.0000    
               rinn:    0.0000    
                rcs:    0.0000      0.0000    
            lambdas:    1.0000      1.0000    
-------------------------------------------------------------------------------
L=0  Nkbl=1  erefs: 0.17977+309
L=1  Nkbl=1  erefs: 0.17977+309
L=2  Nkbl=1  erefs: 0.17977+309
L=3  Nkbl=1  erefs: 0.17977+309
===============================================================================
</basis_specs>

atom: Called for C                     (Z =   6)

read_vps: Pseudopotential generation method:
read_vps: ATM3      Troullier-Martins                       
Total valence charge:    4.00000

read_vps: Pseudopotential includes a core correction:
read_vps: Pseudo-core for xc-correction

xc_check: Exchange-correlation functional:
xc_check: GGA Perdew, Burke & Ernzerhof 1996
V l=0 = -2*Zval/r beyond r=  1.5227
V l=1 = -2*Zval/r beyond r=  1.5227
V l=2 = -2*Zval/r beyond r=  1.5227
V l=3 = -2*Zval/r beyond r=  1.5038
All V_l potentials equal beyond r=  1.5227
This should be close to max(r_c) in ps generation
All pots = -2*Zval/r beyond r=  1.5227

VLOCAL1: 99.0% of the norm of Vloc inside     18.722 Ry
VLOCAL1: 99.9% of the norm of Vloc inside     42.668 Ry
atom: Maximum radius for 4*pi*r*r*local-pseudopot. charge    1.83678
atom: Maximum radius for r*vlocal+2*Zval:    1.58088
GHOST: No ghost state for L =  0
GHOST: No ghost state for L =  1
GHOST: No ghost state for L =  2
GHOST: No ghost state for L =  3

KBgen: Kleinman-Bylander projectors: 
   l= 0   rc=  1.704034   el= -1.009801   Ekb=  5.335044   kbcos=  0.316824
   l= 1   rc=  1.704034   el= -0.388707   Ekb= -3.785862   kbcos= -0.366464
   l= 2   rc=  1.791422   el=  0.001971   Ekb= -0.970471   kbcos= -0.009212
   l= 3   rc=  1.859892   el=  0.003065   Ekb= -0.399525   kbcos= -0.001223

KBgen: Total number of  Kleinman-Bylander projectors:   16
atom: -------------------------------------------------------------------------

atom: SANKEY-TYPE ORBITALS:
atom: Selected multiple-zeta basis: split     

SPLIT: Orbitals with angular momentum L= 0

SPLIT: Basis orbitals for state 2s

SPLIT: PAO cut-off radius determined from an
SPLIT: energy shift=  0.007350 Ry

   izeta = 1
                 lambda =    1.000000
                     rc =    4.632753
                 energy =   -1.002270
                kinetic =    0.855760
    potential(screened) =   -1.858031
       potential(ionic) =   -5.417575

   izeta = 2
                 rmatch =    3.431921
              splitnorm =    0.150000
                 energy =   -0.867111
                kinetic =    1.300804
    potential(screened) =   -2.167915
       potential(ionic) =   -5.962684

SPLIT: Orbitals with angular momentum L= 1

SPLIT: Basis orbitals for state 2p

SPLIT: PAO cut-off radius determined from an
SPLIT: energy shift=  0.007350 Ry

   izeta = 1
                 lambda =    1.000000
                     rc =    5.658549
                 energy =   -0.381140
                kinetic =    2.399701
    potential(screened) =   -2.780841
       potential(ionic) =   -6.206085

   izeta = 2
                 rmatch =    3.653288
              splitnorm =    0.150000
                 energy =   -0.249149
                kinetic =    3.542762
    potential(screened) =   -3.791911
       potential(ionic) =   -7.581078

POLgen: Perturbative polarization orbital with L=  2

POLgen: Polarization orbital for state 2p

   izeta = 1
                     rc =    5.658549
                 energy =    1.109913
                kinetic =    2.304789
    potential(screened) =   -1.194876
       potential(ionic) =   -4.013592
atom: Total number of Sankey-type orbitals: 13

atm_pop: Valence configuration (for local Pseudopot. screening):
 2s( 2.00)                                                            
 2p( 2.00)                                                            
Vna: chval, zval:    4.00000   4.00000

Vna:  Cut-off radius for the neutral-atom potential:   5.658549
comcore: Pseudo-core radius Rcore=  1.791422

atom: _________________________________________________________________________

prinput: Basis input ----------------------------------------------------------

PAO.BasisType split     

%block ChemicalSpeciesLabel
    1    7 N                       # Species index, atomic number, species label
    2    6 C                       # Species index, atomic number, species label
%endblock ChemicalSpeciesLabel

%block PAO.Basis                 # Define Basis set
N                     2                    # Species label, number of l-shells
 n=2   0   2                         # n, l, Nzeta 
   4.071      2.905   
   1.000      1.000   
 n=2   1   2 P   1                   # n, l, Nzeta, Polarization, NzetaPol
   4.973      3.054   
   1.000      1.000   
C                     2                    # Species label, number of l-shells
 n=2   0   2                         # n, l, Nzeta 
   4.633      3.432   
   1.000      1.000   
 n=2   1   2 P   1                   # n, l, Nzeta, Polarization, NzetaPol
   5.659      3.653   
   1.000      1.000   
%endblock PAO.Basis

prinput: ----------------------------------------------------------------------

coor:   Atomic-coordinates input format  =     Fractional

siesta: Atomic coordinates (Bohr) and species
siesta:      4.63094  34.85847   0.00000  1        1
siesta:      6.95932  30.82560   0.00000  1        2
siesta:      6.95932  33.51406   0.00000  1        3
siesta:     -0.02582  21.41544   0.00000  1        4
siesta:      2.30256  22.75985   0.00000  1        5
siesta:      2.30256  25.44831   0.00000  1        6
siesta:     -4.68258  21.41544   0.00000  1        7
siesta:     -2.35420  22.75985   0.00000  1        8
siesta:     -2.35420  25.44831   0.00000  1        9
siesta:     -9.33934  21.41544   0.00000  1       10
siesta:     -7.01096  22.75985   0.00000  1       11
siesta:     -7.01096  25.44831   0.00000  1       12
siesta:    -11.66772  22.75985   0.00000  1       13
siesta:      4.63094  26.79272   0.00000  1       14
siesta:      4.63094  29.48119   0.00000  1       15
siesta:     -0.02582  26.79272   0.00000  1       16
siesta:     -0.02582  29.48119   0.00000  1       17
siesta:      2.30256  30.82560   0.00000  1       18
siesta:      2.30256  33.51406   0.00000  1       19
siesta:     -0.02582   2.59549   0.00000  2       20
siesta:     -0.02582   5.28395   0.00000  2       21
siesta:     -2.35420  38.89134   0.00000  2       22
siesta:     -2.35420  41.57980   0.00000  2       23
siesta:      2.30256  38.89134   0.00000  2       24
siesta:      2.30256  41.57980   0.00000  2       25
siesta:      4.63094  37.54693   0.00000  2       26
siesta:      9.28770  26.79272   0.00000  2       27
siesta:      9.28770  29.48119   0.00000  2       28
siesta:     -4.68258  34.85847   0.00000  2       29
siesta:     -4.68258  37.54693   0.00000  2       30
siesta:      2.30256   6.62836   0.00000  2       31
siesta:      2.30256   9.31683   0.00000  2       32
siesta:      4.63094  10.66124   0.00000  2       33
siesta:      4.63094  13.34970   0.00000  2       34
siesta:      6.95932  14.69411   0.00000  2       35
siesta:      6.95932  17.38257   0.00000  2       36
siesta:      9.28770  18.72698   0.00000  2       37
siesta:      9.28770  21.41544   0.00000  2       38
siesta:     11.61608  22.75985   0.00000  2       39
siesta:     11.61608  25.44831   0.00000  2       40
siesta:     -2.35420   6.62836   0.00000  2       41
siesta:     -2.35420   9.31683   0.00000  2       42
siesta:     -0.02582  10.66124   0.00000  2       43
siesta:     -0.02582  13.34970   0.00000  2       44
siesta:      2.30256  14.69411   0.00000  2       45
siesta:      2.30256  17.38257   0.00000  2       46
siesta:      4.63094  18.72698   0.00000  2       47
siesta:      4.63094  21.41544   0.00000  2       48
siesta:      6.95932  22.75985   0.00000  2       49
siesta:      6.95932  25.44831   0.00000  2       50
siesta:     -4.68258  10.66124   0.00000  2       51
siesta:     -4.68258  13.34970   0.00000  2       52
siesta:     -2.35420  14.69411   0.00000  2       53
siesta:     -2.35420  17.38257   0.00000  2       54
siesta:     -0.02582  18.72698   0.00000  2       55
siesta:     -7.01096  14.69411   0.00000  2       56
siesta:     -7.01096  17.38257   0.00000  2       57
siesta:     -4.68258  18.72698   0.00000  2       58
siesta:     -9.33934  18.72698   0.00000  2       59
siesta:    -11.66772  25.44831   0.00000  2       60
siesta:     -9.33934  26.79272   0.00000  2       61
siesta:     -9.33934  29.48119   0.00000  2       62
siesta:     -4.68258  26.79272   0.00000  2       63
siesta:     -4.68258  29.48119   0.00000  2       64
siesta:     -2.35420  30.82560   0.00000  2       65
siesta:     -2.35420  33.51406   0.00000  2       66
siesta:     -7.01096  30.82560   0.00000  2       67
siesta:     -7.01096  33.51406   0.00000  2       68
siesta:     -0.02582  34.85847   0.00000  2       69
siesta:     -0.02582  37.54693   0.00000  2       70
siesta:     -0.02582  42.92421   0.00000  2       71
siesta:     -0.02582  45.61267   0.00000  2       72

siesta: System type = slab      

initatomlists: Number of atoms, orbitals, and projectors:     72   936  1152

siesta: ******************** Simulation parameters ****************************
siesta:
siesta: The following are some of the parameters of the simulation.
siesta: A complete list of the parameters used, including default values,
siesta: can be found in file out.fdf
siesta:
redata: Non-Collinear-spin run           =     F
redata: SpinPolarized (Up/Down) run      =     F
redata: Number of spin components        =     1
redata: Long output                      =     F
redata: Number of Atomic Species         =        2
redata: Charge density info will appear in .RHO file
redata: Write Mulliken Pop.              =     NO
redata: Mesh Cutoff                      =   200.0000  Ry
redata: Net charge of the system         =     0.0000 |e|
redata: Max. number of SCF Iter          =      500
redata: SCF convergence failure will abort job
redata: Performing Pulay mixing using    =    10 iterations
redata: Mix DM in first SCF step ?       =     F
redata: Write Pulay info on disk?        =     F
redata: Discard 1st Pulay DM after  kick =     F
redata: New DM Mixing Weight             =     0.0500
redata: New DM Occupancy tolerance       = 0.000000000001
redata: No kicks to SCF
redata: DM Mixing Weight for Kicks       =     0.5000
redata: DM Tolerance for SCF             =     0.000100
redata: Require Energy convergence for SCF =     F
redata: DM Energy tolerance for SCF      =     0.000100 eV
redata: Require Harris convergence for SCF =     F
redata: DM Harris energy tolerance for SCF =     0.000100 eV
redata: Using Saved Data (generic)   =     F
redata: Use continuation files for DM    =     T
redata: Neglect nonoverlap interactions  =     F
redata: Method of Calculation            =     Diagonalization
redata: Divide and Conquer               =     T
redata: Electronic Temperature           =     0.0019  Ry
redata: Fix the spin of the system       =     F
redata: Dynamics option                  =     Verlet MD run
redata: Initial MD time step             =        1
redata:   Final MD time step             =        1
redata: Length of MD time step           =     1.0000  fs
redata: Initial Temperature of MD run    =     0.0000  K
redata: Perform a MD quench              =     F
redata: ***********************************************************************
Total number of electrons:   307.000000
Total ionic charge:   307.000000

* ProcessorY, Blocksize:    2  24

k-point displ. along   1 input, could be:     0.50    0.00
k-point displ. along   2 input, could be:     0.50    0.00
 Kpoints in:          231 . Kpoints trimmed:          231

siesta: k-grid: Number of k-points =   231
siesta: k-grid: Cutoff (effective) =     5.000 Ang
siesta: k-grid: Supercell and displacements
siesta: k-grid:   21   0   0      0.500
siesta: k-grid:    0  21   0      0.500
siesta: k-grid:    0   0   1      0.000
Naive supercell factors:     2    2    2

superc: Internal auxiliary supercell:     2 x     2 x     2  =       8
superc: Number of atoms, orbitals, and projectors:    576   7488   9216

* Maximum dynamic memory allocated =     4 MB

siesta:                 ==============================
                            Begin MD step =      1
                        ==============================

superc: Internal auxiliary supercell:     2 x     2 x     2  =       8
superc: Number of atoms, orbitals, and projectors:    576   7488   9216

outcell: Unit cell vectors (Ang):
       12.804619    7.392750    0.000000
        0.000000   14.785500    0.000000
        0.000000    0.000000   10.000000

outcell: Cell vector modules (Ang)   :   14.785500   14.785500   10.000000
outcell: Cell angles (23,13,12) (deg):     90.0000     90.0000     60.0000
outcell: Cell volume (Ang**3)        :   1893.2269
New_DM. Step:     1
Initializing Density Matrix...

InitMesh: MESH =   120 x   120 x    90 =     1296000
InitMesh: Mesh cutoff (required, used) =   200.000   223.865 Ry

* Maximum dynamic memory allocated =   186 MB

stepf: Fermi-Dirac step function

siesta: Program's energy decomposition (eV):
siesta: Ebs     =     -6194.304066
siesta: Eions   =     21457.201110
siesta: Ena     =      4913.476242
siesta: Ekin    =      7972.707975
siesta: Enl     =        96.991795
siesta: DEna    =        -0.000015
siesta: DUscf   =         0.000000
siesta: DUext   =         0.000000
siesta: Exc     =     -4639.115242
siesta: eta*DQ  =         0.000000
siesta: Emadel  =         0.000000
siesta: Emeta   =         0.000000
siesta: Emolmec =         0.000000
siesta: Ekinion =         0.000000
siesta: Eharris =    -12771.051955
siesta: Etot    =    -13113.140354
siesta: FreeEng =    -13113.140354

siesta: iscf   Eharris(eV)      E_KS(eV)   FreeEng(eV)   dDmax  Ef(eV)
siesta:    1   -12771.0520   -13113.1404   -13113.1404  6.3127 -6.8525
timer: Routine,Calls,Time,% = IterSCF        1    3401.340  99.70
elaps: Routine,Calls,Wall,% = IterSCF        1     426.008  99.70
siesta:    2   -20018.7763   -11808.3548   -11808.4269 16.5913 -8.5873
siesta:    3   -12736.5915   -12924.0563   -12924.1127  2.7734 -5.2203
siesta:    4   -12671.1095   -12798.1497   -12798.2035  1.2449 -4.5831
siesta:    5   -12623.2353   -12702.3554   -12702.3992  0.9120 -4.2696
siesta:    6   -12610.8411   -12655.2564   -12655.2903  0.7858 -3.8528
siesta:    7   -12601.7365   -12642.6175   -12642.6553  0.6719 -3.8261
siesta:    8   -12592.5521   -12621.9719   -12622.0053  0.6942 -3.7591
siesta:    9   -12591.7811   -12611.2729   -12611.3336  0.4931 -3.8005
siesta:   10   -12590.8078   -12600.3203   -12600.3960  0.4973 -3.7939
siesta:   11   -12591.3422   -12584.5636   -12584.6495  0.3811 -3.8145
siesta:   12   -12591.2655   -12581.9743   -12582.0660  0.3405 -3.7847
siesta:   13   -12590.9081   -12576.2397   -12576.3216  0.2774 -3.7822
siesta:   14   -12590.3669   -12577.8254   -12577.8943  0.2541 -3.7611
siesta:   15   -12589.9978   -12579.8433   -12579.9190  0.2336 -3.7549
siesta:   16   -12589.6191   -12580.8194   -12580.9071  0.2093 -3.7519
siesta:   17   -12589.5210   -12581.7508   -12581.8291  0.1849 -3.7381
siesta:   18   -12589.4625   -12582.4608   -12582.5423  0.1609 -3.7477
siesta:   19   -12589.4034   -12584.9435   -12585.0269  0.1323 -3.7657
siesta:   20   -12589.3827   -12587.6860   -12587.7714  0.0888 -3.7711
siesta:   21   -12589.3799   -12587.8060   -12587.9009  0.0812 -3.7673
siesta:   22   -12589.3642   -12589.5699   -12589.6575  0.0539 -3.7645
siesta:   23   -12589.3588   -12589.6142   -12589.7097  0.0357 -3.7584
siesta:   24   -12589.3606   -12588.8940   -12588.9904  0.0173 -3.7517
siesta:   25   -12589.3568   -12589.0010   -12589.0939  0.0109 -3.7502
siesta:   26   -12589.3564   -12589.2285   -12589.3224  0.0098 -3.7496
siesta:   27   -12589.3560   -12589.2184   -12589.3123  0.0063 -3.7501
siesta:   28   -12589.3556   -12589.1980   -12589.2920  0.0044 -3.7510
siesta:   29   -12589.3559   -12589.2020   -12589.2964  0.0032 -3.7517
siesta:   30   -12589.3557   -12589.2307   -12589.3248  0.0023 -3.7526
siesta:   31   -12589.3556   -12589.2848   -12589.3789  0.0010 -3.7532
siesta:   32   -12589.3556   -12589.2782   -12589.3723  0.0010 -3.7531
siesta:   33   -12589.3556   -12589.2928   -12589.3868  0.0005 -3.7533
siesta:   34   -12589.3556   -12589.3270   -12589.4210  0.0004 -3.7534
siesta:   35   -12589.3556   -12589.3351   -12589.4291  0.0006 -3.7534
siesta:   36   -12589.3556   -12589.3414   -12589.4354  0.0003 -3.7534
siesta:   37   -12589.3556   -12589.3424   -12589.4364  0.0003 -3.7533
siesta:   38   -12589.3556   -12589.3518   -12589.4458  0.0001 -3.7532
siesta:   39   -12589.3556   -12589.3539   -12589.4479  0.0001 -3.7532
siesta:   40   -12589.3556   -12589.3540   -12589.4480  0.0001 -3.7532

siesta: E_KS(eV) =           -12589.3533

siesta: E_KS - E_eggbox =    -12589.3533

siesta: Atomic forces (eV/Ang):
----------------------------------------
   Tot    0.052795   -0.266606    0.000000
----------------------------------------
   Max  686.349367
   Res  169.009851    sqrt( Sum f_i^2 / 3N )
----------------------------------------
   Max  686.349367    constrained

Stress-tensor-Voigt (kbar):     -718.35    -2963.98       -0.07      -25.18        0.00        0.00
(Free)E + p*V (eV/cell)   -11139.0155
Target enthalpy (eV/cell)   -12589.4473

siesta: Stress tensor (static) (eV/Ang**3):
        -0.448354   -0.015717    0.000000
        -0.015717   -1.849952    0.000000
         0.000000    0.000000   -0.000043

siesta: Pressure (static):       1227.46676302  kBar

siesta: Stress tensor (total) (eV/Ang**3):
        -0.448354   -0.015717    0.000000
        -0.015717   -1.849952    0.000000
         0.000000    0.000000   -0.000043

siesta: Pressure (total):       1227.46676302  kBar

siesta: Temp_ion =       0.000 K

* Maximum dynamic memory allocated =   203 MB
Computing bands...

siesta: Program's energy decomposition (eV):
siesta: Ebs     =     -5011.259262
siesta: Eions   =     21457.201110
siesta: Ena     =      4913.476242
siesta: Ekin    =     10962.683346
siesta: Enl     =     -1549.436184
siesta: DEna    =      -761.034835
siesta: DUscf   =       107.373836
siesta: DUext   =         0.000000
siesta: Exc     =     -4805.214557
siesta: eta*DQ  =         0.000000
siesta: Emadel  =         0.000000
siesta: Emeta   =         0.000000
siesta: Emolmec =         0.000000
siesta: Ekinion =         0.000000
siesta: Eharris =    -12589.355596
siesta: Etot    =    -12589.353262
siesta: FreeEng =    -12589.447303

siesta: Final energy (eV):
siesta:  Band Struct. =   -5011.259262
siesta:       Kinetic =   10962.683346
siesta:       Hartree =   35092.421018
siesta:    Ext. field =       0.000000
siesta:   Exch.-corr. =   -4805.214557
siesta:  Ion-electron =  -80696.936235
siesta:       Ion-ion =   26857.693166
siesta:       Ekinion =       0.000000
siesta:         Total =  -12589.353262

siesta: Atomic forces (eV/Ang):
siesta:      1   29.779311   13.391191    0.000000
siesta:      2    4.216243    0.694567    0.000000
siesta:      3    0.489504   -3.410759    0.000000
siesta:      4    0.051520   -3.608840    0.000000
siesta:      5    0.497905   -1.863147    0.000000
siesta:      6    1.372235    1.536475    0.000000
siesta:      7    0.214404   -2.156649    0.000000
siesta:      8   -0.888141   -0.849039    0.000000
siesta:      9   -1.666685    0.170739    0.000000
siesta:     10   -0.570035   -5.214752    0.000000
siesta:     11    0.925801    2.367114    0.000000
siesta:     12    1.910257    0.193684    0.000000
siesta:     13    0.136299    4.595018    0.000000
siesta:     14    1.123081   -0.053451    0.000000
siesta:     15    0.121027   -2.208188    0.000000
siesta:     16   -1.563822    6.572610    0.000000
siesta:     17  -12.609812 -686.349367    0.000000
siesta:     18   33.236711   11.141493    0.000000
siesta:     19   -5.453148 -678.276077    0.000000
siesta:     20    5.449125  642.844684    0.000000
siesta:     21    3.599443 -120.445274    0.000000
siesta:     22    1.203775  128.207745    0.000000
siesta:     23  -17.114705 -549.344784    0.000000
siesta:     24   -0.346211  126.268761    0.000000
siesta:     25   15.349242 -547.636954    0.000000
siesta:     26   23.834315 -550.510311    0.000000
siesta:     27    0.593775    1.895634    0.000000
siesta:     28   -1.841048    2.653543    0.000000
siesta:     29  -26.359404    5.857419    0.000000
siesta:     30  -32.971814 -550.154124    0.000000
siesta:     31   33.312753  653.885500    0.000000
siesta:     32    1.529634 -117.671416    0.000000
siesta:     33   35.391847  552.378115    0.000000
siesta:     34   26.713696   -5.790998    0.000000
siesta:     35   -2.913910   -1.173998    0.000000
siesta:     36    2.989141   -0.127284    0.000000
siesta:     37   -1.319107   -0.489051    0.000000
siesta:     38    1.893423   -1.745125    0.000000
siesta:     39   -0.208707    6.742431    0.000000
siesta:     40   -0.281251   -6.184898    0.000000
siesta:     41  -14.093979  549.086918    0.000000
siesta:     42    0.962997 -127.615806    0.000000
siesta:     43   -1.883394  544.157056    0.000000
siesta:     44   -0.674355 -128.003468    0.000000
siesta:     45   23.233731  558.907130    0.000000
siesta:     46   22.840059   -6.928713    0.000000
siesta:     47   -2.033251    3.666002    0.000000
siesta:     48   -0.512320   -1.134013    0.000000
siesta:     49   -1.062301    1.169752    0.000000
siesta:     50   -0.730314   -0.607937    0.000000
siesta:     51  -34.458731  550.307594    0.000000
siesta:     52  -26.158789   -7.283382    0.000000
siesta:     53  -18.418794  557.488052    0.000000
siesta:     54  -23.394595   -4.592058    0.000000
siesta:     55   -0.162494  565.592281    0.000000
siesta:     56    2.395314   -0.508544    0.000000
siesta:     57   -0.460328   -0.201700    0.000000
siesta:     58    1.482703    2.826084    0.000000
siesta:     59   -1.253101    3.684408    0.000000
siesta:     60   -0.796535   -5.751582    0.000000
siesta:     61   -0.049036    2.134751    0.000000
siesta:     62    0.528673   -1.292429    0.000000
siesta:     63   -0.565268   -0.964355    0.000000
siesta:     64    1.168470   -2.753823    0.000000
siesta:     65  -24.783632    9.553085    0.000000
siesta:     66  -20.977222 -555.741007    0.000000
siesta:     67   -1.117601    0.288467    0.000000
siesta:     68    2.381801    1.561780    0.000000
siesta:     69   -2.220851  127.951335    0.000000
siesta:     70    2.373923 -543.729224    0.000000
siesta:     71   -0.756949  127.430973    0.000000
siesta:     72   -0.577708 -545.096467    0.000000
siesta: ----------------------------------------
siesta:    Tot    0.052795   -0.266606    0.000000

siesta: Stress tensor (static) (eV/Ang**3):
siesta:    -0.448354   -0.015717    0.000000
siesta:    -0.015717   -1.849952    0.000000
siesta:     0.000000    0.000000   -0.000043

siesta: Cell volume =       1893.226884 Ang**3

siesta: Pressure (static):
siesta:                Solid            Molecule  Units
siesta:           0.00834398          0.13199988  Ry/Bohr**3
siesta:           0.76611621         12.11978025  eV/Ang**3
siesta:        1227.46676302      19418.23861468  kBar
(Free)E+ p_basis*V_orbitals  =      -12561.425993
(Free)Eharris+ p_basis*V_orbitals  =      -12561.427628

siesta: Electric dipole (a.u.)  =    0.000000    0.000000    0.000000
siesta: Electric dipole (Debye) =    0.000000    0.000000    0.000000

* Maximum dynamic memory allocated : Node    0 =   203 MB
* Maximum dynamic memory allocated : Node    1 =    72 MB
* Maximum dynamic memory allocated : Node    2 =    74 MB
* Maximum dynamic memory allocated : Node    3 =   193 MB
* Maximum dynamic memory allocated : Node    4 =   185 MB
* Maximum dynamic memory allocated : Node    5 =    70 MB
* Maximum dynamic memory allocated : Node    6 =    71 MB
* Maximum dynamic memory allocated : Node    7 =   171 MB

* Maximum memory occured during matrixMtoO                    

timer: CPU execution times:
timer:  Routine       Calls   Time/call    Tot.time        %
timer:  siesta            1  134203.132  134203.132   100.00
timer:  Setup             1       2.710       2.710     0.00
timer:  bands             3     243.851     731.553     0.55
timer:  writewave         1       0.017       0.017     0.00
timer:  KSV_init          1       0.004       0.004     0.00
timer:  IterMD            1  133463.575  133463.575    99.45
timer:  hsparse           1       0.281       0.281     0.00
timer:  overlap           1       7.115       7.115     0.01
timer:  IterSCF          40    3332.770  133310.790    99.34
timer:  kinefsm           2       3.669       7.339     0.01
timer:  nlefsm            2      17.455      34.910     0.03
timer:  DHSCF            41      76.393    3132.093     2.33
timer:  DHSCF1            1       0.744       0.744     0.00
timer:  DHSCF2            1      31.293      31.293     0.02
timer:  REORD           330       0.005       1.711     0.00
timer:  POISON           42       0.862      36.218     0.03
timer:  DHSCF3           41      74.902    3070.974     2.29
timer:  rhoofd           41      15.825     648.830     0.48
timer:  cellXC           41       3.258     133.572     0.10
timer:  vmat             41      34.846    1428.699     1.06
timer:  MolMec            2       0.000       0.000     0.00
timer:  diagon           40    3255.602  130224.068    97.04
timer:  c-eigval       9361       6.023   56379.534    42.01
timer:  c-buildHS      9361       0.046     434.210     0.32
timer:  cdiag         18601       6.168  114732.052    85.49
timer:  cdiag1        18601       0.384    7142.406     5.32
timer:  cdiag2        18601       1.767   32862.881    24.49
timer:  cdiag3        18601       3.733   69431.678    51.74
timer:  cdiag4        18601       0.152    2834.147     2.11
timer:  c-eigvec       9240       6.398   59120.929    44.05
timer:  c-buildD       9240       1.667   15407.291    11.48
timer:  DHSCF4            1      28.338      28.338     0.02
timer:  dfscf             1      26.469      26.469     0.02
timer:  overfsm           1       0.381       0.381     0.00
timer:  optical           1       4.627       4.627     0.00
  

elaps: ELAPSED times:
elaps:  Routine       Calls   Time/call    Tot.time        %
elaps:  siesta            1   16807.503   16807.503   100.00
elaps:  Setup             1       0.338       0.338     0.00
elaps:  bands             3      30.557      91.670     0.55
elaps:  writewave         1       0.002       0.002     0.00
elaps:  KSV_init          1       0.000       0.000     0.00
elaps:  IterMD            1   16714.883   16714.883    99.45
elaps:  hsparse           1       0.036       0.036     0.00
elaps:  overlap           1       0.893       0.893     0.01
elaps:  IterSCF          40     417.394   16695.749    99.34
elaps:  kinefsm           2       0.461       0.922     0.01
elaps:  nlefsm            2       2.174       4.349     0.03
elaps:  DHSCF            41       9.663     396.182     2.36
elaps:  DHSCF1            1       0.095       0.095     0.00
elaps:  DHSCF2            1       3.918       3.918     0.02
elaps:  REORD           330       0.001       0.218     0.00
elaps:  POISON           42       0.109       4.561     0.03
elaps:  DHSCF3           41       9.381     384.640     2.29
elaps:  rhoofd           41       4.459     182.806     1.09
elaps:  cellXC           41       0.408      16.716     0.10
elaps:  vmat             41       4.365     178.950     1.06
elaps:  MolMec            2       0.000       0.000     0.00
elaps:  diagon           40     407.731   16309.257    97.04
elaps:  c-eigval       9361       0.754    7060.857    42.01
elaps:  c-buildHS      9361       0.006      60.361     0.36
elaps:  cdiag         18601       0.771   14335.324    85.29
elaps:  cdiag1        18601       0.048     892.445     5.31
elaps:  cdiag2        18601       0.221    4116.690    24.49
elaps:  cdiag3        18601       0.468    8706.960    51.80
elaps:  cdiag4        18601       0.019     350.609     2.09
elaps:  c-eigvec       9240       0.799    7383.442    43.93
elaps:  c-buildD       9240       0.211    1949.597    11.60
elaps:  DHSCF4            1       7.436       7.436     0.04
elaps:  dfscf             1       7.030       7.030     0.04
elaps:  overfsm           1       0.048       0.048     0.00
elaps:  optical           1       0.000       0.000     0.00
  
>> End of run:   1-MAY-2016   9:18:24
