Siesta Version:                                        siesta-3.2-pl-3
Architecture  : x86_64-unknown-linux-gnu--unknown
Compiler flags: mpiifort -g -O2 -fPIC -xSSE4.1 -fp-model source -shared-intel 
PARALLEL version

* Running on    8 nodes in parallel
>> Start of run:   1-MAY-2016  20:05:38

                           ***********************       
                           *  WELCOME TO SIESTA  *       
                           ***********************       

reinit: Reading from standard input
************************** Dump of input data file ****************************
#(1) General system descriptors
SystemName            GRP_doping    # Descriptive name of the system
SystemLabel           GRP_doping    # Short name for naming files
%include STRUCT.fdf
%include KPT.fdf
%include BASIS.fdf
#%include TS.fdf # for transiesta calculation
#(4) DFT, Grid, SCF
XC.functional         GGA           # LDA or GGA (default = LDA)
XC.authors            PBE           # CA (Ceperley-Aldr) = PZ
                                    #    (Perdew-Zunger) - LDA - Default
                                    # PW92 (Perdew-Wang-92) - LDA
                                    # PBE (Perdew-Burke-Ernzerhof) - GGA
MeshCutoff            200.000000    Ry      # Default: 50.0 Ry ~ 0.444 Bohr
                                    #         100.0 Ry ~ 0.314 Bohr
MaxSCFIterations      500           # Default: 50
DM.MixingWeight       0.05          # Default: 0.25
DM.NumberPulay        10            # Default: 0
DM.PulayOnFile        F             # SystemLabel.P1, SystemLabel.P2
DM.Tolerance          1.d-4         # Default: 1.d-4
DM.UseSaveDM          .true.        # because of the bug
SCFMustConverge       .true.
NeglNonOverlapInt     F             # Default: F
#(5) Eigenvalue problem: order-N or diagonalization
SolutionMethod        Diagon        # or Transiesta
ElectronicTemperature 300.0 K       # Default: 300.0 K
#(6) Molecular dynamics and relaxations
#MD.TypeOfRun          CG            # Type of dynamics:
#MD.VariableCell       F
#MD.NumCGsteps         0           # 0 for single-point / 100 for gopt
#MD.MaxCGDispl         0.2 Bohr      # Default: 0.2 Bohr
#MD.MaxForceTol        0.02 eV/Ang   # Default: 0.04 eV/Ang
#MD.MaxStressTol       1.0 GPa       # Default: 1.0 GPa
# Geometry Constraints
#%block GeometryConstraints
#	position from 1 to 44
#%endblock GeometryConstraints
BandLinesScale   pi/a
%block BandLines
 1   0.00000000  0.00000000  0.00000000
50   0.00000000  0.07809418  0.00000000
50   0.04509075  0.07809242  0.00000000
20   0.00000000  0.00000000  0.00000000
%endblock BandLines
************************** End of input data file *****************************

reinit: -----------------------------------------------------------------------
reinit: System Name: GRP_doping
reinit: -----------------------------------------------------------------------
reinit: System Label: GRP_doping                                                  
reinit: -----------------------------------------------------------------------

initatom: Reading input for the pseudopotentials and atomic orbitals ----------
 Species number:            1  Label: N Atomic number:           7
 Species number:            2  Label: C Atomic number:           6
Ground state valence configuration:   2s02  2p03
Reading pseudopotential information in formatted form from N.psf

Valence configuration for pseudopotential generation:
2s( 2.00) rc: 1.48
2p( 3.00) rc: 1.48
3d( 0.00) rc: 1.48
4f( 0.00) rc: 1.48
Ground state valence configuration:   2s02  2p02
Reading pseudopotential information in formatted form from C.psf

Valence configuration for pseudopotential generation:
2s( 2.00) rc: 1.54
2p( 2.00) rc: 1.54
3d( 0.00) rc: 1.54
4f( 0.00) rc: 1.54
For N, standard SIESTA heuristics set lmxkb to 3
 (one more than the basis l, including polarization orbitals).
Use PS.lmax or PS.KBprojectors blocks to override.
For C, standard SIESTA heuristics set lmxkb to 3
 (one more than the basis l, including polarization orbitals).
Use PS.lmax or PS.KBprojectors blocks to override.

<basis_specs>
===============================================================================
N                    Z=   7    Mass=  14.010        Charge= 0.17977+309
Lmxo=1 Lmxkb= 3    BasisType=split      Semic=F
L=0  Nsemic=0  Cnfigmx=2
          n=1  nzeta=2  polorb=0
            splnorm:   0.15000    
               vcte:    0.0000    
               rinn:    0.0000    
                rcs:    0.0000      0.0000    
            lambdas:    1.0000      1.0000    
L=1  Nsemic=0  Cnfigmx=2
          n=1  nzeta=2  polorb=1
            splnorm:   0.15000    
               vcte:    0.0000    
               rinn:    0.0000    
                rcs:    0.0000      0.0000    
            lambdas:    1.0000      1.0000    
-------------------------------------------------------------------------------
L=0  Nkbl=1  erefs: 0.17977+309
L=1  Nkbl=1  erefs: 0.17977+309
L=2  Nkbl=1  erefs: 0.17977+309
L=3  Nkbl=1  erefs: 0.17977+309
===============================================================================
</basis_specs>

atom: Called for N                     (Z =   7)

read_vps: Pseudopotential generation method:
read_vps: ATM3      Troullier-Martins                       
Total valence charge:    5.00000

read_vps: Pseudopotential includes a core correction:
read_vps: Pseudo-core for xc-correction

xc_check: Exchange-correlation functional:
xc_check: GGA Perdew, Burke & Ernzerhof 1996
V l=0 = -2*Zval/r beyond r=  1.4606
V l=1 = -2*Zval/r beyond r=  1.4606
V l=2 = -2*Zval/r beyond r=  1.4606
V l=3 = -2*Zval/r beyond r=  1.4606
All V_l potentials equal beyond r=  1.4606
This should be close to max(r_c) in ps generation
All pots = -2*Zval/r beyond r=  1.4606

VLOCAL1: 99.0% of the norm of Vloc inside     20.347 Ry
VLOCAL1: 99.9% of the norm of Vloc inside     46.372 Ry
atom: Maximum radius for 4*pi*r*r*local-pseudopot. charge    1.76189
atom: Maximum radius for r*vlocal+2*Zval:    1.53550
GHOST: No ghost state for L =  0
GHOST: No ghost state for L =  1
GHOST: No ghost state for L =  2
GHOST: No ghost state for L =  3

KBgen: Kleinman-Bylander projectors: 
   l= 0   rc=  1.634559   el= -1.363963   Ekb=  5.296955   kbcos=  0.335621
   l= 1   rc=  1.614250   el= -0.521451   Ekb= -5.259161   kbcos= -0.433408
   l= 2   rc=  1.718383   el=  0.001991   Ekb= -1.271464   kbcos= -0.007566
   l= 3   rc=  1.761893   el=  0.003093   Ekb= -0.494769   kbcos= -0.001015

KBgen: Total number of  Kleinman-Bylander projectors:   16
atom: -------------------------------------------------------------------------

atom: SANKEY-TYPE ORBITALS:
atom: Selected multiple-zeta basis: split     

SPLIT: Orbitals with angular momentum L= 0

SPLIT: Basis orbitals for state 2s

SPLIT: PAO cut-off radius determined from an
SPLIT: energy shift=  0.007350 Ry

   izeta = 1
                 lambda =    1.000000
                     rc =    4.071465
                 energy =   -1.356470
                kinetic =    1.176977
    potential(screened) =   -2.533447
       potential(ionic) =   -8.057990

   izeta = 2
                 rmatch =    2.905100
              splitnorm =    0.150000
                 energy =   -1.158343
                kinetic =    1.813009
    potential(screened) =   -2.971352
       potential(ionic) =   -8.901931

SPLIT: Orbitals with angular momentum L= 1

SPLIT: Basis orbitals for state 2p

SPLIT: PAO cut-off radius determined from an
SPLIT: energy shift=  0.007350 Ry

   izeta = 1
                 lambda =    1.000000
                     rc =    4.972977
                 energy =   -0.513884
                kinetic =    3.441732
    potential(screened) =   -3.955616
       potential(ionic) =   -9.287901

   izeta = 2
                 rmatch =    3.054066
              splitnorm =    0.150000
                 energy =   -0.318226
                kinetic =    5.125348
    potential(screened) =   -5.443573
       potential(ionic) =  -11.380999

POLgen: Perturbative polarization orbital with L=  2

POLgen: Polarization orbital for state 2p

   izeta = 1
                     rc =    4.972977
                 energy =    1.607437
                kinetic =    3.268125
    potential(screened) =   -1.660688
       potential(ionic) =   -5.973652
atom: Total number of Sankey-type orbitals: 13

atm_pop: Valence configuration (for local Pseudopot. screening):
 2s( 2.00)                                                            
 2p( 3.00)                                                            
Vna: chval, zval:    5.00000   5.00000

Vna:  Cut-off radius for the neutral-atom potential:   4.972977
comcore: Pseudo-core radius Rcore=  1.554824

atom: _________________________________________________________________________

<basis_specs>
===============================================================================
C                    Z=   6    Mass=  12.010        Charge= 0.17977+309
Lmxo=1 Lmxkb= 3    BasisType=split      Semic=F
L=0  Nsemic=0  Cnfigmx=2
          n=1  nzeta=2  polorb=0
            splnorm:   0.15000    
               vcte:    0.0000    
               rinn:    0.0000    
                rcs:    0.0000      0.0000    
            lambdas:    1.0000      1.0000    
L=1  Nsemic=0  Cnfigmx=2
          n=1  nzeta=2  polorb=1
            splnorm:   0.15000    
               vcte:    0.0000    
               rinn:    0.0000    
                rcs:    0.0000      0.0000    
            lambdas:    1.0000      1.0000    
-------------------------------------------------------------------------------
L=0  Nkbl=1  erefs: 0.17977+309
L=1  Nkbl=1  erefs: 0.17977+309
L=2  Nkbl=1  erefs: 0.17977+309
L=3  Nkbl=1  erefs: 0.17977+309
===============================================================================
</basis_specs>

atom: Called for C                     (Z =   6)

read_vps: Pseudopotential generation method:
read_vps: ATM3      Troullier-Martins                       
Total valence charge:    4.00000

read_vps: Pseudopotential includes a core correction:
read_vps: Pseudo-core for xc-correction

xc_check: Exchange-correlation functional:
xc_check: GGA Perdew, Burke & Ernzerhof 1996
V l=0 = -2*Zval/r beyond r=  1.5227
V l=1 = -2*Zval/r beyond r=  1.5227
V l=2 = -2*Zval/r beyond r=  1.5227
V l=3 = -2*Zval/r beyond r=  1.5038
All V_l potentials equal beyond r=  1.5227
This should be close to max(r_c) in ps generation
All pots = -2*Zval/r beyond r=  1.5227

VLOCAL1: 99.0% of the norm of Vloc inside     18.722 Ry
VLOCAL1: 99.9% of the norm of Vloc inside     42.668 Ry
atom: Maximum radius for 4*pi*r*r*local-pseudopot. charge    1.83678
atom: Maximum radius for r*vlocal+2*Zval:    1.58088
GHOST: No ghost state for L =  0
GHOST: No ghost state for L =  1
GHOST: No ghost state for L =  2
GHOST: No ghost state for L =  3

KBgen: Kleinman-Bylander projectors: 
   l= 0   rc=  1.704034   el= -1.009801   Ekb=  5.335044   kbcos=  0.316824
   l= 1   rc=  1.704034   el= -0.388707   Ekb= -3.785862   kbcos= -0.366464
   l= 2   rc=  1.791422   el=  0.001971   Ekb= -0.970471   kbcos= -0.009212
   l= 3   rc=  1.859892   el=  0.003065   Ekb= -0.399525   kbcos= -0.001223

KBgen: Total number of  Kleinman-Bylander projectors:   16
atom: -------------------------------------------------------------------------

atom: SANKEY-TYPE ORBITALS:
atom: Selected multiple-zeta basis: split     

SPLIT: Orbitals with angular momentum L= 0

SPLIT: Basis orbitals for state 2s

SPLIT: PAO cut-off radius determined from an
SPLIT: energy shift=  0.007350 Ry

   izeta = 1
                 lambda =    1.000000
                     rc =    4.632753
                 energy =   -1.002270
                kinetic =    0.855760
    potential(screened) =   -1.858031
       potential(ionic) =   -5.417575

   izeta = 2
                 rmatch =    3.431921
              splitnorm =    0.150000
                 energy =   -0.867111
                kinetic =    1.300804
    potential(screened) =   -2.167915
       potential(ionic) =   -5.962684

SPLIT: Orbitals with angular momentum L= 1

SPLIT: Basis orbitals for state 2p

SPLIT: PAO cut-off radius determined from an
SPLIT: energy shift=  0.007350 Ry

   izeta = 1
                 lambda =    1.000000
                     rc =    5.658549
                 energy =   -0.381140
                kinetic =    2.399701
    potential(screened) =   -2.780841
       potential(ionic) =   -6.206085

   izeta = 2
                 rmatch =    3.653288
              splitnorm =    0.150000
                 energy =   -0.249149
                kinetic =    3.542762
    potential(screened) =   -3.791911
       potential(ionic) =   -7.581078

POLgen: Perturbative polarization orbital with L=  2

POLgen: Polarization orbital for state 2p

   izeta = 1
                     rc =    5.658549
                 energy =    1.109913
                kinetic =    2.304789
    potential(screened) =   -1.194876
       potential(ionic) =   -4.013592
atom: Total number of Sankey-type orbitals: 13

atm_pop: Valence configuration (for local Pseudopot. screening):
 2s( 2.00)                                                            
 2p( 2.00)                                                            
Vna: chval, zval:    4.00000   4.00000

Vna:  Cut-off radius for the neutral-atom potential:   5.658549
comcore: Pseudo-core radius Rcore=  1.791422

atom: _________________________________________________________________________

prinput: Basis input ----------------------------------------------------------

PAO.BasisType split     

%block ChemicalSpeciesLabel
    1    7 N                       # Species index, atomic number, species label
    2    6 C                       # Species index, atomic number, species label
%endblock ChemicalSpeciesLabel

%block PAO.Basis                 # Define Basis set
N                     2                    # Species label, number of l-shells
 n=2   0   2                         # n, l, Nzeta 
   4.071      2.905   
   1.000      1.000   
 n=2   1   2 P   1                   # n, l, Nzeta, Polarization, NzetaPol
   4.973      3.054   
   1.000      1.000   
C                     2                    # Species label, number of l-shells
 n=2   0   2                         # n, l, Nzeta 
   4.633      3.432   
   1.000      1.000   
 n=2   1   2 P   1                   # n, l, Nzeta, Polarization, NzetaPol
   5.659      3.653   
   1.000      1.000   
%endblock PAO.Basis

prinput: ----------------------------------------------------------------------

coor:   Atomic-coordinates input format  =     Fractional

siesta: Atomic coordinates (Bohr) and species
siesta:     -2.35420  38.89134   0.00000  1        1
siesta:     -2.35420  41.57980   0.00000  1        2
siesta:     -4.68258  34.85847   0.00000  1        3
siesta:     -4.68258  37.54693   0.00000  1        4
siesta:     -2.35420   9.31683   0.00000  1        5
siesta:     -4.68258  10.66124   0.00000  1        6
siesta:     -4.68258  13.34970   0.00000  1        7
siesta:     -7.01096  14.69411   0.00000  1        8
siesta:     -7.01096  17.38257   0.00000  1        9
siesta:     -9.33934  18.72698   0.00000  1       10
siesta:     -9.33934  21.41544   0.00000  1       11
siesta:    -11.66772  22.75985   0.00000  1       12
siesta:    -11.66772  25.44831   0.00000  1       13
siesta:     -9.33934  26.79272   0.00000  1       14
siesta:     -9.33934  29.48119   0.00000  1       15
siesta:     -7.01096  30.82560   0.00000  1       16
siesta:     -7.01096  33.51406   0.00000  1       17
siesta:     -0.02582  42.92421   0.00000  1       18
siesta:     -0.02582  45.61267   0.00000  1       19
siesta:     -0.02582   2.59549   0.00000  2       20
siesta:     -0.02582   5.28395   0.00000  2       21
siesta:      2.30256  38.89134   0.00000  2       22
siesta:      2.30256  41.57980   0.00000  2       23
siesta:      4.63094  34.85847   0.00000  2       24
siesta:      4.63094  37.54693   0.00000  2       25
siesta:      6.95932  30.82560   0.00000  2       26
siesta:      6.95932  33.51406   0.00000  2       27
siesta:      9.28770  26.79272   0.00000  2       28
siesta:      9.28770  29.48119   0.00000  2       29
siesta:      2.30256   6.62836   0.00000  2       30
siesta:      2.30256   9.31683   0.00000  2       31
siesta:      4.63094  10.66124   0.00000  2       32
siesta:      4.63094  13.34970   0.00000  2       33
siesta:      6.95932  14.69411   0.00000  2       34
siesta:      6.95932  17.38257   0.00000  2       35
siesta:      9.28770  18.72698   0.00000  2       36
siesta:      9.28770  21.41544   0.00000  2       37
siesta:     11.61608  22.75985   0.00000  2       38
siesta:     11.61608  25.44831   0.00000  2       39
siesta:     -2.35420   6.62836   0.00000  2       40
siesta:     -0.02582  10.66124   0.00000  2       41
siesta:     -0.02582  13.34970   0.00000  2       42
siesta:      2.30256  14.69411   0.00000  2       43
siesta:      2.30256  17.38257   0.00000  2       44
siesta:      4.63094  18.72698   0.00000  2       45
siesta:      4.63094  21.41544   0.00000  2       46
siesta:      6.95932  22.75985   0.00000  2       47
siesta:      6.95932  25.44831   0.00000  2       48
siesta:     -2.35420  14.69411   0.00000  2       49
siesta:     -2.35420  17.38257   0.00000  2       50
siesta:     -0.02582  18.72698   0.00000  2       51
siesta:     -0.02582  21.41544   0.00000  2       52
siesta:      2.30256  22.75985   0.00000  2       53
siesta:      2.30256  25.44831   0.00000  2       54
siesta:     -4.68258  18.72698   0.00000  2       55
siesta:     -4.68258  21.41544   0.00000  2       56
siesta:     -2.35420  22.75985   0.00000  2       57
siesta:     -2.35420  25.44831   0.00000  2       58
siesta:     -7.01096  22.75985   0.00000  2       59
siesta:     -7.01096  25.44831   0.00000  2       60
siesta:      4.63094  26.79272   0.00000  2       61
siesta:      4.63094  29.48119   0.00000  2       62
siesta:     -0.02582  26.79272   0.00000  2       63
siesta:     -0.02582  29.48119   0.00000  2       64
siesta:     -4.68258  26.79272   0.00000  2       65
siesta:     -4.68258  29.48119   0.00000  2       66
siesta:      2.30256  30.82560   0.00000  2       67
siesta:      2.30256  33.51406   0.00000  2       68
siesta:     -2.35420  30.82560   0.00000  2       69
siesta:     -2.35420  33.51406   0.00000  2       70
siesta:     -0.02582  34.85847   0.00000  2       71
siesta:     -0.02582  37.54693   0.00000  2       72

siesta: System type = slab      

initatomlists: Number of atoms, orbitals, and projectors:     72   936  1152

siesta: ******************** Simulation parameters ****************************
siesta:
siesta: The following are some of the parameters of the simulation.
siesta: A complete list of the parameters used, including default values,
siesta: can be found in file out.fdf
siesta:
redata: Non-Collinear-spin run           =     F
redata: SpinPolarized (Up/Down) run      =     F
redata: Number of spin components        =     1
redata: Long output                      =     F
redata: Number of Atomic Species         =        2
redata: Charge density info will appear in .RHO file
redata: Write Mulliken Pop.              =     NO
redata: Mesh Cutoff                      =   200.0000  Ry
redata: Net charge of the system         =     0.0000 |e|
redata: Max. number of SCF Iter          =      500
redata: SCF convergence failure will abort job
redata: Performing Pulay mixing using    =    10 iterations
redata: Mix DM in first SCF step ?       =     F
redata: Write Pulay info on disk?        =     F
redata: Discard 1st Pulay DM after  kick =     F
redata: New DM Mixing Weight             =     0.0500
redata: New DM Occupancy tolerance       = 0.000000000001
redata: No kicks to SCF
redata: DM Mixing Weight for Kicks       =     0.5000
redata: DM Tolerance for SCF             =     0.000100
redata: Require Energy convergence for SCF =     F
redata: DM Energy tolerance for SCF      =     0.000100 eV
redata: Require Harris convergence for SCF =     F
redata: DM Harris energy tolerance for SCF =     0.000100 eV
redata: Using Saved Data (generic)   =     F
redata: Use continuation files for DM    =     T
redata: Neglect nonoverlap interactions  =     F
redata: Method of Calculation            =     Diagonalization
redata: Divide and Conquer               =     T
redata: Electronic Temperature           =     0.0019  Ry
redata: Fix the spin of the system       =     F
redata: Dynamics option                  =     Verlet MD run
redata: Initial MD time step             =        1
redata:   Final MD time step             =        1
redata: Length of MD time step           =     1.0000  fs
redata: Initial Temperature of MD run    =     0.0000  K
redata: Perform a MD quench              =     F
redata: ***********************************************************************
Total number of electrons:   307.000000
Total ionic charge:   307.000000

* ProcessorY, Blocksize:    2  24

k-point displ. along   1 input, could be:     0.50    0.00
k-point displ. along   2 input, could be:     0.50    0.00
 Kpoints in:          231 . Kpoints trimmed:          231

siesta: k-grid: Number of k-points =   231
siesta: k-grid: Cutoff (effective) =     5.000 Ang
siesta: k-grid: Supercell and displacements
siesta: k-grid:   21   0   0      0.500
siesta: k-grid:    0  21   0      0.500
siesta: k-grid:    0   0   1      0.000
Naive supercell factors:     2    2    2

superc: Internal auxiliary supercell:     2 x     2 x     2  =       8
superc: Number of atoms, orbitals, and projectors:    576   7488   9216

* Maximum dynamic memory allocated =     4 MB

siesta:                 ==============================
                            Begin MD step =      1
                        ==============================

superc: Internal auxiliary supercell:     2 x     2 x     2  =       8
superc: Number of atoms, orbitals, and projectors:    576   7488   9216

outcell: Unit cell vectors (Ang):
       12.804619    7.392750    0.000000
        0.000000   14.785500    0.000000
        0.000000    0.000000   10.000000

outcell: Cell vector modules (Ang)   :   14.785500   14.785500   10.000000
outcell: Cell angles (23,13,12) (deg):     90.0000     90.0000     60.0000
outcell: Cell volume (Ang**3)        :   1893.2269
New_DM. Step:     1
Initializing Density Matrix...

InitMesh: MESH =   120 x   120 x    90 =     1296000
InitMesh: Mesh cutoff (required, used) =   200.000   223.865 Ry

* Maximum dynamic memory allocated =   184 MB

stepf: Fermi-Dirac step function

siesta: Program's energy decomposition (eV):
siesta: Ebs     =     -6257.975638
siesta: Eions   =     21457.201110
siesta: Ena     =      4917.085196
siesta: Ekin    =      7972.707975
siesta: Enl     =        70.342128
siesta: DEna    =        -0.000015
siesta: DUscf   =         0.000000
siesta: DUext   =         0.000000
siesta: Exc     =     -4652.293724
siesta: eta*DQ  =         0.000000
siesta: Emadel  =         0.000000
siesta: Emeta   =         0.000000
siesta: Emolmec =         0.000000
siesta: Ekinion =         0.000000
siesta: Eharris =    -12762.841059
siesta: Etot    =    -13149.359550
siesta: FreeEng =    -13149.359550

siesta: iscf   Eharris(eV)      E_KS(eV)   FreeEng(eV)   dDmax  Ef(eV)
siesta:    1   -12762.8411   -13149.3595   -13149.3595  5.7908 -7.0723
timer: Routine,Calls,Time,% = IterSCF        1    4124.981  99.70
elaps: Routine,Calls,Wall,% = IterSCF        1     516.280  99.70
siesta:    2   -15962.0503   -12208.8150   -12208.8682 10.5194 -2.6958
siesta:    3   -12719.6078   -12891.8341   -12891.8656  1.8920 -4.1248
siesta:    4   -12661.7726   -12813.4187   -12813.4763  1.2321 -3.9578
siesta:    5   -12639.6571   -12756.0660   -12756.1043  0.8834 -3.8214
siesta:    6   -12630.3478   -12727.6753   -12727.7221  0.8516 -3.7366
siesta:    7   -12616.0334   -12697.4643   -12697.5017  0.6929 -3.6582
siesta:    8   -12612.7252   -12678.9341   -12678.9694  0.5413 -3.8568
siesta:    9   -12612.2389   -12661.2058   -12661.2359  0.4551 -3.7897
siesta:   10   -12611.7621   -12653.2532   -12653.3107  0.4106 -3.8226
siesta:   11   -12612.2743   -12622.6598   -12622.6982  0.3962 -3.6984
siesta:   12   -12611.9417   -12608.1119   -12608.1623  0.3561 -3.6764
siesta:   13   -12611.6009   -12606.6856   -12606.7373  0.3127 -3.7710
siesta:   14   -12611.3632   -12608.0454   -12608.0897  0.2715 -3.7131
siesta:   15   -12611.1026   -12608.2648   -12608.3157  0.3128 -3.7253
siesta:   16   -12611.0027   -12609.9869   -12610.0406  0.5576 -3.7245
siesta:   17   -12610.7512   -12609.7848   -12609.8335  0.0774 -3.8515
siesta:   18   -12610.7302   -12611.2492   -12611.2970  0.0618 -3.8525
siesta:   19   -12610.6798   -12613.5232   -12613.5718  0.0590 -3.8647
siesta:   20   -12610.6790   -12613.8659   -12613.9145  0.0761 -3.8554
siesta:   21   -12610.6756   -12613.6518   -12613.7007  0.1108 -3.8627
siesta:   22   -12610.6728   -12613.3059   -12613.3568  0.1002 -3.8664
siesta:   23   -12610.6605   -12612.9252   -12612.9708  0.0471 -3.8483
siesta:   24   -12610.6510   -12612.5211   -12612.5692  0.0218 -3.8424
siesta:   25   -12610.6495   -12612.0744   -12612.1232  0.0135 -3.8431
siesta:   26   -12610.6485   -12611.6348   -12611.6829  0.0133 -3.8400
siesta:   27   -12610.6482   -12611.2426   -12611.2911  0.0095 -3.8410
siesta:   28   -12610.6480   -12610.9142   -12610.9628  0.0046 -3.8414
siesta:   29   -12610.6478   -12610.8288   -12610.8773  0.0052 -3.8403
siesta:   30   -12610.6478   -12610.7513   -12610.8000  0.0031 -3.8403
siesta:   31   -12610.6477   -12610.7251   -12610.7737  0.0024 -3.8402
siesta:   32   -12610.6478   -12610.6611   -12610.7097  0.0007 -3.8410
siesta:   33   -12610.6477   -12610.6526   -12610.7012  0.0008 -3.8412
siesta:   34   -12610.6477   -12610.6535   -12610.7022  0.0006 -3.8413
siesta:   35   -12610.6477   -12610.6491   -12610.6977  0.0003 -3.8414
siesta:   36   -12610.6477   -12610.6454   -12610.6940  0.0003 -3.8414
siesta:   37   -12610.6477   -12610.6409   -12610.6895  0.0002 -3.8413
siesta:   38   -12610.6477   -12610.6461   -12610.6947  0.0001 -3.8413
siesta:   39   -12610.6477   -12610.6474   -12610.6960  0.0001 -3.8413
siesta:   40   -12610.6477   -12610.6475   -12610.6962  0.0001 -3.8413

siesta: E_KS(eV) =           -12610.6470

siesta: E_KS - E_eggbox =    -12610.6470

siesta: Atomic forces (eV/Ang):
----------------------------------------
   Tot    0.008082   -0.041153    0.000000
----------------------------------------
   Max  757.070923
   Res  176.766856    sqrt( Sum f_i^2 / 3N )
----------------------------------------
   Max  757.070923    constrained

Stress-tensor-Voigt (kbar):     -644.23    -3154.19       -0.05        4.31        0.00        0.00
(Free)E + p*V (eV/cell)   -11114.5448
Target enthalpy (eV/cell)   -12610.6956

siesta: Stress tensor (static) (eV/Ang**3):
        -0.402091    0.002693    0.000000
         0.002693   -1.968672    0.000000
         0.000000    0.000000   -0.000033

siesta: Pressure (static):       1266.15774711  kBar

siesta: Stress tensor (total) (eV/Ang**3):
        -0.402091    0.002693    0.000000
         0.002693   -1.968672    0.000000
         0.000000    0.000000   -0.000033

siesta: Pressure (total):       1266.15774711  kBar

siesta: Temp_ion =       0.000 K

* Maximum dynamic memory allocated =   201 MB
Computing bands...

siesta: Program's energy decomposition (eV):
siesta: Ebs     =     -5030.838458
siesta: Eions   =     21457.201110
siesta: Ena     =      4917.085196
siesta: Ekin    =     11063.847401
siesta: Enl     =     -1631.333190
siesta: DEna    =      -784.795024
siesta: DUscf   =       106.397461
siesta: DUext   =         0.000000
siesta: Exc     =     -4824.647761
siesta: eta*DQ  =         0.000000
siesta: Emadel  =         0.000000
siesta: Emeta   =         0.000000
siesta: Emolmec =         0.000000
siesta: Ekinion =         0.000000
siesta: Eharris =    -12610.647720
siesta: Etot    =    -12610.647026
siesta: FreeEng =    -12610.695633

siesta: Final energy (eV):
siesta:  Band Struct. =   -5030.838458
siesta:       Kinetic =   11063.847401
siesta:       Hartree =   35541.581742
siesta:    Ext. field =       0.000000
siesta:   Exch.-corr. =   -4824.647761
siesta:  Ion-electron =  -81689.842224
siesta:       Ion-ion =   27298.413815
siesta:       Ekinion =       0.000000
siesta:         Total =  -12610.647026

siesta: Atomic forces (eV/Ang):
siesta:      1    9.142841  112.475807    0.000000
siesta:      2  -30.089719 -654.906688    0.000000
siesta:      3  -22.061545   -4.683851    0.000000
siesta:      4  -29.169360 -752.205718    0.000000
siesta:      5    9.346870 -119.283967    0.000000
siesta:      6  -26.491217  757.070923    0.000000
siesta:      7  -27.108870   -0.030723    0.000000
siesta:      8   -0.721058    3.157215    0.000000
siesta:      9    2.135930    1.513313    0.000000
siesta:     10   -1.220201   -0.657621    0.000000
siesta:     11    2.173392    0.322758    0.000000
siesta:     12    1.065960    1.581489    0.000000
siesta:     13    1.170640   -1.569123    0.000000
siesta:     14    1.972393   -0.072271    0.000000
siesta:     15   -1.306964    0.462214    0.000000
siesta:     16    2.451032   -1.102385    0.000000
siesta:     17   -0.221871   -2.635101    0.000000
siesta:     18   -1.867125  109.011188    0.000000
siesta:     19   -2.974729 -645.278834    0.000000
siesta:     20    1.358801  548.104549    0.000000
siesta:     21   -5.438823 -129.644572    0.000000
siesta:     22    1.837755  127.812764    0.000000
siesta:     23   17.200370 -554.283255    0.000000
siesta:     24   26.464362    4.108467    0.000000
siesta:     25   32.932461 -550.212884    0.000000
siesta:     26    1.911187   -0.271682    0.000000
siesta:     27   -3.115148    2.733931    0.000000
siesta:     28    1.822254    2.700464    0.000000
siesta:     29   -1.699621   -0.125436    0.000000
siesta:     30   18.007605  545.409482    0.000000
siesta:     31   -0.592259 -128.589316    0.000000
siesta:     32   32.357923  549.387369    0.000000
siesta:     33   25.733216   -5.261371    0.000000
siesta:     34   -2.907861   -2.293378    0.000000
siesta:     35    1.532907   -0.238146    0.000000
siesta:     36   -1.600036    0.232070    0.000000
siesta:     37    1.803695   -2.694415    0.000000
siesta:     38   -0.079661    7.673012    0.000000
siesta:     39    0.022568   -7.645817    0.000000
siesta:     40  -25.648596  547.147166    0.000000
siesta:     41  -19.101985  556.476586    0.000000
siesta:     42    4.956584 -124.016641    0.000000
siesta:     43    5.407821  559.154966    0.000000
siesta:     44   24.713262   -4.265485    0.000000
siesta:     45   -1.474287    3.485600    0.000000
siesta:     46    0.415980   -0.187171    0.000000
siesta:     47   -0.055969    0.929427    0.000000
siesta:     48   -0.017737   -0.761958    0.000000
siesta:     49    4.343027  685.307125    0.000000
siesta:     50  -24.043522   -7.023796    0.000000
siesta:     51    2.852314  685.016980    0.000000
siesta:     52   -0.250255    0.668311    0.000000
siesta:     53    0.308032   -0.201043    0.000000
siesta:     54   -0.243052    0.050786    0.000000
siesta:     55   -0.512255    1.311069    0.000000
siesta:     56   -1.544913    0.555263    0.000000
siesta:     57   -0.260575   -0.253018    0.000000
siesta:     58    0.232403    0.181604    0.000000
siesta:     59   -0.804193   -0.494435    0.000000
siesta:     60   -0.549802    0.469601    0.000000
siesta:     61    0.396052    0.386480    0.000000
siesta:     62   -1.385397   -2.328141    0.000000
siesta:     63   -0.175419   -0.995124    0.000000
siesta:     64   -1.960993 -562.371464    0.000000
siesta:     65   -1.765500   -0.518225    0.000000
siesta:     66   -0.053140   -0.904792    0.000000
siesta:     67   22.404436    7.115404    0.000000
siesta:     68   25.085143 -555.904376    0.000000
siesta:     69  -23.759732    6.002721    0.000000
siesta:     70   -8.634016 -573.661348    0.000000
siesta:     71   -3.844586  124.763188    0.000000
siesta:     72   -8.799143 -555.246876    0.000000
siesta: ----------------------------------------
siesta:    Tot    0.008082   -0.041153    0.000000

siesta: Stress tensor (static) (eV/Ang**3):
siesta:    -0.402091    0.002693    0.000000
siesta:     0.002693   -1.968672    0.000000
siesta:     0.000000    0.000000   -0.000033

siesta: Cell volume =       1893.226884 Ang**3

siesta: Pressure (static):
siesta:                Solid            Molecule  Units
siesta:           0.00860699          0.13950029  Ry/Bohr**3
siesta:           0.79026496         12.80844190  eV/Ang**3
siesta:        1266.15774711      20521.60815383  kBar
(Free)E+ p_basis*V_orbitals  =      -12582.674323
(Free)Eharris+ p_basis*V_orbitals  =      -12582.674503

siesta: Electric dipole (a.u.)  =    0.000000    0.000000    0.000000
siesta: Electric dipole (Debye) =    0.000000    0.000000    0.000000

* Maximum dynamic memory allocated : Node    0 =   201 MB
* Maximum dynamic memory allocated : Node    1 =    72 MB
* Maximum dynamic memory allocated : Node    2 =    74 MB
* Maximum dynamic memory allocated : Node    3 =   191 MB
* Maximum dynamic memory allocated : Node    4 =   188 MB
* Maximum dynamic memory allocated : Node    5 =    70 MB
* Maximum dynamic memory allocated : Node    6 =    72 MB
* Maximum dynamic memory allocated : Node    7 =   173 MB

* Maximum memory occured during matrixMtoO                    

timer: CPU execution times:
timer:  Routine       Calls   Time/call    Tot.time        %
timer:  siesta            1  163247.838  163247.838   100.00
timer:  Setup             1       3.969       3.969     0.00
timer:  bands             3     268.949     806.848     0.49
timer:  writewave         1       0.042       0.042     0.00
timer:  KSV_init          1       0.006       0.006     0.00
timer:  IterMD            1  162431.340  162431.340    99.50
timer:  hsparse           1       0.234       0.234     0.00
timer:  overlap           1       7.702       7.702     0.00
timer:  IterSCF          40    4056.614  162264.540    99.40
timer:  kinefsm           2       3.957       7.914     0.00
timer:  nlefsm            2      18.471      36.943     0.02
timer:  DHSCF            41      87.150    3573.165     2.19
timer:  DHSCF1            1       0.771       0.771     0.00
timer:  DHSCF2            1      32.878      32.878     0.02
timer:  REORD           330       0.010       3.350     0.00
timer:  POISON           42       2.239      94.037     0.06
timer:  DHSCF3           41      85.538    3507.073     2.15
timer:  rhoofd           41      17.090     700.704     0.43
timer:  cellXC           41       3.420     140.214     0.09
timer:  vmat             41      40.849    1674.801     1.03
timer:  MolMec            2       0.000       0.001     0.00
timer:  diagon           40    3967.821  158712.835    97.22
timer:  c-eigval       9361       6.677   62507.000    38.29
timer:  c-buildHS      9361       0.111    1041.488     0.64
timer:  cdiag         18601       6.878  127939.143    78.37
timer:  cdiag1        18601       0.428    7964.629     4.88
timer:  cdiag2        18601       1.910   35528.347    21.76
timer:  cdiag3        18601       3.948   73427.607    44.98
timer:  cdiag4        18601       0.204    3794.487     2.32
timer:  c-eigvec       9240       7.247   66966.415    41.02
timer:  c-buildD       9240       3.246   29996.404    18.37
timer:  DHSCF4            1      30.256      30.256     0.02
timer:  dfscf             1      28.436      28.436     0.02
timer:  overfsm           1       0.404       0.404     0.00
timer:  optical           1       4.982       4.982     0.00
  

elaps: ELAPSED times:
elaps:  Routine       Calls   Time/call    Tot.time        %
elaps:  siesta            1   20427.899   20427.899   100.00
elaps:  Setup             1       0.511       0.511     0.00
elaps:  bands             3      33.671     101.013     0.49
elaps:  writewave         1       0.005       0.005     0.00
elaps:  KSV_init          1       0.001       0.001     0.00
elaps:  IterMD            1   20325.717   20325.717    99.50
elaps:  hsparse           1       0.029       0.029     0.00
elaps:  overlap           1       0.966       0.966     0.00
elaps:  IterSCF          40     507.624   20304.967    99.40
elaps:  kinefsm           2       0.497       0.994     0.00
elaps:  nlefsm            2       2.314       4.628     0.02
elaps:  DHSCF            41      10.999     450.963     2.21
elaps:  DHSCF1            1       0.104       0.104     0.00
elaps:  DHSCF2            1       4.104       4.104     0.02
elaps:  REORD           330       0.001       0.426     0.00
elaps:  POISON           42       0.281      11.797     0.06
elaps:  DHSCF3           41      10.701     438.743     2.15
elaps:  rhoofd           41       4.671     191.530     0.94
elaps:  cellXC           41       0.427      17.521     0.09
elaps:  vmat             41       5.110     209.498     1.03
elaps:  MolMec            2       0.000       0.000     0.00
elaps:  diagon           40     496.502   19860.097    97.22
elaps:  c-eigval       9361       0.835    7820.881    38.29
elaps:  c-buildHS      9361       0.015     143.926     0.70
elaps:  cdiag         18601       0.862   16031.476    78.48
elaps:  cdiag1        18601       0.054     999.616     4.89
elaps:  cdiag2        18601       0.239    4445.433    21.76
elaps:  cdiag3        18601       0.495    9199.592    45.03
elaps:  cdiag4        18601       0.026     483.009     2.36
elaps:  c-eigvec       9240       0.913    8435.815    41.30
elaps:  c-buildD       9240       0.400    3697.296    18.10
elaps:  DHSCF4            1       7.720       7.720     0.04
elaps:  dfscf             1       7.324       7.324     0.04
elaps:  overfsm           1       0.051       0.051     0.00
elaps:  optical           1       0.001       0.001     0.00
  
>> End of run:   2-MAY-2016   1:46:06
