Siesta Version:                                        siesta-3.2-pl-3
Architecture  : x86_64-unknown-linux-gnu--unknown
Compiler flags: mpiifort -g -O2 -fPIC -xSSE4.1 -fp-model source -shared-intel 
PARALLEL version

* Running on    8 nodes in parallel
>> Start of run:  23-APR-2016   2:26:02

                           ***********************       
                           *  WELCOME TO SIESTA  *       
                           ***********************       

reinit: Reading from standard input
************************** Dump of input data file ****************************
#(1) General system descriptors
SystemName            GRP_doping    # Descriptive name of the system
SystemLabel           GRP_doping    # Short name for naming files
%include STRUCT.fdf
%include KPT.fdf
%include BASIS.fdf
#%include TS.fdf # for transiesta calculation
#(4) DFT, Grid, SCF
XC.functional         GGA           # LDA or GGA (default = LDA)
XC.authors            PBE           # CA (Ceperley-Aldr) = PZ
                                    #    (Perdew-Zunger) - LDA - Default
                                    # PW92 (Perdew-Wang-92) - LDA
                                    # PBE (Perdew-Burke-Ernzerhof) - GGA
MeshCutoff            200.000000    Ry      # Default: 50.0 Ry ~ 0.444 Bohr
                                    #         100.0 Ry ~ 0.314 Bohr
MaxSCFIterations      500           # Default: 50
DM.MixingWeight       0.05          # Default: 0.25
DM.NumberPulay        10            # Default: 0
DM.PulayOnFile        F             # SystemLabel.P1, SystemLabel.P2
DM.Tolerance          1.d-4         # Default: 1.d-4
DM.UseSaveDM          .true.        # because of the bug
SCFMustConverge       .true.
NeglNonOverlapInt     F             # Default: F
#(5) Eigenvalue problem: order-N or diagonalization
SolutionMethod        Diagon        # or Transiesta
ElectronicTemperature 300.0 K       # Default: 300.0 K
#(6) Molecular dynamics and relaxations
#MD.TypeOfRun          CG            # Type of dynamics:
#MD.VariableCell       F
#MD.NumCGsteps         0           # 0 for single-point / 100 for gopt
#MD.MaxCGDispl         0.2 Bohr      # Default: 0.2 Bohr
#MD.MaxForceTol        0.02 eV/Ang   # Default: 0.04 eV/Ang
#MD.MaxStressTol       1.0 GPa       # Default: 1.0 GPa
# Geometry Constraints
#%block GeometryConstraints
#	position from 1 to 44
#%endblock GeometryConstraints
BandLinesScale   pi/a
%block BandLines
 1   0.00000000  0.00000000  0.00000000
50   0.00000000  0.07809418  0.00000000
50   0.04509075  0.07809242  0.00000000
20   0.00000000  0.00000000  0.00000000
%endblock BandLines
************************** End of input data file *****************************

reinit: -----------------------------------------------------------------------
reinit: System Name: GRP_doping
reinit: -----------------------------------------------------------------------
reinit: System Label: GRP_doping                                                  
reinit: -----------------------------------------------------------------------

initatom: Reading input for the pseudopotentials and atomic orbitals ----------
 Species number:            1  Label: B Atomic number:           5
 Species number:            2  Label: C Atomic number:           6
Ground state valence configuration:   2s02  2p01
Reading pseudopotential information in formatted form from B.psf

Valence configuration for pseudopotential generation:
2s( 2.00) rc: 1.74
2p( 1.00) rc: 1.74
3d( 0.00) rc: 1.74
4f( 0.00) rc: 1.74
Ground state valence configuration:   2s02  2p02
Reading pseudopotential information in formatted form from C.psf

Valence configuration for pseudopotential generation:
2s( 2.00) rc: 1.54
2p( 2.00) rc: 1.54
3d( 0.00) rc: 1.54
4f( 0.00) rc: 1.54
For B, standard SIESTA heuristics set lmxkb to 3
 (one more than the basis l, including polarization orbitals).
Use PS.lmax or PS.KBprojectors blocks to override.
For C, standard SIESTA heuristics set lmxkb to 3
 (one more than the basis l, including polarization orbitals).
Use PS.lmax or PS.KBprojectors blocks to override.

<basis_specs>
===============================================================================
B                    Z=   5    Mass=  10.810        Charge= 0.17977+309
Lmxo=1 Lmxkb= 3    BasisType=split      Semic=F
L=0  Nsemic=0  Cnfigmx=2
          n=1  nzeta=2  polorb=0
            splnorm:   0.15000    
               vcte:    0.0000    
               rinn:    0.0000    
                rcs:    0.0000      0.0000    
            lambdas:    1.0000      1.0000    
L=1  Nsemic=0  Cnfigmx=2
          n=1  nzeta=2  polorb=1
            splnorm:   0.15000    
               vcte:    0.0000    
               rinn:    0.0000    
                rcs:    0.0000      0.0000    
            lambdas:    1.0000      1.0000    
-------------------------------------------------------------------------------
L=0  Nkbl=1  erefs: 0.17977+309
L=1  Nkbl=1  erefs: 0.17977+309
L=2  Nkbl=1  erefs: 0.17977+309
L=3  Nkbl=1  erefs: 0.17977+309
===============================================================================
</basis_specs>

atom: Called for B                     (Z =   5)

read_vps: Pseudopotential generation method:
read_vps: ATM3      Troullier-Martins                       
Total valence charge:    3.00000

read_vps: Pseudopotential includes a core correction:
read_vps: Pseudo-core for xc-correction

xc_check: Exchange-correlation functional:
xc_check: GGA Perdew, Burke & Ernzerhof 1996
V l=0 = -2*Zval/r beyond r=  1.7165
V l=1 = -2*Zval/r beyond r=  1.7165
V l=2 = -2*Zval/r beyond r=  1.7165
V l=3 = -2*Zval/r beyond r=  1.6951
All V_l potentials equal beyond r=  1.7165
This should be close to max(r_c) in ps generation
All pots = -2*Zval/r beyond r=  1.7165

VLOCAL1: 99.0% of the norm of Vloc inside     14.733 Ry
VLOCAL1: 99.9% of the norm of Vloc inside     33.577 Ry
atom: Maximum radius for 4*pi*r*r*local-pseudopot. charge    2.04484
atom: Maximum radius for r*vlocal+2*Zval:    1.75994
GHOST: No ghost state for L =  0
GHOST: No ghost state for L =  1
GHOST: No ghost state for L =  2
GHOST: No ghost state for L =  3

KBgen: Kleinman-Bylander projectors: 
   l= 0   rc=  1.897051   el= -0.693730   Ekb=  4.595746   kbcos=  0.286105
   l= 1   rc=  1.920920   el= -0.265236   Ekb= -2.350715   kbcos= -0.315747
   l= 2   rc=  2.044840   el=  0.002055   Ekb= -0.690767   kbcos= -0.013822
   l= 3   rc=  2.149707   el=  0.003188   Ekb= -0.315358   kbcos= -0.002055

KBgen: Total number of  Kleinman-Bylander projectors:   16
atom: -------------------------------------------------------------------------

atom: SANKEY-TYPE ORBITALS:
atom: Selected multiple-zeta basis: split     

SPLIT: Orbitals with angular momentum L= 0

SPLIT: Basis orbitals for state 2s

SPLIT: PAO cut-off radius determined from an
SPLIT: energy shift=  0.007350 Ry

   izeta = 1
                 lambda =    1.000000
                     rc =    5.422032
                 energy =   -0.686029
                kinetic =    0.576707
    potential(screened) =   -1.262736
       potential(ionic) =   -3.271094

   izeta = 2
                 rmatch =    4.222573
              splitnorm =    0.150000
                 energy =   -0.602132
                kinetic =    0.858975
    potential(screened) =   -1.461107
       potential(ionic) =   -3.582536

SPLIT: Orbitals with angular momentum L= 1

SPLIT: Basis orbitals for state 2p

SPLIT: PAO cut-off radius determined from an
SPLIT: energy shift=  0.007350 Ry

   izeta = 1
                 lambda =    1.000000
                     rc =    6.790259
                 energy =   -0.258578
                kinetic =    1.481412
    potential(screened) =   -1.739989
       potential(ionic) =   -3.657461

   izeta = 2
                 rmatch =    4.608740
              splitnorm =    0.150000
                 energy =   -0.173757
                kinetic =    2.186690
    potential(screened) =   -2.360447
       potential(ionic) =   -4.464260

POLgen: Perturbative polarization orbital with L=  2

POLgen: Polarization orbital for state 2p

   izeta = 1
                     rc =    6.790259
                 energy =    0.684082
                kinetic =    1.471481
    potential(screened) =   -0.787399
       potential(ionic) =   -2.406985
atom: Total number of Sankey-type orbitals: 13

atm_pop: Valence configuration (for local Pseudopot. screening):
 2s( 2.00)                                                            
 2p( 1.00)                                                            
Vna: chval, zval:    3.00000   3.00000

Vna:  Cut-off radius for the neutral-atom potential:   6.790259
comcore: Pseudo-core radius Rcore=  2.122997

atom: _________________________________________________________________________

<basis_specs>
===============================================================================
C                    Z=   6    Mass=  12.010        Charge= 0.17977+309
Lmxo=1 Lmxkb= 3    BasisType=split      Semic=F
L=0  Nsemic=0  Cnfigmx=2
          n=1  nzeta=2  polorb=0
            splnorm:   0.15000    
               vcte:    0.0000    
               rinn:    0.0000    
                rcs:    0.0000      0.0000    
            lambdas:    1.0000      1.0000    
L=1  Nsemic=0  Cnfigmx=2
          n=1  nzeta=2  polorb=1
            splnorm:   0.15000    
               vcte:    0.0000    
               rinn:    0.0000    
                rcs:    0.0000      0.0000    
            lambdas:    1.0000      1.0000    
-------------------------------------------------------------------------------
L=0  Nkbl=1  erefs: 0.17977+309
L=1  Nkbl=1  erefs: 0.17977+309
L=2  Nkbl=1  erefs: 0.17977+309
L=3  Nkbl=1  erefs: 0.17977+309
===============================================================================
</basis_specs>

atom: Called for C                     (Z =   6)

read_vps: Pseudopotential generation method:
read_vps: ATM3      Troullier-Martins                       
Total valence charge:    4.00000

read_vps: Pseudopotential includes a core correction:
read_vps: Pseudo-core for xc-correction

xc_check: Exchange-correlation functional:
xc_check: GGA Perdew, Burke & Ernzerhof 1996
V l=0 = -2*Zval/r beyond r=  1.5227
V l=1 = -2*Zval/r beyond r=  1.5227
V l=2 = -2*Zval/r beyond r=  1.5227
V l=3 = -2*Zval/r beyond r=  1.5038
All V_l potentials equal beyond r=  1.5227
This should be close to max(r_c) in ps generation
All pots = -2*Zval/r beyond r=  1.5227

VLOCAL1: 99.0% of the norm of Vloc inside     18.722 Ry
VLOCAL1: 99.9% of the norm of Vloc inside     42.668 Ry
atom: Maximum radius for 4*pi*r*r*local-pseudopot. charge    1.83678
atom: Maximum radius for r*vlocal+2*Zval:    1.58088
GHOST: No ghost state for L =  0
GHOST: No ghost state for L =  1
GHOST: No ghost state for L =  2
GHOST: No ghost state for L =  3

KBgen: Kleinman-Bylander projectors: 
   l= 0   rc=  1.704034   el= -1.009801   Ekb=  5.335044   kbcos=  0.316824
   l= 1   rc=  1.704034   el= -0.388707   Ekb= -3.785862   kbcos= -0.366464
   l= 2   rc=  1.791422   el=  0.001971   Ekb= -0.970471   kbcos= -0.009212
   l= 3   rc=  1.859892   el=  0.003065   Ekb= -0.399525   kbcos= -0.001223

KBgen: Total number of  Kleinman-Bylander projectors:   16
atom: -------------------------------------------------------------------------

atom: SANKEY-TYPE ORBITALS:
atom: Selected multiple-zeta basis: split     

SPLIT: Orbitals with angular momentum L= 0

SPLIT: Basis orbitals for state 2s

SPLIT: PAO cut-off radius determined from an
SPLIT: energy shift=  0.007350 Ry

   izeta = 1
                 lambda =    1.000000
                     rc =    4.632753
                 energy =   -1.002270
                kinetic =    0.855760
    potential(screened) =   -1.858031
       potential(ionic) =   -5.417575

   izeta = 2
                 rmatch =    3.431921
              splitnorm =    0.150000
                 energy =   -0.867111
                kinetic =    1.300804
    potential(screened) =   -2.167915
       potential(ionic) =   -5.962684

SPLIT: Orbitals with angular momentum L= 1

SPLIT: Basis orbitals for state 2p

SPLIT: PAO cut-off radius determined from an
SPLIT: energy shift=  0.007350 Ry

   izeta = 1
                 lambda =    1.000000
                     rc =    5.658549
                 energy =   -0.381140
                kinetic =    2.399701
    potential(screened) =   -2.780841
       potential(ionic) =   -6.206085

   izeta = 2
                 rmatch =    3.653288
              splitnorm =    0.150000
                 energy =   -0.249149
                kinetic =    3.542762
    potential(screened) =   -3.791911
       potential(ionic) =   -7.581078

POLgen: Perturbative polarization orbital with L=  2

POLgen: Polarization orbital for state 2p

   izeta = 1
                     rc =    5.658549
                 energy =    1.109913
                kinetic =    2.304789
    potential(screened) =   -1.194876
       potential(ionic) =   -4.013592
atom: Total number of Sankey-type orbitals: 13

atm_pop: Valence configuration (for local Pseudopot. screening):
 2s( 2.00)                                                            
 2p( 2.00)                                                            
Vna: chval, zval:    4.00000   4.00000

Vna:  Cut-off radius for the neutral-atom potential:   5.658549
comcore: Pseudo-core radius Rcore=  1.791422

atom: _________________________________________________________________________

prinput: Basis input ----------------------------------------------------------

PAO.BasisType split     

%block ChemicalSpeciesLabel
    1    5 B                       # Species index, atomic number, species label
    2    6 C                       # Species index, atomic number, species label
%endblock ChemicalSpeciesLabel

%block PAO.Basis                 # Define Basis set
B                     2                    # Species label, number of l-shells
 n=2   0   2                         # n, l, Nzeta 
   5.422      4.223   
   1.000      1.000   
 n=2   1   2 P   1                   # n, l, Nzeta, Polarization, NzetaPol
   6.790      4.609   
   1.000      1.000   
C                     2                    # Species label, number of l-shells
 n=2   0   2                         # n, l, Nzeta 
   4.633      3.432   
   1.000      1.000   
 n=2   1   2 P   1                   # n, l, Nzeta, Polarization, NzetaPol
   5.659      3.653   
   1.000      1.000   
%endblock PAO.Basis

prinput: ----------------------------------------------------------------------

coor:   Atomic-coordinates input format  =     Fractional

siesta: Atomic coordinates (Bohr) and species
siesta:     -2.35420  38.89134   0.00000  1        1
siesta:     -2.35420  41.57980   0.00000  1        2
siesta:      2.30256  38.89134   0.00000  1        3
siesta:      2.30256  41.57980   0.00000  1        4
siesta:      4.63094  34.85847   0.00000  1        5
siesta:      4.63094  37.54693   0.00000  1        6
siesta:      6.95932  30.82560   0.00000  1        7
siesta:      6.95932  33.51406   0.00000  1        8
siesta:     -4.68258  34.85847   0.00000  1        9
siesta:     -4.68258  37.54693   0.00000  1       10
siesta:     -9.33934  29.48119   0.00000  1       11
siesta:      4.63094  29.48119   0.00000  1       12
siesta:     -0.02582  29.48119   0.00000  1       13
siesta:     -4.68258  29.48119   0.00000  1       14
siesta:      2.30256  30.82560   0.00000  1       15
siesta:      2.30256  33.51406   0.00000  1       16
siesta:     -2.35420  30.82560   0.00000  1       17
siesta:     -2.35420  33.51406   0.00000  1       18
siesta:     -7.01096  30.82560   0.00000  1       19
siesta:     -7.01096  33.51406   0.00000  1       20
siesta:     -0.02582  34.85847   0.00000  1       21
siesta:     -0.02582  37.54693   0.00000  1       22
siesta:     -0.02582  42.92421   0.00000  1       23
siesta:     -0.02582  45.61267   0.00000  1       24
siesta:     -0.02582   2.59549   0.00000  2       25
siesta:     -0.02582   5.28395   0.00000  2       26
siesta:      9.28770  26.79272   0.00000  2       27
siesta:      9.28770  29.48119   0.00000  2       28
siesta:      2.30256   6.62836   0.00000  2       29
siesta:      2.30256   9.31683   0.00000  2       30
siesta:      4.63094  10.66124   0.00000  2       31
siesta:      4.63094  13.34970   0.00000  2       32
siesta:      6.95932  14.69411   0.00000  2       33
siesta:      6.95932  17.38257   0.00000  2       34
siesta:      9.28770  18.72698   0.00000  2       35
siesta:      9.28770  21.41544   0.00000  2       36
siesta:     11.61608  22.75985   0.00000  2       37
siesta:     11.61608  25.44831   0.00000  2       38
siesta:     -2.35420   6.62836   0.00000  2       39
siesta:     -2.35420   9.31683   0.00000  2       40
siesta:     -0.02582  10.66124   0.00000  2       41
siesta:     -0.02582  13.34970   0.00000  2       42
siesta:      2.30256  14.69411   0.00000  2       43
siesta:      2.30256  17.38257   0.00000  2       44
siesta:      4.63094  18.72698   0.00000  2       45
siesta:      4.63094  21.41544   0.00000  2       46
siesta:      6.95932  22.75985   0.00000  2       47
siesta:      6.95932  25.44831   0.00000  2       48
siesta:     -4.68258  10.66124   0.00000  2       49
siesta:     -4.68258  13.34970   0.00000  2       50
siesta:     -2.35420  14.69411   0.00000  2       51
siesta:     -2.35420  17.38257   0.00000  2       52
siesta:     -0.02582  18.72698   0.00000  2       53
siesta:     -0.02582  21.41544   0.00000  2       54
siesta:      2.30256  22.75985   0.00000  2       55
siesta:      2.30256  25.44831   0.00000  2       56
siesta:     -7.01096  14.69411   0.00000  2       57
siesta:     -7.01096  17.38257   0.00000  2       58
siesta:     -4.68258  18.72698   0.00000  2       59
siesta:     -4.68258  21.41544   0.00000  2       60
siesta:     -2.35420  22.75985   0.00000  2       61
siesta:     -2.35420  25.44831   0.00000  2       62
siesta:     -9.33934  18.72698   0.00000  2       63
siesta:     -9.33934  21.41544   0.00000  2       64
siesta:     -7.01096  22.75985   0.00000  2       65
siesta:     -7.01096  25.44831   0.00000  2       66
siesta:    -11.66772  22.75985   0.00000  2       67
siesta:    -11.66772  25.44831   0.00000  2       68
siesta:     -9.33934  26.79272   0.00000  2       69
siesta:      4.63094  26.79272   0.00000  2       70
siesta:     -0.02582  26.79272   0.00000  2       71
siesta:     -4.68258  26.79272   0.00000  2       72

siesta: System type = slab      

initatomlists: Number of atoms, orbitals, and projectors:     72   936  1152

siesta: ******************** Simulation parameters ****************************
siesta:
siesta: The following are some of the parameters of the simulation.
siesta: A complete list of the parameters used, including default values,
siesta: can be found in file out.fdf
siesta:
redata: Non-Collinear-spin run           =     F
redata: SpinPolarized (Up/Down) run      =     F
redata: Number of spin components        =     1
redata: Long output                      =     F
redata: Number of Atomic Species         =        2
redata: Charge density info will appear in .RHO file
redata: Write Mulliken Pop.              =     NO
redata: Mesh Cutoff                      =   200.0000  Ry
redata: Net charge of the system         =     0.0000 |e|
redata: Max. number of SCF Iter          =      500
redata: SCF convergence failure will abort job
redata: Performing Pulay mixing using    =    10 iterations
redata: Mix DM in first SCF step ?       =     F
redata: Write Pulay info on disk?        =     F
redata: Discard 1st Pulay DM after  kick =     F
redata: New DM Mixing Weight             =     0.0500
redata: New DM Occupancy tolerance       = 0.000000000001
redata: No kicks to SCF
redata: DM Mixing Weight for Kicks       =     0.5000
redata: DM Tolerance for SCF             =     0.000100
redata: Require Energy convergence for SCF =     F
redata: DM Energy tolerance for SCF      =     0.000100 eV
redata: Require Harris convergence for SCF =     F
redata: DM Harris energy tolerance for SCF =     0.000100 eV
redata: Using Saved Data (generic)   =     F
redata: Use continuation files for DM    =     T
redata: Neglect nonoverlap interactions  =     F
redata: Method of Calculation            =     Diagonalization
redata: Divide and Conquer               =     T
redata: Electronic Temperature           =     0.0019  Ry
redata: Fix the spin of the system       =     F
redata: Dynamics option                  =     Verlet MD run
redata: Initial MD time step             =        1
redata:   Final MD time step             =        1
redata: Length of MD time step           =     1.0000  fs
redata: Initial Temperature of MD run    =     0.0000  K
redata: Perform a MD quench              =     F
redata: ***********************************************************************
Total number of electrons:   264.000000
Total ionic charge:   264.000000

* ProcessorY, Blocksize:    2  24

k-point displ. along   1 input, could be:     0.50    0.00
k-point displ. along   2 input, could be:     0.50    0.00
 Kpoints in:          231 . Kpoints trimmed:          231

siesta: k-grid: Number of k-points =   231
siesta: k-grid: Cutoff (effective) =     5.000 Ang
siesta: k-grid: Supercell and displacements
siesta: k-grid:   21   0   0      0.500
siesta: k-grid:    0  21   0      0.500
siesta: k-grid:    0   0   1      0.000
Naive supercell factors:     2    2    2

superc: Internal auxiliary supercell:     2 x     2 x     2  =       8
superc: Number of atoms, orbitals, and projectors:    576   7488   9216

* Maximum dynamic memory allocated =     4 MB

siesta:                 ==============================
                            Begin MD step =      1
                        ==============================

superc: Internal auxiliary supercell:     2 x     2 x     2  =       8
superc: Number of atoms, orbitals, and projectors:    576   7488   9216

outcell: Unit cell vectors (Ang):
       12.804619    7.392750    0.000000
        0.000000   14.785500    0.000000
        0.000000    0.000000   10.000000

outcell: Cell vector modules (Ang)   :   14.785500   14.785500   10.000000
outcell: Cell angles (23,13,12) (deg):     90.0000     90.0000     60.0000
outcell: Cell volume (Ang**3)        :   1893.2269
New_DM. Step:     1
Initializing Density Matrix...

InitMesh: MESH =   120 x   120 x    90 =     1296000
InitMesh: Mesh cutoff (required, used) =   200.000   223.865 Ry

* Maximum dynamic memory allocated =   241 MB

stepf: Fermi-Dirac step function

siesta: Program's energy decomposition (eV):
siesta: Ebs     =     -5399.303741
siesta: Eions   =     15329.650002
siesta: Ena     =      4127.720183
siesta: Ekin    =      5112.466478
siesta: Enl     =       853.443598
siesta: DEna    =        -0.000007
siesta: DUscf   =         0.000000
siesta: DUext   =         0.000000
siesta: Exc     =     -4187.644139
siesta: eta*DQ  =         0.000000
siesta: Emadel  =         0.000000
siesta: Emeta   =         0.000000
siesta: Emolmec =         0.000000
siesta: Ekinion =         0.000000
siesta: Eharris =     -9306.189442
siesta: Etot    =     -9423.663889
siesta: FreeEng =     -9423.663889

siesta: iscf   Eharris(eV)      E_KS(eV)   FreeEng(eV)   dDmax  Ef(eV)
siesta:    1    -9306.1894    -9423.6639    -9423.6639  7.5858 -8.4773
timer: Routine,Calls,Time,% = IterSCF        1    4475.161  99.74
elaps: Routine,Calls,Wall,% = IterSCF        1     560.073  99.74
siesta:    2   -16134.2499    -8255.9105    -8255.9600 15.0756 -9.0810
siesta:    3    -9573.2183    -9204.4128    -9204.4382  1.7701 -4.8929
siesta:    4    -9393.5381    -9186.4419    -9186.4505  1.5871 -4.7960
siesta:    5    -9315.2786    -9165.7943    -9165.8001  1.5329 -4.8871
siesta:    6    -9276.3216    -9146.7617    -9146.8169  1.5175 -4.7686
siesta:    7    -9177.2857    -9122.7538    -9122.7789  1.3254 -4.9036
siesta:    8    -9152.3924    -9115.1054    -9115.1313  1.1486 -4.8330
siesta:    9    -9147.7786    -9110.3106    -9110.3246  1.0532 -4.8443
siesta:   10    -9142.1024    -9109.2079    -9109.2457  0.7856 -4.8561
siesta:   11    -9141.6192    -9110.5014    -9110.5313  0.8148 -4.8248
siesta:   12    -9141.5842    -9110.2448    -9110.3164  0.7938 -4.9713
siesta:   13    -9140.1219    -9107.4957    -9107.5914  0.5948 -4.9255
siesta:   14    -9139.7629    -9112.6071    -9112.6593  0.5042 -4.8593
siesta:   15    -9140.5307    -9125.5943    -9125.6489  0.3909 -4.9936
siesta:   16    -9140.1127    -9128.4188    -9128.4603  0.6174 -5.0599
siesta:   17    -9139.9432    -9128.2824    -9128.3635  0.7172 -5.1236
siesta:   18    -9139.9047    -9128.1886    -9128.2659  0.6784 -5.1273
siesta:   19    -9139.8320    -9128.7537    -9128.8370  0.6717 -5.1092
siesta:   20    -9139.7266    -9130.1472    -9130.2256  0.4324 -4.9662
siesta:   21    -9139.7596    -9131.2543    -9131.3324  0.2250 -4.9400
siesta:   22    -9139.4193    -9134.4392    -9134.4994  0.1514 -4.9897
siesta:   23    -9139.2269    -9134.8910    -9134.9645  0.1336 -4.9905
siesta:   24    -9139.0321    -9136.0682    -9136.1346  0.1394 -5.0262
siesta:   25    -9138.9734    -9135.9138    -9136.0006  0.0888 -5.0097
siesta:   26    -9138.9606    -9135.7673    -9135.8571  0.0717 -5.0080
siesta:   27    -9138.9458    -9135.6857    -9135.7784  0.0454 -5.0045
siesta:   28    -9138.9462    -9136.0611    -9136.1565  0.1083 -5.0059
siesta:   29    -9138.9392    -9136.1452    -9136.2389  0.0731 -5.0000
siesta:   30    -9138.9380    -9136.8423    -9136.9339  0.0668 -5.0039
siesta:   31    -9138.9318    -9137.6646    -9137.7562  0.0230 -5.0113
siesta:   32    -9138.9287    -9138.1330    -9138.2258  0.0274 -5.0180
siesta:   33    -9138.9287    -9138.2764    -9138.3707  0.0083 -5.0173
siesta:   34    -9138.9281    -9138.3534    -9138.4469  0.0103 -5.0181
siesta:   35    -9138.9285    -9138.4553    -9138.5491  0.0065 -5.0164
siesta:   36    -9138.9279    -9138.6467    -9138.7400  0.0106 -5.0171
siesta:   37    -9138.9279    -9138.8861    -9138.9801  0.0080 -5.0168
siesta:   38    -9138.9281    -9138.8850    -9138.9789  0.0025 -5.0151
siesta:   39    -9138.9280    -9138.9016    -9138.9952  0.0014 -5.0155
siesta:   40    -9138.9280    -9138.9218    -9139.0155  0.0011 -5.0157
siesta:   41    -9138.9281    -9138.9282    -9139.0219  0.0006 -5.0156
siesta:   42    -9138.9281    -9138.9323    -9139.0259  0.0009 -5.0157
siesta:   43    -9138.9281    -9138.9406    -9139.0342  0.0005 -5.0158
siesta:   44    -9138.9281    -9138.9383    -9139.0319  0.0003 -5.0158
siesta:   45    -9138.9280    -9138.9362    -9139.0299  0.0004 -5.0158
siesta:   46    -9138.9280    -9138.9322    -9139.0259  0.0002 -5.0158
siesta:   47    -9138.9280    -9138.9325    -9139.0261  0.0001 -5.0158
siesta:   48    -9138.9280    -9138.9315    -9139.0251  0.0001 -5.0158
siesta:   49    -9138.9280    -9138.9314    -9139.0251  0.0001 -5.0158

siesta: E_KS(eV) =            -9138.9309

siesta: E_KS - E_eggbox =     -9138.9309

siesta: Atomic forces (eV/Ang):
----------------------------------------
   Tot   -0.178828    0.095841    0.000000
----------------------------------------
   Max  417.755220
   Res  118.915090    sqrt( Sum f_i^2 / 3N )
----------------------------------------
   Max  417.755220    constrained

Stress-tensor-Voigt (kbar):     -623.58    -2264.65       -0.66       -3.66        0.00        0.00
(Free)E + p*V (eV/cell)    -8001.1391
Target enthalpy (eV/cell)    -9139.0246

siesta: Stress tensor (static) (eV/Ang**3):
        -0.389204   -0.002287    0.000000
        -0.002287   -1.413471    0.000000
         0.000000    0.000000   -0.000413

siesta: Pressure (static):        962.96603548  kBar

siesta: Stress tensor (total) (eV/Ang**3):
        -0.389204   -0.002287    0.000000
        -0.002287   -1.413471    0.000000
         0.000000    0.000000   -0.000413

siesta: Pressure (total):        962.96603548  kBar

siesta: Temp_ion =       0.000 K

* Maximum dynamic memory allocated =   258 MB
Computing bands...

siesta: Program's energy decomposition (eV):
siesta: Ebs     =     -4028.647786
siesta: Eions   =     15329.650002
siesta: Ena     =      4127.720183
siesta: Ekin    =      7796.494724
siesta: Enl     =      -787.369484
siesta: DEna    =      -695.971124
siesta: DUscf   =        91.753435
siesta: DUext   =         0.000000
siesta: Exc     =     -4341.908658
siesta: eta*DQ  =         0.000000
siesta: Emadel  =         0.000000
siesta: Emeta   =         0.000000
siesta: Emolmec =         0.000000
siesta: Ekinion =         0.000000
siesta: Eharris =     -9138.928041
siesta: Etot    =     -9138.930927
siesta: FreeEng =     -9139.024591

siesta: Final energy (eV):
siesta:  Band Struct. =   -4028.647786
siesta:       Kinetic =    7796.494724
siesta:       Hartree =   24678.554717
siesta:    Ext. field =       0.000000
siesta:   Exch.-corr. =   -4341.908658
siesta:  Ion-electron =  -56870.379502
siesta:       Ion-ion =   19598.307792
siesta:       Ekinion =       0.000000
siesta:         Total =   -9138.930927

siesta: Atomic forces (eV/Ang):
siesta:      1    1.187842  106.864377    0.000000
siesta:      2    2.537406 -399.581330    0.000000
siesta:      3   -1.336003  106.574119    0.000000
siesta:      4   -2.891004 -399.773160    0.000000
siesta:      5   14.531067    0.436956    0.000000
siesta:      6   16.792438 -394.665629    0.000000
siesta:      7    8.660397    0.863194    0.000000
siesta:      8    3.074164    3.713597    0.000000
siesta:      9  -14.531069    0.250875    0.000000
siesta:     10  -16.902161 -394.404596    0.000000
siesta:     11   -3.892502   -1.876563    0.000000
siesta:     12   -1.283245   -3.927555    0.000000
siesta:     13   -0.008914 -412.706738    0.000000
siesta:     14    0.827778   -3.836382    0.000000
siesta:     15   15.365812    1.444775    0.000000
siesta:     16   14.226439 -401.395402    0.000000
siesta:     17  -15.273174    1.369188    0.000000
siesta:     18  -14.132166 -402.435187    0.000000
siesta:     19   -3.532726    4.617084    0.000000
siesta:     20   -3.656823    2.485169    0.000000
siesta:     21   -0.088774  106.575201    0.000000
siesta:     22    0.433209 -389.404119    0.000000
siesta:     23    0.268622  105.717662    0.000000
siesta:     24    0.066778 -406.958973    0.000000
siesta:     25   -0.034068  404.554607    0.000000
siesta:     26    0.277906 -122.520268    0.000000
siesta:     27    3.919956    3.147604    0.000000
siesta:     28   -0.212486   -3.152435    0.000000
siesta:     29   18.079179  405.331638    0.000000
siesta:     30    1.685454 -120.465100    0.000000
siesta:     31   31.524202  402.105775    0.000000
siesta:     32   24.049086    2.488169    0.000000
siesta:     33   -2.629536   -2.771065    0.000000
siesta:     34    1.827941    0.347058    0.000000
siesta:     35   -0.392939   -0.124553    0.000000
siesta:     36    1.491244   -2.878681    0.000000
siesta:     37    0.784808    7.119845    0.000000
siesta:     38   -0.324733   -7.218615    0.000000
siesta:     39  -18.446763  406.545120    0.000000
siesta:     40   -1.389738 -120.249788    0.000000
siesta:     41   -0.226431  408.369239    0.000000
siesta:     42   -0.295161 -122.291933    0.000000
siesta:     43   29.187600  413.727669    0.000000
siesta:     44   21.103071   -2.118791    0.000000
siesta:     45   -0.822444    1.123061    0.000000
siesta:     46    0.741203   -0.217569    0.000000
siesta:     47   -0.285971    0.439313    0.000000
siesta:     48   -1.653962   -0.875937    0.000000
siesta:     49  -31.689874  401.780354    0.000000
siesta:     50  -24.121970    2.618608    0.000000
siesta:     51  -28.828712  413.548999    0.000000
siesta:     52  -21.419333   -2.212044    0.000000
siesta:     53    0.014510  417.755220    0.000000
siesta:     54   -0.085074    3.394044    0.000000
siesta:     55   -1.068951   -0.540173    0.000000
siesta:     56   -0.911884   -0.082767    0.000000
siesta:     57    2.589641   -2.833807    0.000000
siesta:     58   -2.151881    0.174466    0.000000
siesta:     59    1.003753    1.423631    0.000000
siesta:     60   -0.813920   -0.344944    0.000000
siesta:     61    1.171094   -0.534994    0.000000
siesta:     62    0.683120   -0.039338    0.000000
siesta:     63    0.740182   -0.414767    0.000000
siesta:     64   -1.916127   -2.080204    0.000000
siesta:     65    0.609767    0.547965    0.000000
siesta:     66    0.958871   -1.070189    0.000000
siesta:     67   -0.754330    5.930950    0.000000
siesta:     68    0.507687   -6.553027    0.000000
siesta:     69   -3.798976   -0.765947    0.000000
siesta:     70    0.816970   -3.285359    0.000000
siesta:     71    0.067954   -3.461606    0.000000
siesta:     72   -0.182155   -3.220157    0.000000
siesta: ----------------------------------------
siesta:    Tot   -0.178828    0.095841    0.000000

siesta: Stress tensor (static) (eV/Ang**3):
siesta:    -0.389204   -0.002287    0.000000
siesta:    -0.002287   -1.413471    0.000000
siesta:     0.000000    0.000000   -0.000413

siesta: Cell volume =       1893.226884 Ang**3

siesta: Pressure (static):
siesta:                Solid            Molecule  Units
siesta:           0.00654598          0.09036837  Ry/Bohr**3
siesta:           0.60102963          8.29731678  eV/Ang**3
siesta:         962.96603548      13293.91075886  kBar
(Free)E+ p_basis*V_orbitals  =       -9100.704092
(Free)Eharris+ p_basis*V_orbitals  =       -9100.700703

siesta: Electric dipole (a.u.)  =    0.000000    0.000000    0.000000
siesta: Electric dipole (Debye) =    0.000000    0.000000    0.000000

* Maximum dynamic memory allocated : Node    0 =   258 MB
* Maximum dynamic memory allocated : Node    1 =    90 MB
* Maximum dynamic memory allocated : Node    2 =    92 MB
* Maximum dynamic memory allocated : Node    3 =   243 MB
* Maximum dynamic memory allocated : Node    4 =   223 MB
* Maximum dynamic memory allocated : Node    5 =    82 MB
* Maximum dynamic memory allocated : Node    6 =    84 MB
* Maximum dynamic memory allocated : Node    7 =   206 MB

* Maximum memory occured during matrixMtoO                    

timer: CPU execution times:
timer:  Routine       Calls   Time/call    Tot.time        %
timer:  siesta            1  218672.176  218672.176   100.00
timer:  Setup             1       3.018       3.018     0.00
timer:  bands             3     269.236     807.707     0.37
timer:  writewave         1       0.022       0.022     0.00
timer:  KSV_init          1       0.001       0.001     0.00
timer:  IterMD            1  217855.517  217855.517    99.63
timer:  hsparse           1       0.398       0.398     0.00
timer:  overlap           1       7.784       7.784     0.00
timer:  IterSCF          49    4440.712  217594.884    99.51
timer:  kinefsm           2       4.069       8.137     0.00
timer:  nlefsm            2      22.209      44.418     0.02
timer:  DHSCF            50     141.717    7085.863     3.24
timer:  DHSCF1            1       0.996       0.996     0.00
timer:  DHSCF2            1      47.449      47.449     0.02
timer:  REORD           402       0.010       3.958     0.00
timer:  POISON           51       2.247     114.573     0.05
timer:  DHSCF3           50     139.773    6988.672     3.20
timer:  rhoofd           50      27.502    1375.079     0.63
timer:  cellXC           50       3.490     174.488     0.08
timer:  vmat             50      69.265    3463.275     1.58
timer:  MolMec            2       0.000       0.000     0.00
timer:  diagon           49    4297.751  210589.798    96.30
timer:  c-eigval      11440       6.677   76382.878    34.93
timer:  c-buildHS     11440       0.125    1427.545     0.65
timer:  cdiag         22759       6.867  156291.995    71.47
timer:  cdiag1        22759       0.429    9768.482     4.47
timer:  cdiag2        22759       1.910   43463.249    19.88
timer:  cdiag3        22759       3.937   89595.220    40.97
timer:  cdiag4        22759       0.225    5120.578     2.34
timer:  c-eigvec      11319       7.261   82187.951    37.59
timer:  c-buildD      11319       4.661   52762.244    24.13
timer:  DHSCF4            1      46.090      46.090     0.02
timer:  dfscf             1      43.359      43.359     0.02
timer:  overfsm           1       0.477       0.477     0.00
timer:  optical           1       5.178       5.178     0.00
  

elaps: ELAPSED times:
elaps:  Routine       Calls   Time/call    Tot.time        %
elaps:  siesta            1   27366.520   27366.520   100.00
elaps:  Setup             1       0.378       0.378     0.00
elaps:  bands             3      33.706     101.117     0.37
elaps:  writewave         1       0.002       0.002     0.00
elaps:  KSV_init          1       0.000       0.000     0.00
elaps:  IterMD            1   27264.342   27264.342    99.63
elaps:  hsparse           1       0.051       0.051     0.00
elaps:  overlap           1       0.984       0.984     0.00
elaps:  IterSCF          49     555.750   27231.738    99.51
elaps:  kinefsm           2       0.512       1.024     0.00
elaps:  nlefsm            2       2.782       5.563     0.02
elaps:  DHSCF            50      17.860     893.006     3.26
elaps:  DHSCF1            1       0.126       0.126     0.00
elaps:  DHSCF2            1       5.931       5.931     0.02
elaps:  REORD           402       0.001       0.536     0.00
elaps:  POISON           51       0.281      14.321     0.05
elaps:  DHSCF3           50      17.485     874.255     3.19
elaps:  rhoofd           50       8.050     402.483     1.47
elaps:  cellXC           50       0.436      21.775     0.08
elaps:  vmat             50       8.664     433.220     1.58
elaps:  MolMec            2       0.000       0.000     0.00
elaps:  diagon           49     537.888   26356.504    96.31
elaps:  c-eigval      11440       0.835    9556.838    34.92
elaps:  c-buildHS     11440       0.017     195.869     0.72
elaps:  cdiag         22759       0.847   19270.860    70.42
elaps:  cdiag1        22759       0.053    1206.452     4.41
elaps:  cdiag2        22759       0.239    5438.201    19.87
elaps:  cdiag3        22759       0.493   11225.241    41.02
elaps:  cdiag4        22759       0.028     647.346     2.37
elaps:  c-eigvec      11319       0.887   10038.118    36.68
elaps:  c-buildD      11319       0.605    6853.339    25.04
elaps:  DHSCF4            1      12.332      12.332     0.05
elaps:  dfscf             1      11.745      11.745     0.04
elaps:  overfsm           1       0.065       0.065     0.00
elaps:  optical           1       0.000       0.000     0.00
  
>> End of run:  23-APR-2016  10:02:08
