Siesta Version:                                        siesta-3.2-pl-3
Architecture  : x86_64-unknown-linux-gnu--unknown
Compiler flags: mpiifort -g -O2 -fPIC -xSSE4.1 -fp-model source -shared-intel 
PARALLEL version

* Running on    8 nodes in parallel
>> Start of run:  25-APR-2016   4:34:36

                           ***********************       
                           *  WELCOME TO SIESTA  *       
                           ***********************       

reinit: Reading from standard input
************************** Dump of input data file ****************************
#(1) General system descriptors
SystemName            GRP_doping    # Descriptive name of the system
SystemLabel           GRP_doping    # Short name for naming files
%include STRUCT.fdf
%include KPT.fdf
%include BASIS.fdf
#%include TS.fdf # for transiesta calculation
#(4) DFT, Grid, SCF
XC.functional         GGA           # LDA or GGA (default = LDA)
XC.authors            PBE           # CA (Ceperley-Aldr) = PZ
                                    #    (Perdew-Zunger) - LDA - Default
                                    # PW92 (Perdew-Wang-92) - LDA
                                    # PBE (Perdew-Burke-Ernzerhof) - GGA
MeshCutoff            200.000000    Ry      # Default: 50.0 Ry ~ 0.444 Bohr
                                    #         100.0 Ry ~ 0.314 Bohr
MaxSCFIterations      500           # Default: 50
DM.MixingWeight       0.05          # Default: 0.25
DM.NumberPulay        10            # Default: 0
DM.PulayOnFile        F             # SystemLabel.P1, SystemLabel.P2
DM.Tolerance          1.d-4         # Default: 1.d-4
DM.UseSaveDM          .true.        # because of the bug
SCFMustConverge       .true.
NeglNonOverlapInt     F             # Default: F
#(5) Eigenvalue problem: order-N or diagonalization
SolutionMethod        Diagon        # or Transiesta
ElectronicTemperature 300.0 K       # Default: 300.0 K
#(6) Molecular dynamics and relaxations
#MD.TypeOfRun          CG            # Type of dynamics:
#MD.VariableCell       F
#MD.NumCGsteps         0           # 0 for single-point / 100 for gopt
#MD.MaxCGDispl         0.2 Bohr      # Default: 0.2 Bohr
#MD.MaxForceTol        0.02 eV/Ang   # Default: 0.04 eV/Ang
#MD.MaxStressTol       1.0 GPa       # Default: 1.0 GPa
# Geometry Constraints
#%block GeometryConstraints
#	position from 1 to 44
#%endblock GeometryConstraints
BandLinesScale   pi/a
%block BandLines
 1   0.00000000  0.00000000  0.00000000
50   0.00000000  0.07809418  0.00000000
50   0.04509075  0.07809242  0.00000000
20   0.00000000  0.00000000  0.00000000
%endblock BandLines
************************** End of input data file *****************************

reinit: -----------------------------------------------------------------------
reinit: System Name: GRP_doping
reinit: -----------------------------------------------------------------------
reinit: System Label: GRP_doping                                                  
reinit: -----------------------------------------------------------------------

initatom: Reading input for the pseudopotentials and atomic orbitals ----------
 Species number:            1  Label: B Atomic number:           5
 Species number:            2  Label: C Atomic number:           6
Ground state valence configuration:   2s02  2p01
Reading pseudopotential information in formatted form from B.psf

Valence configuration for pseudopotential generation:
2s( 2.00) rc: 1.74
2p( 1.00) rc: 1.74
3d( 0.00) rc: 1.74
4f( 0.00) rc: 1.74
Ground state valence configuration:   2s02  2p02
Reading pseudopotential information in formatted form from C.psf

Valence configuration for pseudopotential generation:
2s( 2.00) rc: 1.54
2p( 2.00) rc: 1.54
3d( 0.00) rc: 1.54
4f( 0.00) rc: 1.54
For B, standard SIESTA heuristics set lmxkb to 3
 (one more than the basis l, including polarization orbitals).
Use PS.lmax or PS.KBprojectors blocks to override.
For C, standard SIESTA heuristics set lmxkb to 3
 (one more than the basis l, including polarization orbitals).
Use PS.lmax or PS.KBprojectors blocks to override.

<basis_specs>
===============================================================================
B                    Z=   5    Mass=  10.810        Charge= 0.17977+309
Lmxo=1 Lmxkb= 3    BasisType=split      Semic=F
L=0  Nsemic=0  Cnfigmx=2
          n=1  nzeta=2  polorb=0
            splnorm:   0.15000    
               vcte:    0.0000    
               rinn:    0.0000    
                rcs:    0.0000      0.0000    
            lambdas:    1.0000      1.0000    
L=1  Nsemic=0  Cnfigmx=2
          n=1  nzeta=2  polorb=1
            splnorm:   0.15000    
               vcte:    0.0000    
               rinn:    0.0000    
                rcs:    0.0000      0.0000    
            lambdas:    1.0000      1.0000    
-------------------------------------------------------------------------------
L=0  Nkbl=1  erefs: 0.17977+309
L=1  Nkbl=1  erefs: 0.17977+309
L=2  Nkbl=1  erefs: 0.17977+309
L=3  Nkbl=1  erefs: 0.17977+309
===============================================================================
</basis_specs>

atom: Called for B                     (Z =   5)

read_vps: Pseudopotential generation method:
read_vps: ATM3      Troullier-Martins                       
Total valence charge:    3.00000

read_vps: Pseudopotential includes a core correction:
read_vps: Pseudo-core for xc-correction

xc_check: Exchange-correlation functional:
xc_check: GGA Perdew, Burke & Ernzerhof 1996
V l=0 = -2*Zval/r beyond r=  1.7165
V l=1 = -2*Zval/r beyond r=  1.7165
V l=2 = -2*Zval/r beyond r=  1.7165
V l=3 = -2*Zval/r beyond r=  1.6951
All V_l potentials equal beyond r=  1.7165
This should be close to max(r_c) in ps generation
All pots = -2*Zval/r beyond r=  1.7165

VLOCAL1: 99.0% of the norm of Vloc inside     14.733 Ry
VLOCAL1: 99.9% of the norm of Vloc inside     33.577 Ry
atom: Maximum radius for 4*pi*r*r*local-pseudopot. charge    2.04484
atom: Maximum radius for r*vlocal+2*Zval:    1.75994
GHOST: No ghost state for L =  0
GHOST: No ghost state for L =  1
GHOST: No ghost state for L =  2
GHOST: No ghost state for L =  3

KBgen: Kleinman-Bylander projectors: 
   l= 0   rc=  1.897051   el= -0.693730   Ekb=  4.595746   kbcos=  0.286105
   l= 1   rc=  1.920920   el= -0.265236   Ekb= -2.350715   kbcos= -0.315747
   l= 2   rc=  2.044840   el=  0.002055   Ekb= -0.690767   kbcos= -0.013822
   l= 3   rc=  2.149707   el=  0.003188   Ekb= -0.315358   kbcos= -0.002055

KBgen: Total number of  Kleinman-Bylander projectors:   16
atom: -------------------------------------------------------------------------

atom: SANKEY-TYPE ORBITALS:
atom: Selected multiple-zeta basis: split     

SPLIT: Orbitals with angular momentum L= 0

SPLIT: Basis orbitals for state 2s

SPLIT: PAO cut-off radius determined from an
SPLIT: energy shift=  0.007350 Ry

   izeta = 1
                 lambda =    1.000000
                     rc =    5.422032
                 energy =   -0.686029
                kinetic =    0.576707
    potential(screened) =   -1.262736
       potential(ionic) =   -3.271094

   izeta = 2
                 rmatch =    4.222573
              splitnorm =    0.150000
                 energy =   -0.602132
                kinetic =    0.858975
    potential(screened) =   -1.461107
       potential(ionic) =   -3.582536

SPLIT: Orbitals with angular momentum L= 1

SPLIT: Basis orbitals for state 2p

SPLIT: PAO cut-off radius determined from an
SPLIT: energy shift=  0.007350 Ry

   izeta = 1
                 lambda =    1.000000
                     rc =    6.790259
                 energy =   -0.258578
                kinetic =    1.481412
    potential(screened) =   -1.739989
       potential(ionic) =   -3.657461

   izeta = 2
                 rmatch =    4.608740
              splitnorm =    0.150000
                 energy =   -0.173757
                kinetic =    2.186690
    potential(screened) =   -2.360447
       potential(ionic) =   -4.464260

POLgen: Perturbative polarization orbital with L=  2

POLgen: Polarization orbital for state 2p

   izeta = 1
                     rc =    6.790259
                 energy =    0.684082
                kinetic =    1.471481
    potential(screened) =   -0.787399
       potential(ionic) =   -2.406985
atom: Total number of Sankey-type orbitals: 13

atm_pop: Valence configuration (for local Pseudopot. screening):
 2s( 2.00)                                                            
 2p( 1.00)                                                            
Vna: chval, zval:    3.00000   3.00000

Vna:  Cut-off radius for the neutral-atom potential:   6.790259
comcore: Pseudo-core radius Rcore=  2.122997

atom: _________________________________________________________________________

<basis_specs>
===============================================================================
C                    Z=   6    Mass=  12.010        Charge= 0.17977+309
Lmxo=1 Lmxkb= 3    BasisType=split      Semic=F
L=0  Nsemic=0  Cnfigmx=2
          n=1  nzeta=2  polorb=0
            splnorm:   0.15000    
               vcte:    0.0000    
               rinn:    0.0000    
                rcs:    0.0000      0.0000    
            lambdas:    1.0000      1.0000    
L=1  Nsemic=0  Cnfigmx=2
          n=1  nzeta=2  polorb=1
            splnorm:   0.15000    
               vcte:    0.0000    
               rinn:    0.0000    
                rcs:    0.0000      0.0000    
            lambdas:    1.0000      1.0000    
-------------------------------------------------------------------------------
L=0  Nkbl=1  erefs: 0.17977+309
L=1  Nkbl=1  erefs: 0.17977+309
L=2  Nkbl=1  erefs: 0.17977+309
L=3  Nkbl=1  erefs: 0.17977+309
===============================================================================
</basis_specs>

atom: Called for C                     (Z =   6)

read_vps: Pseudopotential generation method:
read_vps: ATM3      Troullier-Martins                       
Total valence charge:    4.00000

read_vps: Pseudopotential includes a core correction:
read_vps: Pseudo-core for xc-correction

xc_check: Exchange-correlation functional:
xc_check: GGA Perdew, Burke & Ernzerhof 1996
V l=0 = -2*Zval/r beyond r=  1.5227
V l=1 = -2*Zval/r beyond r=  1.5227
V l=2 = -2*Zval/r beyond r=  1.5227
V l=3 = -2*Zval/r beyond r=  1.5038
All V_l potentials equal beyond r=  1.5227
This should be close to max(r_c) in ps generation
All pots = -2*Zval/r beyond r=  1.5227

VLOCAL1: 99.0% of the norm of Vloc inside     18.722 Ry
VLOCAL1: 99.9% of the norm of Vloc inside     42.668 Ry
atom: Maximum radius for 4*pi*r*r*local-pseudopot. charge    1.83678
atom: Maximum radius for r*vlocal+2*Zval:    1.58088
GHOST: No ghost state for L =  0
GHOST: No ghost state for L =  1
GHOST: No ghost state for L =  2
GHOST: No ghost state for L =  3

KBgen: Kleinman-Bylander projectors: 
   l= 0   rc=  1.704034   el= -1.009801   Ekb=  5.335044   kbcos=  0.316824
   l= 1   rc=  1.704034   el= -0.388707   Ekb= -3.785862   kbcos= -0.366464
   l= 2   rc=  1.791422   el=  0.001971   Ekb= -0.970471   kbcos= -0.009212
   l= 3   rc=  1.859892   el=  0.003065   Ekb= -0.399525   kbcos= -0.001223

KBgen: Total number of  Kleinman-Bylander projectors:   16
atom: -------------------------------------------------------------------------

atom: SANKEY-TYPE ORBITALS:
atom: Selected multiple-zeta basis: split     

SPLIT: Orbitals with angular momentum L= 0

SPLIT: Basis orbitals for state 2s

SPLIT: PAO cut-off radius determined from an
SPLIT: energy shift=  0.007350 Ry

   izeta = 1
                 lambda =    1.000000
                     rc =    4.632753
                 energy =   -1.002270
                kinetic =    0.855760
    potential(screened) =   -1.858031
       potential(ionic) =   -5.417575

   izeta = 2
                 rmatch =    3.431921
              splitnorm =    0.150000
                 energy =   -0.867111
                kinetic =    1.300804
    potential(screened) =   -2.167915
       potential(ionic) =   -5.962684

SPLIT: Orbitals with angular momentum L= 1

SPLIT: Basis orbitals for state 2p

SPLIT: PAO cut-off radius determined from an
SPLIT: energy shift=  0.007350 Ry

   izeta = 1
                 lambda =    1.000000
                     rc =    5.658549
                 energy =   -0.381140
                kinetic =    2.399701
    potential(screened) =   -2.780841
       potential(ionic) =   -6.206085

   izeta = 2
                 rmatch =    3.653288
              splitnorm =    0.150000
                 energy =   -0.249149
                kinetic =    3.542762
    potential(screened) =   -3.791911
       potential(ionic) =   -7.581078

POLgen: Perturbative polarization orbital with L=  2

POLgen: Polarization orbital for state 2p

   izeta = 1
                     rc =    5.658549
                 energy =    1.109913
                kinetic =    2.304789
    potential(screened) =   -1.194876
       potential(ionic) =   -4.013592
atom: Total number of Sankey-type orbitals: 13

atm_pop: Valence configuration (for local Pseudopot. screening):
 2s( 2.00)                                                            
 2p( 2.00)                                                            
Vna: chval, zval:    4.00000   4.00000

Vna:  Cut-off radius for the neutral-atom potential:   5.658549
comcore: Pseudo-core radius Rcore=  1.791422

atom: _________________________________________________________________________

prinput: Basis input ----------------------------------------------------------

PAO.BasisType split     

%block ChemicalSpeciesLabel
    1    5 B                       # Species index, atomic number, species label
    2    6 C                       # Species index, atomic number, species label
%endblock ChemicalSpeciesLabel

%block PAO.Basis                 # Define Basis set
B                     2                    # Species label, number of l-shells
 n=2   0   2                         # n, l, Nzeta 
   5.422      4.223   
   1.000      1.000   
 n=2   1   2 P   1                   # n, l, Nzeta, Polarization, NzetaPol
   6.790      4.609   
   1.000      1.000   
C                     2                    # Species label, number of l-shells
 n=2   0   2                         # n, l, Nzeta 
   4.633      3.432   
   1.000      1.000   
 n=2   1   2 P   1                   # n, l, Nzeta, Polarization, NzetaPol
   5.659      3.653   
   1.000      1.000   
%endblock PAO.Basis

prinput: ----------------------------------------------------------------------

coor:   Atomic-coordinates input format  =     Fractional

siesta: Atomic coordinates (Bohr) and species
siesta:      2.30256  38.89134   0.00000  1        1
siesta:      4.63094  34.85847   0.00000  1        2
siesta:      4.63094  37.54693   0.00000  1        3
siesta:      6.95932  33.51406   0.00000  1        4
siesta:     -2.35420  17.38257   0.00000  1        5
siesta:     -0.02582  18.72698   0.00000  1        6
siesta:      2.30256  25.44831   0.00000  1        7
siesta:     -4.68258  18.72698   0.00000  1        8
siesta:     -4.68258  21.41544   0.00000  1        9
siesta:     -7.01096  22.75985   0.00000  1       10
siesta:     -7.01096  25.44831   0.00000  1       11
siesta:      4.63094  26.79272   0.00000  1       12
siesta:      4.63094  29.48119   0.00000  1       13
siesta:     -0.02582  26.79272   0.00000  1       14
siesta:     -0.02582  29.48119   0.00000  1       15
siesta:     -4.68258  26.79272   0.00000  1       16
siesta:     -4.68258  29.48119   0.00000  1       17
siesta:      2.30256  30.82560   0.00000  1       18
siesta:     -2.35420  30.82560   0.00000  1       19
siesta:     -2.35420  33.51406   0.00000  1       20
siesta:     -0.02582  34.85847   0.00000  1       21
siesta:     -0.02582  37.54693   0.00000  1       22
siesta:     -0.02582   2.59549   0.00000  2       23
siesta:     -0.02582   5.28395   0.00000  2       24
siesta:     -2.35420  38.89134   0.00000  2       25
siesta:     -2.35420  41.57980   0.00000  2       26
siesta:      2.30256  41.57980   0.00000  2       27
siesta:      6.95932  30.82560   0.00000  2       28
siesta:      9.28770  26.79272   0.00000  2       29
siesta:      9.28770  29.48119   0.00000  2       30
siesta:     -4.68258  34.85847   0.00000  2       31
siesta:     -4.68258  37.54693   0.00000  2       32
siesta:      2.30256   6.62836   0.00000  2       33
siesta:      2.30256   9.31683   0.00000  2       34
siesta:      4.63094  10.66124   0.00000  2       35
siesta:      4.63094  13.34970   0.00000  2       36
siesta:      6.95932  14.69411   0.00000  2       37
siesta:      6.95932  17.38257   0.00000  2       38
siesta:      9.28770  18.72698   0.00000  2       39
siesta:      9.28770  21.41544   0.00000  2       40
siesta:     11.61608  22.75985   0.00000  2       41
siesta:     11.61608  25.44831   0.00000  2       42
siesta:     -2.35420   6.62836   0.00000  2       43
siesta:     -2.35420   9.31683   0.00000  2       44
siesta:     -0.02582  10.66124   0.00000  2       45
siesta:     -0.02582  13.34970   0.00000  2       46
siesta:      2.30256  14.69411   0.00000  2       47
siesta:      2.30256  17.38257   0.00000  2       48
siesta:      4.63094  18.72698   0.00000  2       49
siesta:      4.63094  21.41544   0.00000  2       50
siesta:      6.95932  22.75985   0.00000  2       51
siesta:      6.95932  25.44831   0.00000  2       52
siesta:     -4.68258  10.66124   0.00000  2       53
siesta:     -4.68258  13.34970   0.00000  2       54
siesta:     -2.35420  14.69411   0.00000  2       55
siesta:     -0.02582  21.41544   0.00000  2       56
siesta:      2.30256  22.75985   0.00000  2       57
siesta:     -7.01096  14.69411   0.00000  2       58
siesta:     -7.01096  17.38257   0.00000  2       59
siesta:     -2.35420  22.75985   0.00000  2       60
siesta:     -2.35420  25.44831   0.00000  2       61
siesta:     -9.33934  18.72698   0.00000  2       62
siesta:     -9.33934  21.41544   0.00000  2       63
siesta:    -11.66772  22.75985   0.00000  2       64
siesta:    -11.66772  25.44831   0.00000  2       65
siesta:     -9.33934  26.79272   0.00000  2       66
siesta:     -9.33934  29.48119   0.00000  2       67
siesta:      2.30256  33.51406   0.00000  2       68
siesta:     -7.01096  30.82560   0.00000  2       69
siesta:     -7.01096  33.51406   0.00000  2       70
siesta:     -0.02582  42.92421   0.00000  2       71
siesta:     -0.02582  45.61267   0.00000  2       72

siesta: System type = slab      

initatomlists: Number of atoms, orbitals, and projectors:     72   936  1152

siesta: ******************** Simulation parameters ****************************
siesta:
siesta: The following are some of the parameters of the simulation.
siesta: A complete list of the parameters used, including default values,
siesta: can be found in file out.fdf
siesta:
redata: Non-Collinear-spin run           =     F
redata: SpinPolarized (Up/Down) run      =     F
redata: Number of spin components        =     1
redata: Long output                      =     F
redata: Number of Atomic Species         =        2
redata: Charge density info will appear in .RHO file
redata: Write Mulliken Pop.              =     NO
redata: Mesh Cutoff                      =   200.0000  Ry
redata: Net charge of the system         =     0.0000 |e|
redata: Max. number of SCF Iter          =      500
redata: SCF convergence failure will abort job
redata: Performing Pulay mixing using    =    10 iterations
redata: Mix DM in first SCF step ?       =     F
redata: Write Pulay info on disk?        =     F
redata: Discard 1st Pulay DM after  kick =     F
redata: New DM Mixing Weight             =     0.0500
redata: New DM Occupancy tolerance       = 0.000000000001
redata: No kicks to SCF
redata: DM Mixing Weight for Kicks       =     0.5000
redata: DM Tolerance for SCF             =     0.000100
redata: Require Energy convergence for SCF =     F
redata: DM Energy tolerance for SCF      =     0.000100 eV
redata: Require Harris convergence for SCF =     F
redata: DM Harris energy tolerance for SCF =     0.000100 eV
redata: Using Saved Data (generic)   =     F
redata: Use continuation files for DM    =     T
redata: Neglect nonoverlap interactions  =     F
redata: Method of Calculation            =     Diagonalization
redata: Divide and Conquer               =     T
redata: Electronic Temperature           =     0.0019  Ry
redata: Fix the spin of the system       =     F
redata: Dynamics option                  =     Verlet MD run
redata: Initial MD time step             =        1
redata:   Final MD time step             =        1
redata: Length of MD time step           =     1.0000  fs
redata: Initial Temperature of MD run    =     0.0000  K
redata: Perform a MD quench              =     F
redata: ***********************************************************************
Total number of electrons:   266.000000
Total ionic charge:   266.000000

* ProcessorY, Blocksize:    2  24

k-point displ. along   1 input, could be:     0.50    0.00
k-point displ. along   2 input, could be:     0.50    0.00
 Kpoints in:          231 . Kpoints trimmed:          231

siesta: k-grid: Number of k-points =   231
siesta: k-grid: Cutoff (effective) =     5.000 Ang
siesta: k-grid: Supercell and displacements
siesta: k-grid:   21   0   0      0.500
siesta: k-grid:    0  21   0      0.500
siesta: k-grid:    0   0   1      0.000
Naive supercell factors:     2    2    2

superc: Internal auxiliary supercell:     2 x     2 x     2  =       8
superc: Number of atoms, orbitals, and projectors:    576   7488   9216

* Maximum dynamic memory allocated =     4 MB

siesta:                 ==============================
                            Begin MD step =      1
                        ==============================

superc: Internal auxiliary supercell:     2 x     2 x     2  =       8
superc: Number of atoms, orbitals, and projectors:    576   7488   9216

outcell: Unit cell vectors (Ang):
       12.804619    7.392750    0.000000
        0.000000   14.785500    0.000000
        0.000000    0.000000   10.000000

outcell: Cell vector modules (Ang)   :   14.785500   14.785500   10.000000
outcell: Cell angles (23,13,12) (deg):     90.0000     90.0000     60.0000
outcell: Cell volume (Ang**3)        :   1893.2269
New_DM. Step:     1
Initializing Density Matrix...

InitMesh: MESH =   120 x   120 x    90 =     1296000
InitMesh: Mesh cutoff (required, used) =   200.000   223.865 Ry

* Maximum dynamic memory allocated =   231 MB

stepf: Fermi-Dirac step function

siesta: Program's energy decomposition (eV):
siesta: Ebs     =     -5493.919017
siesta: Eions   =     15585.763425
siesta: Ena     =      4187.859309
siesta: Ekin    =      5217.942150
siesta: Enl     =       828.921938
siesta: DEna    =        -0.000007
siesta: DUscf   =         0.000000
siesta: DUext   =         0.000000
siesta: Exc     =     -4199.631533
siesta: eta*DQ  =         0.000000
siesta: Emadel  =         0.000000
siesta: Emeta   =         0.000000
siesta: Emolmec =         0.000000
siesta: Ekinion =         0.000000
siesta: Eharris =     -9338.974735
siesta: Etot    =     -9550.671568
siesta: FreeEng =     -9550.671568

siesta: iscf   Eharris(eV)      E_KS(eV)   FreeEng(eV)   dDmax  Ef(eV)
siesta:    1    -9338.9747    -9550.6716    -9550.6716  7.1429 -8.4242
timer: Routine,Calls,Time,% = IterSCF        1    3516.034  99.66
elaps: Routine,Calls,Wall,% = IterSCF        1     440.416  99.66
siesta:    2   -15057.0393    -8466.1133    -8466.1729 20.5869 -4.1056
siesta:    3    -9292.1909    -9422.4818    -9422.5291  3.2018 -7.0546
siesta:    4    -9267.1851    -9313.4187    -9313.4198  1.6584 -5.8825
siesta:    5    -9215.2648    -9220.5017    -9220.5440  1.2852 -5.5854
siesta:    6    -9190.0018    -9172.8008    -9172.8465  1.1075 -5.3800
siesta:    7    -9185.0201    -9165.7109    -9165.7256  1.0514 -5.5118
siesta:    8    -9181.9501    -9162.6368    -9162.7005  0.9321 -5.4823
siesta:    9    -9178.6549    -9153.7798    -9153.8459  0.7258 -5.4608
siesta:   10    -9177.5718    -9152.1402    -9152.1952  0.6753 -5.4591
siesta:   11    -9176.9607    -9151.0031    -9151.0612  0.5618 -5.4241
siesta:   12    -9177.6024    -9148.8285    -9148.9063  0.4314 -5.3084
siesta:   13    -9177.3827    -9146.9291    -9146.9840  0.2415 -5.2698
siesta:   14    -9176.5806    -9149.8145    -9149.8932  0.1729 -5.2959
siesta:   15    -9176.3465    -9155.4876    -9155.5626  0.1608 -5.3361
siesta:   16    -9176.1059    -9163.0463    -9163.1249  0.2003 -5.3767
siesta:   17    -9176.0543    -9167.7178    -9167.8103  0.0778 -5.3988
siesta:   18    -9175.9625    -9170.7499    -9170.8275  0.0915 -5.4079
siesta:   19    -9175.9358    -9172.5962    -9172.6860  0.0806 -5.3976
siesta:   20    -9175.9225    -9174.2671    -9174.3496  0.0317 -5.3881
siesta:   21    -9175.9170    -9174.3495    -9174.4359  0.0179 -5.3844
siesta:   22    -9175.9133    -9174.7231    -9174.8058  0.0184 -5.3849
siesta:   23    -9175.9100    -9175.4757    -9175.5584  0.0115 -5.3841
siesta:   24    -9175.9076    -9176.0000    -9176.0824  0.0078 -5.3810
siesta:   25    -9175.9076    -9176.1630    -9176.2468  0.0051 -5.3795
siesta:   26    -9175.9075    -9176.2178    -9176.3013  0.0041 -5.3795
siesta:   27    -9175.9073    -9176.2513    -9176.3347  0.0021 -5.3797
siesta:   28    -9175.9074    -9176.2104    -9176.2938  0.0019 -5.3798
siesta:   29    -9175.9072    -9176.1547    -9176.2380  0.0031 -5.3797
siesta:   30    -9175.9072    -9176.0329    -9176.1163  0.0029 -5.3796
siesta:   31    -9175.9072    -9175.9269    -9176.0102  0.0018 -5.3794
siesta:   32    -9175.9072    -9175.9062    -9175.9896  0.0014 -5.3794
siesta:   33    -9175.9072    -9175.8946    -9175.9780  0.0005 -5.3797
siesta:   34    -9175.9072    -9175.9116    -9175.9950  0.0003 -5.3799
siesta:   35    -9175.9072    -9175.9087    -9175.9921  0.0001 -5.3800
siesta:   36    -9175.9072    -9175.9111    -9175.9945  0.0001 -5.3800
siesta:   37    -9175.9072    -9175.9100    -9175.9934  0.0001 -5.3800

siesta: E_KS(eV) =            -9175.9080

siesta: E_KS - E_eggbox =     -9175.9080

siesta: Atomic forces (eV/Ang):
----------------------------------------
   Tot    0.049812   -0.031330    0.000000
----------------------------------------
   Max  563.708884
   Res  139.285440    sqrt( Sum f_i^2 / 3N )
----------------------------------------
   Max  563.708884    constrained

Stress-tensor-Voigt (kbar):     -754.42    -2574.04       -0.67       -0.95        0.00        0.00
(Free)E + p*V (eV/cell)    -7864.7083
Target enthalpy (eV/cell)    -9175.9913

siesta: Stress tensor (static) (eV/Ang**3):
        -0.470865   -0.000590    0.000000
        -0.000590   -1.606571    0.000000
         0.000000    0.000000   -0.000418

siesta: Pressure (static):       1109.70842090  kBar

siesta: Stress tensor (total) (eV/Ang**3):
        -0.470865   -0.000590    0.000000
        -0.000590   -1.606571    0.000000
         0.000000    0.000000   -0.000418

siesta: Pressure (total):       1109.70842090  kBar

siesta: Temp_ion =       0.000 K

* Maximum dynamic memory allocated =   248 MB
Computing bands...

siesta: Program's energy decomposition (eV):
siesta: Ebs     =     -4085.221945
siesta: Eions   =     15585.763425
siesta: Ena     =      4187.859309
siesta: Ekin    =      8040.983336
siesta: Enl     =      -784.180484
siesta: DEna    =      -772.614958
siesta: DUscf   =       104.633408
siesta: DUext   =         0.000000
siesta: Exc     =     -4366.825161
siesta: eta*DQ  =         0.000000
siesta: Emadel  =         0.000000
siesta: Emeta   =         0.000000
siesta: Emolmec =         0.000000
siesta: Ekinion =         0.000000
siesta: Eharris =     -9175.907196
siesta: Etot    =     -9175.907976
siesta: FreeEng =     -9175.991346

siesta: Final energy (eV):
siesta:  Band Struct. =   -4085.221945
siesta:       Kinetic =    8040.983336
siesta:       Hartree =   25792.449527
siesta:    Ext. field =       0.000000
siesta:   Exch.-corr. =   -4366.825161
siesta:  Ion-electron =  -59316.294525
siesta:       Ion-ion =   20673.778848
siesta:       Ekinion =       0.000000
siesta:         Total =   -9175.907976

siesta: Atomic forces (eV/Ang):
siesta:      1   -3.499391  105.625830    0.000000
siesta:      2   16.157610    2.001949    0.000000
siesta:      3   17.587280 -391.301064    0.000000
siesta:      4    2.942931   -0.421895    0.000000
siesta:      5  -15.772839   -2.925877    0.000000
siesta:      6   -0.046204  413.882115    0.000000
siesta:      7   -0.005373   -4.668903    0.000000
siesta:      8   -2.983483   -3.873035    0.000000
siesta:      9    4.981383    3.325216    0.000000
siesta:     10   -3.107820   -3.054457    0.000000
siesta:     11   -3.506293    2.762589    0.000000
siesta:     12    3.490224   -1.746043    0.000000
siesta:     13    2.335345    3.164191    0.000000
siesta:     14   -3.469963   -0.878281    0.000000
siesta:     15   -0.865139 -409.837990    0.000000
siesta:     16    6.237886   -3.463896    0.000000
siesta:     17   -4.503636    3.457114    0.000000
siesta:     18   14.760935    2.303679    0.000000
siesta:     19  -13.536780    0.008801    0.000000
siesta:     20  -15.314683 -398.914420    0.000000
siesta:     21   -4.266836  108.392069    0.000000
siesta:     22    6.278992 -385.449866    0.000000
siesta:     23   -0.536577  405.206620    0.000000
siesta:     24    0.787869 -123.819740    0.000000
siesta:     25    7.831623  115.883386    0.000000
siesta:     26  -14.259120 -553.059561    0.000000
siesta:     27   16.917442 -546.640238    0.000000
siesta:     28    7.833055    0.151113    0.000000
siesta:     29    2.951025    1.693028    0.000000
siesta:     30   -1.546373    0.337164    0.000000
siesta:     31  -24.691944    0.674147    0.000000
siesta:     32  -31.087677 -549.324805    0.000000
siesta:     33   17.596358  555.311395    0.000000
siesta:     34    6.004348 -129.744522    0.000000
siesta:     35   34.025442  398.107164    0.000000
siesta:     36   22.568842    0.318589    0.000000
siesta:     37   -3.240390   -2.935008    0.000000
siesta:     38    2.226482   -0.055230    0.000000
siesta:     39   -0.986501   -0.673798    0.000000
siesta:     40    2.120827   -1.800011    0.000000
siesta:     41    0.038668    6.937142    0.000000
siesta:     42   -0.345947   -7.042038    0.000000
siesta:     43  -20.561594  404.789305    0.000000
siesta:     44    2.114922 -123.233960    0.000000
siesta:     45   -0.307265  404.836708    0.000000
siesta:     46    1.798495 -125.304093    0.000000
siesta:     47   26.987634  563.708884    0.000000
siesta:     48   21.922296   -2.965696    0.000000
siesta:     49   -0.972014    1.624748    0.000000
siesta:     50   -0.306178   -0.702562    0.000000
siesta:     51    0.442957    0.946078    0.000000
siesta:     52    1.911467   -2.823774    0.000000
siesta:     53  -36.443008  550.406265    0.000000
siesta:     54  -26.358138   -3.781500    0.000000
siesta:     55  -25.858213  557.361467    0.000000
siesta:     56    0.533373    2.782469    0.000000
siesta:     57   -0.294038   -3.409599    0.000000
siesta:     58    3.065332   -2.006243    0.000000
siesta:     59   -6.223523   -2.167019    0.000000
siesta:     60    3.287954   -0.187076    0.000000
siesta:     61    0.086008   -2.151157    0.000000
siesta:     62    1.810585   -0.074463    0.000000
siesta:     63   -5.657759   -3.041634    0.000000
siesta:     64   -1.110323    5.913286    0.000000
siesta:     65    0.444830   -6.074660    0.000000
siesta:     66   -6.718152    3.564221    0.000000
siesta:     67    1.620884   -0.437300    0.000000
siesta:     68   20.496983 -549.378295    0.000000
siesta:     69   -5.629449    2.781470    0.000000
siesta:     70    2.326884    1.941911    0.000000
siesta:     71   -2.514384  125.914381    0.000000
siesta:     72    2.051646 -406.776115    0.000000
siesta: ----------------------------------------
siesta:    Tot    0.049812   -0.031330    0.000000

siesta: Stress tensor (static) (eV/Ang**3):
siesta:    -0.470865   -0.000590    0.000000
siesta:    -0.000590   -1.606571    0.000000
siesta:     0.000000    0.000000   -0.000418

siesta: Cell volume =       1893.226884 Ang**3

siesta: Pressure (static):
siesta:                Solid            Molecule  Units
siesta:           0.00754349          0.10614143  Ry/Bohr**3
siesta:           0.69261803          9.74554478  eV/Ang**3
siesta:        1109.70842090      15614.25290638  kBar
(Free)E+ p_basis*V_orbitals  =       -9138.302754
(Free)Eharris+ p_basis*V_orbitals  =       -9138.299902

siesta: Electric dipole (a.u.)  =    0.000000    0.000000    0.000000
siesta: Electric dipole (Debye) =    0.000000    0.000000    0.000000

* Maximum dynamic memory allocated : Node    0 =   248 MB
* Maximum dynamic memory allocated : Node    1 =    86 MB
* Maximum dynamic memory allocated : Node    2 =    88 MB
* Maximum dynamic memory allocated : Node    3 =   233 MB
* Maximum dynamic memory allocated : Node    4 =   225 MB
* Maximum dynamic memory allocated : Node    5 =    81 MB
* Maximum dynamic memory allocated : Node    6 =    85 MB
* Maximum dynamic memory allocated : Node    7 =   208 MB

* Maximum memory occured during matrixMtoO                    

timer: CPU execution times:
timer:  Routine       Calls   Time/call    Tot.time        %
timer:  siesta            1  128727.513  128727.513   100.00
timer:  Setup             1       3.830       3.830     0.00
timer:  bands             3     244.285     732.855     0.57
timer:  writewave         1       0.046       0.046     0.00
timer:  KSV_init          1       0.007       0.007     0.00
timer:  IterMD            1  127985.593  127985.593    99.42
timer:  hsparse           1       0.516       0.516     0.00
timer:  overlap           1       7.217       7.217     0.01
timer:  IterSCF          37    3453.105  127764.879    99.25
timer:  kinefsm           2       3.752       7.505     0.01
timer:  nlefsm            2      20.034      40.068     0.03
timer:  DHSCF            38     114.840    4363.933     3.39
timer:  DHSCF1            1       0.990       0.990     0.00
timer:  DHSCF2            1      43.194      43.194     0.03
timer:  REORD           306       0.005       1.512     0.00
timer:  POISON           39       0.878      34.229     0.03
timer:  DHSCF3           38     112.558    4277.222     3.32
timer:  rhoofd           38      24.645     936.516     0.73
timer:  cellXC           38       3.269     124.223     0.10
timer:  vmat             38      52.969    2012.809     1.56
timer:  MolMec            2       0.000       0.000     0.00
timer:  diagon           37    3337.162  123474.978    95.92
timer:  c-eigval       8668       6.044   52393.690    40.70
timer:  c-buildHS      8668       0.053     462.589     0.36
timer:  cdiag         17215       6.203  106789.974    82.96
timer:  cdiag1        17215       0.385    6630.279     5.15
timer:  cdiag2        17215       1.768   30439.406    23.65
timer:  cdiag3        17215       3.745   64476.985    50.09
timer:  cdiag4        17215       0.155    2663.290     2.07
timer:  c-eigvec       8547       6.463   55236.276    42.91
timer:  c-buildD       8547       1.935   16534.272    12.84
timer:  DHSCF4            1      41.779      41.779     0.03
timer:  dfscf             1      38.974      38.974     0.03
timer:  overfsm           1       0.458       0.458     0.00
timer:  optical           1       4.609       4.609     0.00
  

elaps: ELAPSED times:
elaps:  Routine       Calls   Time/call    Tot.time        %
elaps:  siesta            1   16121.296   16121.296   100.00
elaps:  Setup             1       0.497       0.497     0.00
elaps:  bands             3      30.612      91.836     0.57
elaps:  writewave         1       0.006       0.006     0.00
elaps:  KSV_init          1       0.001       0.001     0.00
elaps:  IterMD            1   16028.357   16028.357    99.42
elaps:  hsparse           1       0.069       0.069     0.00
elaps:  overlap           1       0.906       0.906     0.01
elaps:  IterSCF          37     432.455   16000.852    99.25
elaps:  kinefsm           2       0.475       0.950     0.01
elaps:  nlefsm            2       2.540       5.079     0.03
elaps:  DHSCF            38      14.528     552.046     3.42
elaps:  DHSCF1            1       0.126       0.126     0.00
elaps:  DHSCF2            1       5.408       5.408     0.03
elaps:  REORD           306       0.001       0.200     0.00
elaps:  POISON           39       0.111       4.320     0.03
elaps:  DHSCF3           38      14.097     535.673     3.32
elaps:  rhoofd           38       6.920     262.960     1.63
elaps:  cellXC           38       0.409      15.548     0.10
elaps:  vmat             38       6.634     252.087     1.56
elaps:  MolMec            2       0.000       0.000     0.00
elaps:  diagon           37     417.937   15463.665    95.92
elaps:  c-eigval       8668       0.757    6561.349    40.70
elaps:  c-buildHS      8668       0.007      64.945     0.40
elaps:  cdiag         17215       0.769   13231.823    82.08
elaps:  cdiag1        17215       0.048     829.439     5.14
elaps:  cdiag2        17215       0.221    3812.771    23.65
elaps:  cdiag3        17215       0.470    8085.108    50.15
elaps:  cdiag4        17215       0.019     330.354     2.05
elaps:  c-eigvec       8547       0.794    6789.606    42.12
elaps:  c-buildD       8547       0.257    2198.530    13.64
elaps:  DHSCF4            1      10.747      10.747     0.07
elaps:  dfscf             1      10.183      10.183     0.06
elaps:  overfsm           1       0.061       0.061     0.00
elaps:  optical           1       0.001       0.001     0.00
  
>> End of run:  25-APR-2016   9:03:17
