Siesta Version:                                        siesta-3.2-pl-3
Architecture  : x86_64-unknown-linux-gnu--unknown
Compiler flags: mpiifort -g -O2 -fPIC -xSSE4.1 -fp-model source -shared-intel 
PARALLEL version

* Running on   12 nodes in parallel
>> Start of run:   6-APR-2016  14:43:05

                           ***********************       
                           *  WELCOME TO SIESTA  *       
                           ***********************       

reinit: Reading from standard input
************************** Dump of input data file ****************************
#(1) General system descriptors
SystemName            GRP_doping    # Descriptive name of the system
SystemLabel           GRP_doping    # Short name for naming files
%include STRUCT.fdf
%include KPT.fdf
%include BASIS.fdf
#%include TS.fdf # for transiesta calculation
#(4) DFT, Grid, SCF
XC.functional         GGA           # LDA or GGA (default = LDA)
XC.authors            PBE           # CA (Ceperley-Aldr) = PZ
                                    #    (Perdew-Zunger) - LDA - Default
                                    # PW92 (Perdew-Wang-92) - LDA
                                    # PBE (Perdew-Burke-Ernzerhof) - GGA
MeshCutoff            200.000000    Ry      # Default: 50.0 Ry ~ 0.444 Bohr
                                    #         100.0 Ry ~ 0.314 Bohr
MaxSCFIterations      500           # Default: 50
DM.MixingWeight       0.05          # Default: 0.25
DM.NumberPulay        10            # Default: 0
DM.PulayOnFile        F             # SystemLabel.P1, SystemLabel.P2
DM.Tolerance          1.d-4         # Default: 1.d-4
DM.UseSaveDM          .true.        # because of the bug
SCFMustConverge       .true.
NeglNonOverlapInt     F             # Default: F
Diag.ParallelOverK    .true.
#(5) Eigenvalue problem: order-N or diagonalization
SolutionMethod        Diagon        # or Transiesta
ElectronicTemperature 300.0 K       # Default: 300.0 K
#(6) Molecular dynamics and relaxations
#MD.TypeOfRun          CG            # Type of dynamics:
#MD.VariableCell       F
#MD.NumCGsteps         0           # 0 for single-point / 100 for gopt
#MD.MaxCGDispl         0.2 Bohr      # Default: 0.2 Bohr
#MD.MaxForceTol        0.02 eV/Ang   # Default: 0.04 eV/Ang
#MD.MaxStressTol       1.0 GPa       # Default: 1.0 GPa
************************** End of input data file *****************************

reinit: -----------------------------------------------------------------------
reinit: System Name: GRP_doping
reinit: -----------------------------------------------------------------------
reinit: System Label: GRP_doping                                                  
reinit: -----------------------------------------------------------------------

initatom: Reading input for the pseudopotentials and atomic orbitals ----------
 Species number:            1  Label: C Atomic number:           6
 Species number:            2  Label: N Atomic number:           7
Ground state valence configuration:   2s02  2p02
Reading pseudopotential information in formatted form from C.psf

Valence configuration for pseudopotential generation:
2s( 2.00) rc: 1.54
2p( 2.00) rc: 1.54
3d( 0.00) rc: 1.54
4f( 0.00) rc: 1.54
Ground state valence configuration:   2s02  2p03
Reading pseudopotential information in formatted form from N.psf

Valence configuration for pseudopotential generation:
2s( 2.00) rc: 1.48
2p( 3.00) rc: 1.48
3d( 0.00) rc: 1.48
4f( 0.00) rc: 1.48
For C, standard SIESTA heuristics set lmxkb to 3
 (one more than the basis l, including polarization orbitals).
Use PS.lmax or PS.KBprojectors blocks to override.
For N, standard SIESTA heuristics set lmxkb to 3
 (one more than the basis l, including polarization orbitals).
Use PS.lmax or PS.KBprojectors blocks to override.

<basis_specs>
===============================================================================
C                    Z=   6    Mass=  12.010        Charge= 0.17977+309
Lmxo=1 Lmxkb= 3    BasisType=split      Semic=F
L=0  Nsemic=0  Cnfigmx=2
          n=1  nzeta=2  polorb=0
            splnorm:   0.15000    
               vcte:    0.0000    
               rinn:    0.0000    
                rcs:    0.0000      0.0000    
            lambdas:    1.0000      1.0000    
L=1  Nsemic=0  Cnfigmx=2
          n=1  nzeta=2  polorb=1
            splnorm:   0.15000    
               vcte:    0.0000    
               rinn:    0.0000    
                rcs:    0.0000      0.0000    
            lambdas:    1.0000      1.0000    
-------------------------------------------------------------------------------
L=0  Nkbl=1  erefs: 0.17977+309
L=1  Nkbl=1  erefs: 0.17977+309
L=2  Nkbl=1  erefs: 0.17977+309
L=3  Nkbl=1  erefs: 0.17977+309
===============================================================================
</basis_specs>

atom: Called for C                     (Z =   6)

read_vps: Pseudopotential generation method:
read_vps: ATM3      Troullier-Martins                       
Total valence charge:    4.00000

read_vps: Pseudopotential includes a core correction:
read_vps: Pseudo-core for xc-correction

xc_check: Exchange-correlation functional:
xc_check: GGA Perdew, Burke & Ernzerhof 1996
V l=0 = -2*Zval/r beyond r=  1.5227
V l=1 = -2*Zval/r beyond r=  1.5227
V l=2 = -2*Zval/r beyond r=  1.5227
V l=3 = -2*Zval/r beyond r=  1.5038
All V_l potentials equal beyond r=  1.5227
This should be close to max(r_c) in ps generation
All pots = -2*Zval/r beyond r=  1.5227

VLOCAL1: 99.0% of the norm of Vloc inside     18.722 Ry
VLOCAL1: 99.9% of the norm of Vloc inside     42.668 Ry
atom: Maximum radius for 4*pi*r*r*local-pseudopot. charge    1.83678
atom: Maximum radius for r*vlocal+2*Zval:    1.58088
GHOST: No ghost state for L =  0
GHOST: No ghost state for L =  1
GHOST: No ghost state for L =  2
GHOST: No ghost state for L =  3

KBgen: Kleinman-Bylander projectors: 
   l= 0   rc=  1.704034   el= -1.009801   Ekb=  5.335044   kbcos=  0.316824
   l= 1   rc=  1.704034   el= -0.388707   Ekb= -3.785862   kbcos= -0.366464
   l= 2   rc=  1.791422   el=  0.001971   Ekb= -0.970471   kbcos= -0.009212
   l= 3   rc=  1.859892   el=  0.003065   Ekb= -0.399525   kbcos= -0.001223

KBgen: Total number of  Kleinman-Bylander projectors:   16
atom: -------------------------------------------------------------------------

atom: SANKEY-TYPE ORBITALS:
atom: Selected multiple-zeta basis: split     

SPLIT: Orbitals with angular momentum L= 0

SPLIT: Basis orbitals for state 2s

SPLIT: PAO cut-off radius determined from an
SPLIT: energy shift=  0.007350 Ry

   izeta = 1
                 lambda =    1.000000
                     rc =    4.632753
                 energy =   -1.002270
                kinetic =    0.855760
    potential(screened) =   -1.858031
       potential(ionic) =   -5.417575

   izeta = 2
                 rmatch =    3.431921
              splitnorm =    0.150000
                 energy =   -0.867111
                kinetic =    1.300804
    potential(screened) =   -2.167915
       potential(ionic) =   -5.962684

SPLIT: Orbitals with angular momentum L= 1

SPLIT: Basis orbitals for state 2p

SPLIT: PAO cut-off radius determined from an
SPLIT: energy shift=  0.007350 Ry

   izeta = 1
                 lambda =    1.000000
                     rc =    5.658549
                 energy =   -0.381140
                kinetic =    2.399701
    potential(screened) =   -2.780841
       potential(ionic) =   -6.206085

   izeta = 2
                 rmatch =    3.653288
              splitnorm =    0.150000
                 energy =   -0.249149
                kinetic =    3.542762
    potential(screened) =   -3.791911
       potential(ionic) =   -7.581078

POLgen: Perturbative polarization orbital with L=  2

POLgen: Polarization orbital for state 2p

   izeta = 1
                     rc =    5.658549
                 energy =    1.109913
                kinetic =    2.304789
    potential(screened) =   -1.194876
       potential(ionic) =   -4.013592
atom: Total number of Sankey-type orbitals: 13

atm_pop: Valence configuration (for local Pseudopot. screening):
 2s( 2.00)                                                            
 2p( 2.00)                                                            
Vna: chval, zval:    4.00000   4.00000

Vna:  Cut-off radius for the neutral-atom potential:   5.658549
comcore: Pseudo-core radius Rcore=  1.791422

atom: _________________________________________________________________________

<basis_specs>
===============================================================================
N                    Z=   7    Mass=  14.010        Charge= 0.17977+309
Lmxo=1 Lmxkb= 3    BasisType=split      Semic=F
L=0  Nsemic=0  Cnfigmx=2
          n=1  nzeta=2  polorb=0
            splnorm:   0.15000    
               vcte:    0.0000    
               rinn:    0.0000    
                rcs:    0.0000      0.0000    
            lambdas:    1.0000      1.0000    
L=1  Nsemic=0  Cnfigmx=2
          n=1  nzeta=2  polorb=1
            splnorm:   0.15000    
               vcte:    0.0000    
               rinn:    0.0000    
                rcs:    0.0000      0.0000    
            lambdas:    1.0000      1.0000    
-------------------------------------------------------------------------------
L=0  Nkbl=1  erefs: 0.17977+309
L=1  Nkbl=1  erefs: 0.17977+309
L=2  Nkbl=1  erefs: 0.17977+309
L=3  Nkbl=1  erefs: 0.17977+309
===============================================================================
</basis_specs>

atom: Called for N                     (Z =   7)

read_vps: Pseudopotential generation method:
read_vps: ATM3      Troullier-Martins                       
Total valence charge:    5.00000

read_vps: Pseudopotential includes a core correction:
read_vps: Pseudo-core for xc-correction

xc_check: Exchange-correlation functional:
xc_check: GGA Perdew, Burke & Ernzerhof 1996
V l=0 = -2*Zval/r beyond r=  1.4606
V l=1 = -2*Zval/r beyond r=  1.4606
V l=2 = -2*Zval/r beyond r=  1.4606
V l=3 = -2*Zval/r beyond r=  1.4606
All V_l potentials equal beyond r=  1.4606
This should be close to max(r_c) in ps generation
All pots = -2*Zval/r beyond r=  1.4606

VLOCAL1: 99.0% of the norm of Vloc inside     20.347 Ry
VLOCAL1: 99.9% of the norm of Vloc inside     46.372 Ry
atom: Maximum radius for 4*pi*r*r*local-pseudopot. charge    1.76189
atom: Maximum radius for r*vlocal+2*Zval:    1.53550
GHOST: No ghost state for L =  0
GHOST: No ghost state for L =  1
GHOST: No ghost state for L =  2
GHOST: No ghost state for L =  3

KBgen: Kleinman-Bylander projectors: 
   l= 0   rc=  1.634559   el= -1.363963   Ekb=  5.296955   kbcos=  0.335621
   l= 1   rc=  1.614250   el= -0.521451   Ekb= -5.259161   kbcos= -0.433408
   l= 2   rc=  1.718383   el=  0.001991   Ekb= -1.271464   kbcos= -0.007566
   l= 3   rc=  1.761893   el=  0.003093   Ekb= -0.494769   kbcos= -0.001015

KBgen: Total number of  Kleinman-Bylander projectors:   16
atom: -------------------------------------------------------------------------

atom: SANKEY-TYPE ORBITALS:
atom: Selected multiple-zeta basis: split     

SPLIT: Orbitals with angular momentum L= 0

SPLIT: Basis orbitals for state 2s

SPLIT: PAO cut-off radius determined from an
SPLIT: energy shift=  0.007350 Ry

   izeta = 1
                 lambda =    1.000000
                     rc =    4.071465
                 energy =   -1.356470
                kinetic =    1.176977
    potential(screened) =   -2.533447
       potential(ionic) =   -8.057990

   izeta = 2
                 rmatch =    2.905100
              splitnorm =    0.150000
                 energy =   -1.158343
                kinetic =    1.813009
    potential(screened) =   -2.971352
       potential(ionic) =   -8.901931

SPLIT: Orbitals with angular momentum L= 1

SPLIT: Basis orbitals for state 2p

SPLIT: PAO cut-off radius determined from an
SPLIT: energy shift=  0.007350 Ry

   izeta = 1
                 lambda =    1.000000
                     rc =    4.972977
                 energy =   -0.513884
                kinetic =    3.441732
    potential(screened) =   -3.955616
       potential(ionic) =   -9.287901

   izeta = 2
                 rmatch =    3.054066
              splitnorm =    0.150000
                 energy =   -0.318226
                kinetic =    5.125348
    potential(screened) =   -5.443573
       potential(ionic) =  -11.380999

POLgen: Perturbative polarization orbital with L=  2

POLgen: Polarization orbital for state 2p

   izeta = 1
                     rc =    4.972977
                 energy =    1.607437
                kinetic =    3.268125
    potential(screened) =   -1.660688
       potential(ionic) =   -5.973652
atom: Total number of Sankey-type orbitals: 13

atm_pop: Valence configuration (for local Pseudopot. screening):
 2s( 2.00)                                                            
 2p( 3.00)                                                            
Vna: chval, zval:    5.00000   5.00000

Vna:  Cut-off radius for the neutral-atom potential:   4.972977
comcore: Pseudo-core radius Rcore=  1.554824

atom: _________________________________________________________________________

prinput: Basis input ----------------------------------------------------------

PAO.BasisType split     

%block ChemicalSpeciesLabel
    1    6 C                       # Species index, atomic number, species label
    2    7 N                       # Species index, atomic number, species label
%endblock ChemicalSpeciesLabel

%block PAO.Basis                 # Define Basis set
C                     2                    # Species label, number of l-shells
 n=2   0   2                         # n, l, Nzeta 
   4.633      3.432   
   1.000      1.000   
 n=2   1   2 P   1                   # n, l, Nzeta, Polarization, NzetaPol
   5.659      3.653   
   1.000      1.000   
N                     2                    # Species label, number of l-shells
 n=2   0   2                         # n, l, Nzeta 
   4.071      2.905   
   1.000      1.000   
 n=2   1   2 P   1                   # n, l, Nzeta, Polarization, NzetaPol
   4.973      3.054   
   1.000      1.000   
%endblock PAO.Basis

prinput: ----------------------------------------------------------------------

coor:   Atomic-coordinates input format  =     Cartesian coordinates
coor:                                          (in Angstroms)

siesta: Atomic coordinates (Bohr) and species
siesta:      2.23554   1.32097   0.00000  1        1
siesta:      4.56367   2.66461   0.00000  1        2
siesta:     32.50328  21.48508   0.00000  1        3
siesta:     34.83141  22.82873   0.00000  1        4
siesta:     34.83116  17.45226   0.00000  1        5
siesta:     37.15930  18.79590   0.00000  1        6
siesta:     32.50291  13.41944   0.00000  1        7
siesta:     34.83104  14.76308   0.00000  1        8
siesta:     30.17465   9.38661   0.00000  1        9
siesta:     32.50278  10.73026   0.00000  1       10
siesta:     27.84639   5.35379   0.00000  1       11
siesta:     30.17453   6.69743   0.00000  1       12
siesta:     27.84714  21.48508   0.00000  1       13
siesta:     30.17527  22.82873   0.00000  1       14
siesta:      6.89168   1.32097   0.00000  1       15
siesta:      9.21981   2.66461   0.00000  1       16
siesta:     11.54782   1.32097   0.00000  1       17
siesta:     13.87595   2.66461   0.00000  1       18
siesta:     16.20396   1.32097   0.00000  1       19
siesta:     18.53210   2.66461   0.00000  1       20
siesta:     20.86199   1.32097   0.00000  1       21
siesta:     23.19013   2.66461   0.00000  1       22
siesta:     25.51813   1.32097   0.00000  1       23
siesta:     27.84627   2.66461   0.00000  1       24
siesta:      4.56380   5.35379   0.00000  1       25
siesta:      6.89193   6.69743   0.00000  1       26
siesta:      9.21994   5.35379   0.00000  1       27
siesta:     11.54807   6.69743   0.00000  1       28
siesta:     13.87608   5.35379   0.00000  1       29
siesta:     16.20421   6.69743   0.00000  1       30
siesta:     18.53411   5.35379   0.00000  1       31
siesta:     20.86224   6.69743   0.00000  1       32
siesta:     23.19025   5.35379   0.00000  1       33
siesta:     25.51838   6.69743   0.00000  1       34
siesta:      6.89205   9.38661   0.00000  1       35
siesta:      9.22019  10.73026   0.00000  1       36
siesta:     11.54820   9.38661   0.00000  1       37
siesta:     13.87633  10.73026   0.00000  1       38
siesta:     16.20434   9.38661   0.00000  1       39
siesta:      9.22031  13.41944   0.00000  1       40
siesta:     11.54845  14.76308   0.00000  1       41
siesta:     13.87645  13.41944   0.00000  1       42
siesta:     16.20459  14.76308   0.00000  1       43
siesta:     11.54857  17.45226   0.00000  1       44
siesta:     13.87670  18.79590   0.00000  1       45
siesta:     16.20471  17.45226   0.00000  1       46
siesta:     18.53284  18.79590   0.00000  1       47
siesta:     13.87683  21.48508   0.00000  1       48
siesta:     16.20496  22.82873   0.00000  1       49
siesta:     18.53486  21.48508   0.00000  1       50
siesta:     20.86299  22.82873   0.00000  1       51
siesta:     25.51851   9.38661   0.00000  1       52
siesta:     27.84664  10.73026   0.00000  1       53
siesta:     23.19063  13.41944   0.00000  1       54
siesta:     25.51876  14.76308   0.00000  1       55
siesta:     20.86274  17.45226   0.00000  1       56
siesta:     23.19088  18.79590   0.00000  1       57
siesta:     27.84677  13.41944   0.00000  1       58
siesta:     30.17490  14.76308   0.00000  1       59
siesta:     25.51888  17.45226   0.00000  1       60
siesta:     27.84702  18.79590   0.00000  1       61
siesta:     23.19100  21.48508   0.00000  1       62
siesta:     25.51913  22.82873   0.00000  1       63
siesta:     30.17503  17.45226   0.00000  1       64
siesta:     32.50316  18.79590   0.00000  1       65
siesta:     37.16131  21.48508   0.00000  1       66
siesta:     39.48945  22.82873   0.00000  1       67
siesta:     18.53247  10.73026   0.00000  2       68
siesta:     20.86237   9.38661   0.00000  2       69
siesta:     23.19050  10.73026   0.00000  2       70
siesta:     18.53448  13.41944   0.00000  2       71
siesta:     20.86262  14.76308   0.00000  2       72

siesta: System type = slab      

initatomlists: Number of atoms, orbitals, and projectors:     72   936  1152

siesta: ******************** Simulation parameters ****************************
siesta:
siesta: The following are some of the parameters of the simulation.
siesta: A complete list of the parameters used, including default values,
siesta: can be found in file out.fdf
siesta:
redata: Non-Collinear-spin run           =     F
redata: SpinPolarized (Up/Down) run      =     F
redata: Number of spin components        =     1
redata: Long output                      =     F
redata: Number of Atomic Species         =        2
redata: Charge density info will appear in .RHO file
redata: Write Mulliken Pop.              =     NO
redata: Mesh Cutoff                      =   200.0000  Ry
redata: Net charge of the system         =     0.0000 |e|
redata: Max. number of SCF Iter          =      500
redata: SCF convergence failure will abort job
redata: Performing Pulay mixing using    =    10 iterations
redata: Mix DM in first SCF step ?       =     F
redata: Write Pulay info on disk?        =     F
redata: Discard 1st Pulay DM after  kick =     F
redata: New DM Mixing Weight             =     0.0500
redata: New DM Occupancy tolerance       = 0.000000000001
redata: No kicks to SCF
redata: DM Mixing Weight for Kicks       =     0.5000
redata: DM Tolerance for SCF             =     0.000100
redata: Require Energy convergence for SCF =     F
redata: DM Energy tolerance for SCF      =     0.000100 eV
redata: Require Harris convergence for SCF =     F
redata: DM Harris energy tolerance for SCF =     0.000100 eV
redata: Using Saved Data (generic)   =     F
redata: Use continuation files for DM    =     T
redata: Neglect nonoverlap interactions  =     F
redata: Method of Calculation            =     Diagonalization
redata: Divide and Conquer               =     T
redata: Electronic Temperature           =     0.0019  Ry
redata: Fix the spin of the system       =     F
redata: Dynamics option                  =     Verlet MD run
redata: Initial MD time step             =        1
redata:   Final MD time step             =        1
redata: Length of MD time step           =     1.0000  fs
redata: Initial Temperature of MD run    =     0.0000  K
redata: Perform a MD quench              =     F
redata: ***********************************************************************
Total number of electrons:   293.000000
Total ionic charge:   293.000000

* ProcessorY, Blocksize:    3  24

k-point displ. along   1 input, could be:     0.50    0.00
k-point displ. along   2 input, could be:     0.50    0.00
 Kpoints in:          231 . Kpoints trimmed:          231

siesta: k-grid: Number of k-points =   231
siesta: k-grid: Cutoff (effective) =     5.000 Ang
siesta: k-grid: Supercell and displacements
siesta: k-grid:   21   0   0      0.500
siesta: k-grid:    0  21   0      0.500
siesta: k-grid:    0   0   1      0.000
Naive supercell factors:     2    2    2

superc: Internal auxiliary supercell:     2 x     2 x     2  =       8
superc: Number of atoms, orbitals, and projectors:    576   7488   9216

* Maximum dynamic memory allocated =     4 MB

siesta:                 ==============================
                            Begin MD step =      1
                        ==============================

superc: Internal auxiliary supercell:     2 x     2 x     2  =       8
superc: Number of atoms, orbitals, and projectors:    576   7488   9216

outcell: Unit cell vectors (Ang):
       14.785000    0.000000    0.000000
        7.393000   12.805052    0.000000
        0.000000    0.000000   10.000000

outcell: Cell vector modules (Ang)   :   14.785000   14.786000   10.000000
outcell: Cell angles (23,13,12) (deg):     90.0000     90.0000     60.0000
outcell: Cell volume (Ang**3)        :   1893.2269
New_DM. Step:     1
Initializing Density Matrix...

iodm: Reading Density Matrix from files

InitMesh: MESH =   120 x   120 x    90 =     1296000
InitMesh: Mesh cutoff (required, used) =   200.000   223.865 Ry

* Maximum dynamic memory allocated =   137 MB

stepf: Fermi-Dirac step function

siesta: Program's energy decomposition (eV):
siesta: Ebs     =     -4073.723531
siesta: Eions   =     19206.745292
siesta: Ena     =      4025.246226
siesta: Ekin    =      8249.575166
siesta: Enl     =      -938.553208
siesta: DEna    =      -265.727657
siesta: DUscf   =        24.876202
siesta: DUext   =         0.000000
siesta: Exc     =     -4156.769618
siesta: eta*DQ  =         0.000000
siesta: Emadel  =         0.000000
siesta: Emeta   =         0.000000
siesta: Emolmec =         0.000000
siesta: Ekinion =         0.000000
siesta: Eharris =    -12268.098189
siesta: Etot    =    -12268.098182
siesta: FreeEng =    -12268.098182

siesta: iscf   Eharris(eV)      E_KS(eV)   FreeEng(eV)   dDmax  Ef(eV)
siesta:    1   -12268.0982   -12268.0982   -12268.0982  0.0001 -3.6476
timer: Routine,Calls,Time,% = IterSCF        1    1172.357  98.88
elaps: Routine,Calls,Wall,% = IterSCF        1      97.933  98.87
siesta:    2   -12268.0983   -12268.0982   -12268.1172  0.0005 -3.6477
siesta:    3   -12268.0982   -12268.0982   -12268.1171  0.0000 -3.6476

siesta: E_KS(eV) =           -12268.0982

siesta: E_KS - E_eggbox =    -12268.0982

siesta: Atomic forces (eV/Ang):
----------------------------------------
   Tot    0.266624   -0.221768    0.000000
----------------------------------------
   Max    1.526623
   Res    0.312418    sqrt( Sum f_i^2 / 3N )
----------------------------------------
   Max    1.526623    constrained

Stress-tensor-Voigt (kbar):      -21.18      -20.70        0.06       -0.16        0.00        0.00
(Free)E + p*V (eV/cell)   -12251.6496
Target enthalpy (eV/cell)   -12268.1172

siesta: Stress tensor (static) (eV/Ang**3):
        -0.013216   -0.000101    0.000000
        -0.000101   -0.012919    0.000000
         0.000000    0.000000    0.000041

siesta: Pressure (static):         13.93610510  kBar

siesta: Stress tensor (total) (eV/Ang**3):
        -0.013216   -0.000101    0.000000
        -0.000101   -0.012919    0.000000
         0.000000    0.000000    0.000041

siesta: Pressure (total):         13.93610510  kBar

siesta: Temp_ion =       0.000 K

* Maximum dynamic memory allocated =   231 MB

siesta: Program's energy decomposition (eV):
siesta: Ebs     =     -4073.718127
siesta: Eions   =     19206.745292
siesta: Ena     =      4025.246226
siesta: Ekin    =      8249.578550
siesta: Enl     =      -938.554227
siesta: DEna    =      -265.728963
siesta: DUscf   =        24.875766
siesta: DUext   =         0.000000
siesta: Exc     =     -4156.770243
siesta: eta*DQ  =         0.000000
siesta: Emadel  =         0.000000
siesta: Emeta   =         0.000000
siesta: Emolmec =         0.000000
siesta: Ekinion =         0.000000
siesta: Eharris =    -12268.098189
siesta: Etot    =    -12268.098184
siesta: FreeEng =    -12268.117157

siesta: Final energy (eV):
siesta:  Band Struct. =   -4073.718127
siesta:       Kinetic =    8249.578550
siesta:       Hartree =   24088.675952
siesta:    Ext. field =       0.000000
siesta:   Exch.-corr. =   -4156.770243
siesta:  Ion-electron =  -55820.649496
siesta:       Ion-ion =   15371.067053
siesta:       Ekinion =       0.000000
siesta:         Total =  -12268.098184

siesta: Atomic forces (eV/Ang):
siesta:      1   -0.084173   -0.070511    0.000000
siesta:      2    0.099410    0.055759    0.000000
siesta:      3    0.122544   -0.039461    0.000000
siesta:      4    0.016414   -0.119371    0.000000
siesta:      5    0.033875    0.106076    0.000000
siesta:      6   -0.106235    0.052749    0.000000
siesta:      7    0.087278   -0.051621    0.000000
siesta:      8    0.049638   -0.080985    0.000000
siesta:      9   -0.035193   -0.370283    0.000000
siesta:     10    0.001230    0.082173    0.000000
siesta:     11    0.092476    0.255133    0.000000
siesta:     12   -0.044141    0.060550    0.000000
siesta:     13    0.011678    0.083770    0.000000
siesta:     14   -0.053745    0.093946    0.000000
siesta:     15   -0.001870    0.090690    0.000000
siesta:     16   -0.110421    0.053182    0.000000
siesta:     17    0.070044   -0.016208    0.000000
siesta:     18   -0.004975   -0.055657    0.000000
siesta:     19   -0.028058   -0.076930    0.000000
siesta:     20    0.364233    0.021958    0.000000
siesta:     21   -0.036784    0.039278    0.000000
siesta:     22   -0.340124   -0.027533    0.000000
siesta:     23    0.083619   -0.029618    0.000000
siesta:     24    0.011065   -0.094055    0.000000
siesta:     25    0.092619   -0.076325    0.000000
siesta:     26   -0.010182   -0.118466    0.000000
siesta:     27   -0.105112   -0.075702    0.000000
siesta:     28    0.044433    0.029591    0.000000
siesta:     29   -0.154796    0.286561    0.000000
siesta:     30    0.006692    0.982154    0.000000
siesta:     31    0.829881    0.404265    0.000000
siesta:     32   -0.184903   -0.296518    0.000000
siesta:     33   -0.700487    0.513880    0.000000
siesta:     34    0.062491    0.768976    0.000000
siesta:     35    0.036017    0.037997    0.000000
siesta:     36   -0.049721    0.025265    0.000000
siesta:     37    0.178015   -0.304284    0.000000
siesta:     38    0.843841   -0.514271    0.000000
siesta:     39   -0.354785   -0.222173    0.000000
siesta:     40   -0.067413   -0.016371    0.000000
siesta:     41    0.182940    0.272014    0.000000
siesta:     42    0.796541    0.533783    0.000000
siesta:     43   -0.329089   -0.005263    0.000000
siesta:     44    0.050907   -0.049526    0.000000
siesta:     45   -0.191629   -0.277660    0.000000
siesta:     46    0.110222   -0.882796    0.000000
siesta:     47    0.737232   -0.333448    0.000000
siesta:     48    0.063257    0.050571    0.000000
siesta:     49   -0.040238    0.062332    0.000000
siesta:     50    0.239809   -0.060427    0.000000
siesta:     51    0.018413   -0.060250    0.000000
siesta:     52    0.000157   -0.590664    0.000000
siesta:     53   -0.806272    0.050667    0.000000
siesta:     54   -1.478803   -0.869316    0.000000
siesta:     55   -0.110188   -0.063684    0.000000
siesta:     56   -0.527849    0.284356    0.000000
siesta:     57   -0.363055   -0.719126    0.000000
siesta:     58    0.001287    0.211035    0.000000
siesta:     59   -0.179280    0.048866    0.000000
siesta:     60    0.197483   -0.123270    0.000000
siesta:     61   -0.052317   -0.178857    0.000000
siesta:     62   -0.325637    0.131878    0.000000
siesta:     63    0.065183   -0.028927    0.000000
siesta:     64    0.019103   -0.003388    0.000000
siesta:     65    0.020099    0.013696    0.000000
siesta:     66   -0.142853   -0.063584    0.000000
siesta:     67    0.016685    0.051462    0.000000
siesta:     68    0.637524    0.355246    0.000000
siesta:     69    0.699332    0.130097    0.000000
siesta:     70   -0.961480    1.484773    0.000000
siesta:     71    0.477592    0.546652    0.000000
siesta:     72    0.777171   -1.526623    0.000000
siesta: ----------------------------------------
siesta:    Tot    0.266624   -0.221768    0.000000

siesta: Stress tensor (static) (eV/Ang**3):
siesta:    -0.013216   -0.000101    0.000000
siesta:    -0.000101   -0.012919    0.000000
siesta:     0.000000    0.000000    0.000041

siesta: Cell volume =       1893.226895 Ang**3

siesta: Pressure (static):
siesta:                Solid            Molecule  Units
siesta:           0.00009473          0.00015790  Ry/Bohr**3
siesta:           0.00869814          0.01449820  eV/Ang**3
siesta:          13.93610510         23.22892572  kBar
(Free)E+ p_basis*V_orbitals  =      -12238.094356
(Free)Eharris+ p_basis*V_orbitals  =      -12238.094363

siesta: Electric dipole (a.u.)  =    0.000000    0.000000    0.000000
siesta: Electric dipole (Debye) =    0.000000    0.000000    0.000000

* Maximum dynamic memory allocated : Node    0 =   231 MB
* Maximum dynamic memory allocated : Node    1 =   145 MB
* Maximum dynamic memory allocated : Node    2 =   146 MB
* Maximum dynamic memory allocated : Node    3 =   221 MB
* Maximum dynamic memory allocated : Node    4 =   225 MB
* Maximum dynamic memory allocated : Node    5 =   140 MB
* Maximum dynamic memory allocated : Node    6 =   141 MB
* Maximum dynamic memory allocated : Node    7 =   218 MB
* Maximum dynamic memory allocated : Node    8 =   228 MB
* Maximum dynamic memory allocated : Node    9 =   141 MB
* Maximum dynamic memory allocated : Node   10 =   142 MB
* Maximum dynamic memory allocated : Node   11 =   221 MB

* Maximum memory occured during cdiag                         

timer: CPU execution times:
timer:  Routine       Calls   Time/call    Tot.time        %
timer:  siesta            1    3519.047    3519.047   100.00
timer:  Setup             1       3.355       3.355     0.10
timer:  bands             1       0.018       0.018     0.00
timer:  writewave         1       0.019       0.019     0.00
timer:  KSV_init          1       0.008       0.008     0.00
timer:  IterMD            1    3509.249    3509.249    99.72
timer:  hsparse           1       0.183       0.183     0.01
timer:  overlap           1       5.357       5.357     0.15
timer:  IterSCF           3    1129.242    3387.725    96.27
timer:  kinefsm           2       2.716       5.431     0.15
timer:  nlefsm            2      18.912      37.824     1.07
timer:  DHSCF             4      72.146     288.582     8.20
timer:  DHSCF1            1       0.900       0.900     0.03
timer:  DHSCF2            1      24.171      24.171     0.69
timer:  REORD            34       0.003       0.107     0.00
timer:  POISON            5       0.469       2.345     0.07
timer:  DHSCF3            4      60.494     241.975     6.88
timer:  rhoofd            4      11.997      47.989     1.36
timer:  cellXC            4       2.445       9.779     0.28
timer:  vmat              4      29.114     116.456     3.31
timer:  MolMec            2       0.000       0.000     0.00
timer:  diagon            3    1045.875    3137.626    89.16
timer:  cdiag           120      17.893    2066.221    58.72
timer:  cdiag1          120       0.877     101.304     2.88
timer:  cdiag2          120       3.046     351.630     9.99
timer:  cdiag3          120      13.766    1589.650    45.17
timer:  cdiag4          120       0.202      23.291     0.66
timer:  DHSCF4            1      21.479      21.479     0.61
timer:  dfscf             1      20.033      20.033     0.57
timer:  overfsm           1       0.266       0.266     0.01
timer:  optical           1       5.901       5.901     0.17
  

elaps: ELAPSED times:
elaps:  Routine       Calls   Time/call    Tot.time        %
elaps:  siesta            1     293.974     293.974   100.00
elaps:  Setup             1       0.280       0.280     0.10
elaps:  bands             1       0.001       0.001     0.00
elaps:  writewave         1       0.002       0.002     0.00
elaps:  KSV_init          1       0.000       0.000     0.00
elaps:  IterMD            1     293.155     293.155    99.72
elaps:  hsparse           1       0.018       0.018     0.01
elaps:  overlap           1       0.707       0.707     0.24
elaps:  IterSCF           3      94.333     282.998    96.27
elaps:  kinefsm           2       0.359       0.719     0.24
elaps:  nlefsm            2       1.801       3.603     1.23
elaps:  DHSCF             4       6.409      25.638     8.72
elaps:  DHSCF1            1       0.077       0.077     0.03
elaps:  DHSCF2            1       2.018       2.018     0.69
elaps:  REORD            34       0.000       0.010     0.00
elaps:  POISON            5       0.039       0.197     0.07
elaps:  DHSCF3            4       5.053      20.212     6.88
elaps:  rhoofd            4       1.775       7.099     2.41
elaps:  cellXC            4       0.204       0.817     0.28
elaps:  vmat              4       2.432       9.727     3.31
elaps:  MolMec            2       0.000       0.000     0.00
elaps:  diagon            3      87.369     262.106    89.16
elaps:  cdiag           120       1.481     177.665    60.44
elaps:  cdiag1          120       0.070       8.380     2.85
elaps:  cdiag2          120       0.244      29.240     9.95
elaps:  cdiag3          120       1.149     137.862    46.90
elaps:  cdiag4          120       0.018       2.157     0.73
elaps:  DHSCF4            1       3.325       3.325     1.13
elaps:  dfscf             1       3.136       3.136     1.07
elaps:  overfsm           1       0.027       0.027     0.01
elaps:  optical           1       0.000       0.000     0.00
  
>> End of run:   6-APR-2016  14:47:59
