Siesta Version:                                        siesta-3.2-pl-3
Architecture  : x86_64-unknown-linux-gnu--unknown
Compiler flags: mpiifort -g -O2 -fPIC -xSSE4.1 -fp-model source -shared-intel 
PARALLEL version

* Running on   12 nodes in parallel
>> Start of run:   2-MAY-2016   7:24:25

                           ***********************       
                           *  WELCOME TO SIESTA  *       
                           ***********************       

reinit: Reading from standard input
************************** Dump of input data file ****************************
#(1) General system descriptors
SystemName            GRP_doping    # Descriptive name of the system
SystemLabel           GRP_doping    # Short name for naming files
%include STRUCT.fdf
%include KPT.fdf
%include BASIS.fdf
#%include TS.fdf # for transiesta calculation
#(4) DFT, Grid, SCF
XC.functional         GGA           # LDA or GGA (default = LDA)
XC.authors            PBE           # CA (Ceperley-Aldr) = PZ
                                    #    (Perdew-Zunger) - LDA - Default
                                    # PW92 (Perdew-Wang-92) - LDA
                                    # PBE (Perdew-Burke-Ernzerhof) - GGA
MeshCutoff            200.000000    Ry      # Default: 50.0 Ry ~ 0.444 Bohr
                                    #         100.0 Ry ~ 0.314 Bohr
MaxSCFIterations      500           # Default: 50
DM.MixingWeight       0.05          # Default: 0.25
DM.NumberPulay        10            # Default: 0
DM.PulayOnFile        F             # SystemLabel.P1, SystemLabel.P2
DM.Tolerance          1.d-4         # Default: 1.d-4
DM.UseSaveDM          .true.        # because of the bug
SCFMustConverge       .true.
NeglNonOverlapInt     F             # Default: F
#(5) Eigenvalue problem: order-N or diagonalization
SolutionMethod        Diagon        # or Transiesta
ElectronicTemperature 300.0 K       # Default: 300.0 K
#(6) Molecular dynamics and relaxations
#MD.TypeOfRun          CG            # Type of dynamics:
#MD.VariableCell       F
#MD.NumCGsteps         0           # 0 for single-point / 100 for gopt
#MD.MaxCGDispl         0.2 Bohr      # Default: 0.2 Bohr
#MD.MaxForceTol        0.02 eV/Ang   # Default: 0.04 eV/Ang
#MD.MaxStressTol       1.0 GPa       # Default: 1.0 GPa
# Geometry Constraints
#%block GeometryConstraints
#	position from 1 to 44
#%endblock GeometryConstraints
BandLinesScale   pi/a
%block BandLines
 1   0.00000000  0.00000000  0.00000000
50   0.00000000  0.07809418  0.00000000
50   0.04509075  0.07809242  0.00000000
20   0.00000000  0.00000000  0.00000000
%endblock BandLines
************************** End of input data file *****************************

reinit: -----------------------------------------------------------------------
reinit: System Name: GRP_doping
reinit: -----------------------------------------------------------------------
reinit: System Label: GRP_doping                                                  
reinit: -----------------------------------------------------------------------

initatom: Reading input for the pseudopotentials and atomic orbitals ----------
 Species number:            1  Label: N Atomic number:           7
 Species number:            2  Label: C Atomic number:           6
Ground state valence configuration:   2s02  2p03
Reading pseudopotential information in formatted form from N.psf

Valence configuration for pseudopotential generation:
2s( 2.00) rc: 1.48
2p( 3.00) rc: 1.48
3d( 0.00) rc: 1.48
4f( 0.00) rc: 1.48
Ground state valence configuration:   2s02  2p02
Reading pseudopotential information in formatted form from C.psf

Valence configuration for pseudopotential generation:
2s( 2.00) rc: 1.54
2p( 2.00) rc: 1.54
3d( 0.00) rc: 1.54
4f( 0.00) rc: 1.54
For N, standard SIESTA heuristics set lmxkb to 3
 (one more than the basis l, including polarization orbitals).
Use PS.lmax or PS.KBprojectors blocks to override.
For C, standard SIESTA heuristics set lmxkb to 3
 (one more than the basis l, including polarization orbitals).
Use PS.lmax or PS.KBprojectors blocks to override.

<basis_specs>
===============================================================================
N                    Z=   7    Mass=  14.010        Charge= 0.17977+309
Lmxo=1 Lmxkb= 3    BasisType=split      Semic=F
L=0  Nsemic=0  Cnfigmx=2
          n=1  nzeta=2  polorb=0
            splnorm:   0.15000    
               vcte:    0.0000    
               rinn:    0.0000    
                rcs:    0.0000      0.0000    
            lambdas:    1.0000      1.0000    
L=1  Nsemic=0  Cnfigmx=2
          n=1  nzeta=2  polorb=1
            splnorm:   0.15000    
               vcte:    0.0000    
               rinn:    0.0000    
                rcs:    0.0000      0.0000    
            lambdas:    1.0000      1.0000    
-------------------------------------------------------------------------------
L=0  Nkbl=1  erefs: 0.17977+309
L=1  Nkbl=1  erefs: 0.17977+309
L=2  Nkbl=1  erefs: 0.17977+309
L=3  Nkbl=1  erefs: 0.17977+309
===============================================================================
</basis_specs>

atom: Called for N                     (Z =   7)

read_vps: Pseudopotential generation method:
read_vps: ATM3      Troullier-Martins                       
Total valence charge:    5.00000

read_vps: Pseudopotential includes a core correction:
read_vps: Pseudo-core for xc-correction

xc_check: Exchange-correlation functional:
xc_check: GGA Perdew, Burke & Ernzerhof 1996
V l=0 = -2*Zval/r beyond r=  1.4606
V l=1 = -2*Zval/r beyond r=  1.4606
V l=2 = -2*Zval/r beyond r=  1.4606
V l=3 = -2*Zval/r beyond r=  1.4606
All V_l potentials equal beyond r=  1.4606
This should be close to max(r_c) in ps generation
All pots = -2*Zval/r beyond r=  1.4606

VLOCAL1: 99.0% of the norm of Vloc inside     20.347 Ry
VLOCAL1: 99.9% of the norm of Vloc inside     46.372 Ry
atom: Maximum radius for 4*pi*r*r*local-pseudopot. charge    1.76189
atom: Maximum radius for r*vlocal+2*Zval:    1.53550
GHOST: No ghost state for L =  0
GHOST: No ghost state for L =  1
GHOST: No ghost state for L =  2
GHOST: No ghost state for L =  3

KBgen: Kleinman-Bylander projectors: 
   l= 0   rc=  1.634559   el= -1.363963   Ekb=  5.296955   kbcos=  0.335621
   l= 1   rc=  1.614250   el= -0.521451   Ekb= -5.259161   kbcos= -0.433408
   l= 2   rc=  1.718383   el=  0.001991   Ekb= -1.271464   kbcos= -0.007566
   l= 3   rc=  1.761893   el=  0.003093   Ekb= -0.494769   kbcos= -0.001015

KBgen: Total number of  Kleinman-Bylander projectors:   16
atom: -------------------------------------------------------------------------

atom: SANKEY-TYPE ORBITALS:
atom: Selected multiple-zeta basis: split     

SPLIT: Orbitals with angular momentum L= 0

SPLIT: Basis orbitals for state 2s

SPLIT: PAO cut-off radius determined from an
SPLIT: energy shift=  0.007350 Ry

   izeta = 1
                 lambda =    1.000000
                     rc =    4.071465
                 energy =   -1.356470
                kinetic =    1.176977
    potential(screened) =   -2.533447
       potential(ionic) =   -8.057990

   izeta = 2
                 rmatch =    2.905100
              splitnorm =    0.150000
                 energy =   -1.158343
                kinetic =    1.813009
    potential(screened) =   -2.971352
       potential(ionic) =   -8.901931

SPLIT: Orbitals with angular momentum L= 1

SPLIT: Basis orbitals for state 2p

SPLIT: PAO cut-off radius determined from an
SPLIT: energy shift=  0.007350 Ry

   izeta = 1
                 lambda =    1.000000
                     rc =    4.972977
                 energy =   -0.513884
                kinetic =    3.441732
    potential(screened) =   -3.955616
       potential(ionic) =   -9.287901

   izeta = 2
                 rmatch =    3.054066
              splitnorm =    0.150000
                 energy =   -0.318226
                kinetic =    5.125348
    potential(screened) =   -5.443573
       potential(ionic) =  -11.380999

POLgen: Perturbative polarization orbital with L=  2

POLgen: Polarization orbital for state 2p

   izeta = 1
                     rc =    4.972977
                 energy =    1.607437
                kinetic =    3.268125
    potential(screened) =   -1.660688
       potential(ionic) =   -5.973652
atom: Total number of Sankey-type orbitals: 13

atm_pop: Valence configuration (for local Pseudopot. screening):
 2s( 2.00)                                                            
 2p( 3.00)                                                            
Vna: chval, zval:    5.00000   5.00000

Vna:  Cut-off radius for the neutral-atom potential:   4.972977
comcore: Pseudo-core radius Rcore=  1.554824

atom: _________________________________________________________________________

<basis_specs>
===============================================================================
C                    Z=   6    Mass=  12.010        Charge= 0.17977+309
Lmxo=1 Lmxkb= 3    BasisType=split      Semic=F
L=0  Nsemic=0  Cnfigmx=2
          n=1  nzeta=2  polorb=0
            splnorm:   0.15000    
               vcte:    0.0000    
               rinn:    0.0000    
                rcs:    0.0000      0.0000    
            lambdas:    1.0000      1.0000    
L=1  Nsemic=0  Cnfigmx=2
          n=1  nzeta=2  polorb=1
            splnorm:   0.15000    
               vcte:    0.0000    
               rinn:    0.0000    
                rcs:    0.0000      0.0000    
            lambdas:    1.0000      1.0000    
-------------------------------------------------------------------------------
L=0  Nkbl=1  erefs: 0.17977+309
L=1  Nkbl=1  erefs: 0.17977+309
L=2  Nkbl=1  erefs: 0.17977+309
L=3  Nkbl=1  erefs: 0.17977+309
===============================================================================
</basis_specs>

atom: Called for C                     (Z =   6)

read_vps: Pseudopotential generation method:
read_vps: ATM3      Troullier-Martins                       
Total valence charge:    4.00000

read_vps: Pseudopotential includes a core correction:
read_vps: Pseudo-core for xc-correction

xc_check: Exchange-correlation functional:
xc_check: GGA Perdew, Burke & Ernzerhof 1996
V l=0 = -2*Zval/r beyond r=  1.5227
V l=1 = -2*Zval/r beyond r=  1.5227
V l=2 = -2*Zval/r beyond r=  1.5227
V l=3 = -2*Zval/r beyond r=  1.5038
All V_l potentials equal beyond r=  1.5227
This should be close to max(r_c) in ps generation
All pots = -2*Zval/r beyond r=  1.5227

VLOCAL1: 99.0% of the norm of Vloc inside     18.722 Ry
VLOCAL1: 99.9% of the norm of Vloc inside     42.668 Ry
atom: Maximum radius for 4*pi*r*r*local-pseudopot. charge    1.83678
atom: Maximum radius for r*vlocal+2*Zval:    1.58088
GHOST: No ghost state for L =  0
GHOST: No ghost state for L =  1
GHOST: No ghost state for L =  2
GHOST: No ghost state for L =  3

KBgen: Kleinman-Bylander projectors: 
   l= 0   rc=  1.704034   el= -1.009801   Ekb=  5.335044   kbcos=  0.316824
   l= 1   rc=  1.704034   el= -0.388707   Ekb= -3.785862   kbcos= -0.366464
   l= 2   rc=  1.791422   el=  0.001971   Ekb= -0.970471   kbcos= -0.009212
   l= 3   rc=  1.859892   el=  0.003065   Ekb= -0.399525   kbcos= -0.001223

KBgen: Total number of  Kleinman-Bylander projectors:   16
atom: -------------------------------------------------------------------------

atom: SANKEY-TYPE ORBITALS:
atom: Selected multiple-zeta basis: split     

SPLIT: Orbitals with angular momentum L= 0

SPLIT: Basis orbitals for state 2s

SPLIT: PAO cut-off radius determined from an
SPLIT: energy shift=  0.007350 Ry

   izeta = 1
                 lambda =    1.000000
                     rc =    4.632753
                 energy =   -1.002270
                kinetic =    0.855760
    potential(screened) =   -1.858031
       potential(ionic) =   -5.417575

   izeta = 2
                 rmatch =    3.431921
              splitnorm =    0.150000
                 energy =   -0.867111
                kinetic =    1.300804
    potential(screened) =   -2.167915
       potential(ionic) =   -5.962684

SPLIT: Orbitals with angular momentum L= 1

SPLIT: Basis orbitals for state 2p

SPLIT: PAO cut-off radius determined from an
SPLIT: energy shift=  0.007350 Ry

   izeta = 1
                 lambda =    1.000000
                     rc =    5.658549
                 energy =   -0.381140
                kinetic =    2.399701
    potential(screened) =   -2.780841
       potential(ionic) =   -6.206085

   izeta = 2
                 rmatch =    3.653288
              splitnorm =    0.150000
                 energy =   -0.249149
                kinetic =    3.542762
    potential(screened) =   -3.791911
       potential(ionic) =   -7.581078

POLgen: Perturbative polarization orbital with L=  2

POLgen: Polarization orbital for state 2p

   izeta = 1
                     rc =    5.658549
                 energy =    1.109913
                kinetic =    2.304789
    potential(screened) =   -1.194876
       potential(ionic) =   -4.013592
atom: Total number of Sankey-type orbitals: 13

atm_pop: Valence configuration (for local Pseudopot. screening):
 2s( 2.00)                                                            
 2p( 2.00)                                                            
Vna: chval, zval:    4.00000   4.00000

Vna:  Cut-off radius for the neutral-atom potential:   5.658549
comcore: Pseudo-core radius Rcore=  1.791422

atom: _________________________________________________________________________

prinput: Basis input ----------------------------------------------------------

PAO.BasisType split     

%block ChemicalSpeciesLabel
    1    7 N                       # Species index, atomic number, species label
    2    6 C                       # Species index, atomic number, species label
%endblock ChemicalSpeciesLabel

%block PAO.Basis                 # Define Basis set
N                     2                    # Species label, number of l-shells
 n=2   0   2                         # n, l, Nzeta 
   4.071      2.905   
   1.000      1.000   
 n=2   1   2 P   1                   # n, l, Nzeta, Polarization, NzetaPol
   4.973      3.054   
   1.000      1.000   
C                     2                    # Species label, number of l-shells
 n=2   0   2                         # n, l, Nzeta 
   4.633      3.432   
   1.000      1.000   
 n=2   1   2 P   1                   # n, l, Nzeta, Polarization, NzetaPol
   5.659      3.653   
   1.000      1.000   
%endblock PAO.Basis

prinput: ----------------------------------------------------------------------

coor:   Atomic-coordinates input format  =     Fractional

siesta: Atomic coordinates (Bohr) and species
siesta:      2.30256  38.89134   0.00000  1        1
siesta:      2.30256   6.62836   0.00000  1        2
siesta:      4.63094  10.66124   0.00000  1        3
siesta:      6.95932  17.38257   0.00000  1        4
siesta:      9.28770  21.41544   0.00000  1        5
siesta:     -4.68258  13.34970   0.00000  1        6
siesta:     -0.02582  21.41544   0.00000  1        7
siesta:      2.30256  25.44831   0.00000  1        8
siesta:     -7.01096  17.38257   0.00000  1        9
siesta:     -9.33934  18.72698   0.00000  1       10
siesta:      4.63094  29.48119   0.00000  1       11
siesta:     -0.02582  26.79272   0.00000  1       12
siesta:     -0.02582  29.48119   0.00000  1       13
siesta:     -4.68258  26.79272   0.00000  1       14
siesta:      2.30256  30.82560   0.00000  1       15
siesta:     -2.35420  30.82560   0.00000  1       16
siesta:     -0.02582  34.85847   0.00000  1       17
siesta:     -0.02582   2.59549   0.00000  2       18
siesta:     -0.02582   5.28395   0.00000  2       19
siesta:     -2.35420  38.89134   0.00000  2       20
siesta:     -2.35420  41.57980   0.00000  2       21
siesta:      2.30256  41.57980   0.00000  2       22
siesta:      4.63094  34.85847   0.00000  2       23
siesta:      4.63094  37.54693   0.00000  2       24
siesta:      6.95932  30.82560   0.00000  2       25
siesta:      6.95932  33.51406   0.00000  2       26
siesta:      9.28770  26.79272   0.00000  2       27
siesta:      9.28770  29.48119   0.00000  2       28
siesta:     -4.68258  34.85847   0.00000  2       29
siesta:     -4.68258  37.54693   0.00000  2       30
siesta:      2.30256   9.31683   0.00000  2       31
siesta:      4.63094  13.34970   0.00000  2       32
siesta:      6.95932  14.69411   0.00000  2       33
siesta:      9.28770  18.72698   0.00000  2       34
siesta:     11.61608  22.75985   0.00000  2       35
siesta:     11.61608  25.44831   0.00000  2       36
siesta:     -2.35420   6.62836   0.00000  2       37
siesta:     -2.35420   9.31683   0.00000  2       38
siesta:     -0.02582  10.66124   0.00000  2       39
siesta:     -0.02582  13.34970   0.00000  2       40
siesta:      2.30256  14.69411   0.00000  2       41
siesta:      2.30256  17.38257   0.00000  2       42
siesta:      4.63094  18.72698   0.00000  2       43
siesta:      4.63094  21.41544   0.00000  2       44
siesta:      6.95932  22.75985   0.00000  2       45
siesta:      6.95932  25.44831   0.00000  2       46
siesta:     -4.68258  10.66124   0.00000  2       47
siesta:     -2.35420  14.69411   0.00000  2       48
siesta:     -2.35420  17.38257   0.00000  2       49
siesta:     -0.02582  18.72698   0.00000  2       50
siesta:      2.30256  22.75985   0.00000  2       51
siesta:     -7.01096  14.69411   0.00000  2       52
siesta:     -4.68258  18.72698   0.00000  2       53
siesta:     -4.68258  21.41544   0.00000  2       54
siesta:     -2.35420  22.75985   0.00000  2       55
siesta:     -2.35420  25.44831   0.00000  2       56
siesta:     -9.33934  21.41544   0.00000  2       57
siesta:     -7.01096  22.75985   0.00000  2       58
siesta:     -7.01096  25.44831   0.00000  2       59
siesta:    -11.66772  22.75985   0.00000  2       60
siesta:    -11.66772  25.44831   0.00000  2       61
siesta:     -9.33934  26.79272   0.00000  2       62
siesta:     -9.33934  29.48119   0.00000  2       63
siesta:      4.63094  26.79272   0.00000  2       64
siesta:     -4.68258  29.48119   0.00000  2       65
siesta:      2.30256  33.51406   0.00000  2       66
siesta:     -2.35420  33.51406   0.00000  2       67
siesta:     -7.01096  30.82560   0.00000  2       68
siesta:     -7.01096  33.51406   0.00000  2       69
siesta:     -0.02582  37.54693   0.00000  2       70
siesta:     -0.02582  42.92421   0.00000  2       71
siesta:     -0.02582  45.61267   0.00000  2       72

siesta: System type = slab      

initatomlists: Number of atoms, orbitals, and projectors:     72   936  1152

siesta: ******************** Simulation parameters ****************************
siesta:
siesta: The following are some of the parameters of the simulation.
siesta: A complete list of the parameters used, including default values,
siesta: can be found in file out.fdf
siesta:
redata: Non-Collinear-spin run           =     F
redata: SpinPolarized (Up/Down) run      =     F
redata: Number of spin components        =     1
redata: Long output                      =     F
redata: Number of Atomic Species         =        2
redata: Charge density info will appear in .RHO file
redata: Write Mulliken Pop.              =     NO
redata: Mesh Cutoff                      =   200.0000  Ry
redata: Net charge of the system         =     0.0000 |e|
redata: Max. number of SCF Iter          =      500
redata: SCF convergence failure will abort job
redata: Performing Pulay mixing using    =    10 iterations
redata: Mix DM in first SCF step ?       =     F
redata: Write Pulay info on disk?        =     F
redata: Discard 1st Pulay DM after  kick =     F
redata: New DM Mixing Weight             =     0.0500
redata: New DM Occupancy tolerance       = 0.000000000001
redata: No kicks to SCF
redata: DM Mixing Weight for Kicks       =     0.5000
redata: DM Tolerance for SCF             =     0.000100
redata: Require Energy convergence for SCF =     F
redata: DM Energy tolerance for SCF      =     0.000100 eV
redata: Require Harris convergence for SCF =     F
redata: DM Harris energy tolerance for SCF =     0.000100 eV
redata: Using Saved Data (generic)   =     F
redata: Use continuation files for DM    =     T
redata: Neglect nonoverlap interactions  =     F
redata: Method of Calculation            =     Diagonalization
redata: Divide and Conquer               =     T
redata: Electronic Temperature           =     0.0019  Ry
redata: Fix the spin of the system       =     F
redata: Dynamics option                  =     Verlet MD run
redata: Initial MD time step             =        1
redata:   Final MD time step             =        1
redata: Length of MD time step           =     1.0000  fs
redata: Initial Temperature of MD run    =     0.0000  K
redata: Perform a MD quench              =     F
redata: ***********************************************************************
Total number of electrons:   305.000000
Total ionic charge:   305.000000

* ProcessorY, Blocksize:    3  24

k-point displ. along   1 input, could be:     0.50    0.00
k-point displ. along   2 input, could be:     0.50    0.00
 Kpoints in:          231 . Kpoints trimmed:          231

siesta: k-grid: Number of k-points =   231
siesta: k-grid: Cutoff (effective) =     5.000 Ang
siesta: k-grid: Supercell and displacements
siesta: k-grid:   21   0   0      0.500
siesta: k-grid:    0  21   0      0.500
siesta: k-grid:    0   0   1      0.000
Naive supercell factors:     2    2    2

superc: Internal auxiliary supercell:     2 x     2 x     2  =       8
superc: Number of atoms, orbitals, and projectors:    576   7488   9216

* Maximum dynamic memory allocated =     4 MB

siesta:                 ==============================
                            Begin MD step =      1
                        ==============================

superc: Internal auxiliary supercell:     2 x     2 x     2  =       8
superc: Number of atoms, orbitals, and projectors:    576   7488   9216

outcell: Unit cell vectors (Ang):
       12.804619    7.392750    0.000000
        0.000000   14.785500    0.000000
        0.000000    0.000000   10.000000

outcell: Cell vector modules (Ang)   :   14.785500   14.785500   10.000000
outcell: Cell angles (23,13,12) (deg):     90.0000     90.0000     60.0000
outcell: Cell volume (Ang**3)        :   1893.2269
New_DM. Step:     1
Initializing Density Matrix...

InitMesh: MESH =   120 x   120 x    90 =     1296000
InitMesh: Mesh cutoff (required, used) =   200.000   223.865 Ry

* Maximum dynamic memory allocated =   133 MB

stepf: Fermi-Dirac step function

siesta: Program's energy decomposition (eV):
siesta: Ebs     =     -6206.516408
siesta: Eions   =     21135.707422
siesta: Ena     =      4894.973434
siesta: Ekin    =      7804.862351
siesta: Enl     =       133.484255
siesta: DEna    =        -0.000015
siesta: DUscf   =         0.000000
siesta: DUext   =         0.000000
siesta: Exc     =     -4596.247964
siesta: eta*DQ  =         0.000000
siesta: Emadel  =         0.000000
siesta: Emeta   =         0.000000
siesta: Emolmec =         0.000000
siesta: Ekinion =         0.000000
siesta: Eharris =    -12531.801436
siesta: Etot    =    -12898.635362
siesta: FreeEng =    -12898.635362

siesta: iscf   Eharris(eV)      E_KS(eV)   FreeEng(eV)   dDmax  Ef(eV)
siesta:    1   -12531.8014   -12898.6354   -12898.6354  6.0415 -7.0790
timer: Routine,Calls,Time,% = IterSCF        1    2991.620  99.59
elaps: Routine,Calls,Wall,% = IterSCF        1     249.898  99.59
siesta:    2   -16915.3711   -11875.1086   -11875.1630 12.9656 -4.1802
siesta:    3   -12506.2747   -12649.4697   -12649.5270  1.5106 -3.8188
siesta:    4   -12433.3454   -12562.0529   -12562.0803  1.1278 -3.8148
siesta:    5   -12399.6444   -12501.8663   -12501.9142  0.8669 -3.5948
siesta:    6   -12390.4105   -12475.9185   -12475.9640  0.7850 -3.5363
siesta:    7   -12381.8958   -12458.9267   -12458.9607  0.7097 -3.5209
siesta:    8   -12373.8164   -12439.0573   -12439.1065  0.5719 -3.6857
siesta:    9   -12372.5385   -12420.3105   -12420.3468  0.4710 -3.7643
siesta:   10   -12372.5627   -12400.3658   -12400.3996  0.3286 -3.7750
siesta:   11   -12372.5377   -12375.8608   -12375.9282  0.2968 -3.7637
siesta:   12   -12371.9938   -12372.5244   -12372.5793  0.2701 -3.7337
siesta:   13   -12371.9213   -12366.8122   -12366.8577  0.2830 -3.7570
siesta:   14   -12371.5374   -12367.6472   -12367.7085  0.2599 -3.7796
siesta:   15   -12371.1458   -12368.6053   -12368.6619  0.1597 -3.7942
siesta:   16   -12371.0309   -12371.0157   -12371.0615  0.1097 -3.8237
siesta:   17   -12370.9398   -12371.5603   -12371.6046  0.0725 -3.8319
siesta:   18   -12370.9225   -12370.8336   -12370.8793  0.0566 -3.8262
siesta:   19   -12370.9174   -12370.6662   -12370.7110  0.0469 -3.8221
siesta:   20   -12370.9119   -12370.9814   -12371.0251  0.0334 -3.8132
siesta:   21   -12370.9093   -12371.6676   -12371.7084  0.0407 -3.8149
siesta:   22   -12370.9001   -12371.6788   -12371.7183  0.0355 -3.8121
siesta:   23   -12370.8991   -12371.2562   -12371.2959  0.0316 -3.8090
siesta:   24   -12370.8981   -12370.7518   -12370.7917  0.0145 -3.8067
siesta:   25   -12370.8982   -12370.7656   -12370.8047  0.0072 -3.8062
siesta:   26   -12370.8977   -12370.8281   -12370.8670  0.0055 -3.8072
siesta:   27   -12370.8977   -12370.9546   -12370.9936  0.0045 -3.8083
siesta:   28   -12370.8974   -12370.9115   -12370.9505  0.0030 -3.8091
siesta:   29   -12370.8970   -12370.8284   -12370.8675  0.0017 -3.8095
siesta:   30   -12370.8971   -12370.8444   -12370.8838  0.0015 -3.8094
siesta:   31   -12370.8972   -12370.8612   -12370.9004  0.0010 -3.8093
siesta:   32   -12370.8972   -12370.8666   -12370.9058  0.0007 -3.8091
siesta:   33   -12370.8972   -12370.8635   -12370.9026  0.0003 -3.8092
siesta:   34   -12370.8972   -12370.8702   -12370.9094  0.0002 -3.8092
siesta:   35   -12370.8972   -12370.8754   -12370.9146  0.0002 -3.8091
siesta:   36   -12370.8972   -12370.8842   -12370.9234  0.0001 -3.8091

siesta: E_KS(eV) =           -12370.8837

siesta: E_KS - E_eggbox =    -12370.8837

siesta: Atomic forces (eV/Ang):
----------------------------------------
   Tot   -0.323461   -0.384040    0.000000
----------------------------------------
   Max  689.141112
   Res  172.528373    sqrt( Sum f_i^2 / 3N )
----------------------------------------
   Max  689.141112    constrained

Stress-tensor-Voigt (kbar):     -676.87    -3040.33       -0.08       -1.24        0.00        0.00
(Free)E + p*V (eV/cell)   -10906.7559
Target enthalpy (eV/cell)   -12370.9229

siesta: Stress tensor (static) (eV/Ang**3):
        -0.422463   -0.000775    0.000000
        -0.000775   -1.897603    0.000000
         0.000000    0.000000   -0.000047

siesta: Pressure (static):       1239.09047275  kBar

siesta: Stress tensor (total) (eV/Ang**3):
        -0.422463   -0.000775    0.000000
        -0.000775   -1.897603    0.000000
         0.000000    0.000000   -0.000047

siesta: Pressure (total):       1239.09047275  kBar

siesta: Temp_ion =       0.000 K

* Maximum dynamic memory allocated =   145 MB
Computing bands...

siesta: Program's energy decomposition (eV):
siesta: Ebs     =     -4972.222467
siesta: Eions   =     21135.707422
siesta: Ena     =      4894.973434
siesta: Ekin    =     10863.058815
siesta: Enl     =     -1551.222635
siesta: DEna    =      -779.595795
siesta: DUscf   =       104.772536
siesta: DUext   =         0.000000
siesta: Exc     =     -4767.162639
siesta: eta*DQ  =         0.000000
siesta: Emadel  =         0.000000
siesta: Emeta   =         0.000000
siesta: Emolmec =         0.000000
siesta: Ekinion =         0.000000
siesta: Eharris =    -12370.897190
siesta: Etot    =    -12370.883707
siesta: FreeEng =    -12370.922869

siesta: Final energy (eV):
siesta:  Band Struct. =   -4972.222467
siesta:       Kinetic =   10863.058815
siesta:       Hartree =   35271.870959
siesta:    Ext. field =       0.000000
siesta:   Exch.-corr. =   -4767.162639
siesta:  Ion-electron =  -80959.019147
siesta:       Ion-ion =   27220.368305
siesta:       Ekinion =       0.000000
siesta:         Total =  -12370.883707

siesta: Atomic forces (eV/Ang):
siesta:      1   -7.617655  129.269648    0.000000
siesta:      2   21.427043  656.235818    0.000000
siesta:      3   30.002489  653.740978    0.000000
siesta:      4   -0.208302    0.877024    0.000000
siesta:      5   -0.429768   -1.993363    0.000000
siesta:      6  -27.398145   -8.741983    0.000000
siesta:      7   -0.126945   -0.257783    0.000000
siesta:      8    1.862124   -0.319854    0.000000
siesta:      9    1.229629   -1.175252    0.000000
siesta:     10    0.020157    0.895741    0.000000
siesta:     11   -0.046071   -5.622106    0.000000
siesta:     12   -1.217801    4.412964    0.000000
siesta:     13   -4.611294 -689.141112    0.000000
siesta:     14    1.273499    0.738113    0.000000
siesta:     15   36.112246   14.303806    0.000000
siesta:     16  -34.686295   12.043048    0.000000
siesta:     17   -9.644483  124.349197    0.000000
siesta:     18    1.647414  636.482121    0.000000
siesta:     19   -2.171327 -118.740335    0.000000
siesta:     20    0.067540  125.911164    0.000000
siesta:     21  -27.981609 -548.688499    0.000000
siesta:     22   16.330466 -548.071973    0.000000
siesta:     23   26.370726    5.728884    0.000000
siesta:     24   27.456050 -656.902943    0.000000
siesta:     25    2.177749    0.631873    0.000000
siesta:     26   -2.373384    0.148113    0.000000
siesta:     27    1.634351    2.968441    0.000000
siesta:     28   -1.621227    0.142908    0.000000
siesta:     29  -26.799034    6.261018    0.000000
siesta:     30  -31.977898 -546.301322    0.000000
siesta:     31   -2.915708 -120.551520    0.000000
siesta:     32   26.061090   -0.736074    0.000000
siesta:     33   -1.501661   -0.079408    0.000000
siesta:     34    0.450369   -0.531142    0.000000
siesta:     35   -0.934602    4.958989    0.000000
siesta:     36   -0.129170   -7.045144    0.000000
siesta:     37   -3.318318  546.463608    0.000000
siesta:     38    2.570967 -124.414598    0.000000
siesta:     39   13.554806  546.497585    0.000000
siesta:     40    2.241670 -125.590222    0.000000
siesta:     41   20.506722  564.280961    0.000000
siesta:     42   24.900650   -8.181192    0.000000
siesta:     43   -0.933973    2.169655    0.000000
siesta:     44    0.229372   -0.099876    0.000000
siesta:     45    0.286482    0.620578    0.000000
siesta:     46   -0.177789   -1.192046    0.000000
siesta:     47  -32.246490  548.898783    0.000000
siesta:     48   -9.734846  565.696102    0.000000
siesta:     49  -24.394320   -8.441387    0.000000
siesta:     50    0.129536  562.993192    0.000000
siesta:     51    0.300892   -0.352636    0.000000
siesta:     52    0.128080    1.997389    0.000000
siesta:     53    0.468408    3.044302    0.000000
siesta:     54   -0.405935   -1.167951    0.000000
siesta:     55    0.277229    0.439065    0.000000
siesta:     56   -0.813010   -0.692683    0.000000
siesta:     57   -0.561643   -4.463476    0.000000
siesta:     58    0.851819    1.800467    0.000000
siesta:     59    0.392378   -1.166740    0.000000
siesta:     60    0.331182    6.675457    0.000000
siesta:     61    0.107742   -8.012197    0.000000
siesta:     62   -1.262764    2.979200    0.000000
siesta:     63    1.079919   -0.392563    0.000000
siesta:     64   -1.107640    1.482110    0.000000
siesta:     65    0.821558   -2.879916    0.000000
siesta:     66    9.703234 -675.847598    0.000000
siesta:     67  -15.387541 -559.806181    0.000000
siesta:     68   -1.008115    0.195573    0.000000
siesta:     69    2.539476    1.244008    0.000000
siesta:     70    2.351965 -545.805668    0.000000
siesta:     71   -2.291917  131.922168    0.000000
siesta:     72   -0.183807 -546.477352    0.000000
siesta: ----------------------------------------
siesta:    Tot   -0.323461   -0.384040    0.000000

siesta: Stress tensor (static) (eV/Ang**3):
siesta:    -0.422463   -0.000775    0.000000
siesta:    -0.000775   -1.897603    0.000000
siesta:     0.000000    0.000000   -0.000047

siesta: Cell volume =       1893.226884 Ang**3

siesta: Pressure (static):
siesta:                Solid            Molecule  Units
siesta:           0.00842300          0.13511506  Ry/Bohr**3
siesta:           0.77337108         12.40580570  eV/Ang**3
siesta:        1239.09047275      19876.50686751  kBar
(Free)E+ p_basis*V_orbitals  =      -12342.615633
(Free)Eharris+ p_basis*V_orbitals  =      -12342.628608

siesta: Electric dipole (a.u.)  =    0.000000    0.000000    0.000000
siesta: Electric dipole (Debye) =    0.000000    0.000000    0.000000

* Maximum dynamic memory allocated : Node    0 =   144 MB
* Maximum dynamic memory allocated : Node    1 =    58 MB
* Maximum dynamic memory allocated : Node    2 =    58 MB
* Maximum dynamic memory allocated : Node    3 =   133 MB
* Maximum dynamic memory allocated : Node    4 =   145 MB
* Maximum dynamic memory allocated : Node    5 =    53 MB
* Maximum dynamic memory allocated : Node    6 =    54 MB
* Maximum dynamic memory allocated : Node    7 =   136 MB
* Maximum dynamic memory allocated : Node    8 =   127 MB
* Maximum dynamic memory allocated : Node    9 =    52 MB
* Maximum dynamic memory allocated : Node   10 =    54 MB
* Maximum dynamic memory allocated : Node   11 =   122 MB

* Maximum memory occured during matrixMtoO                    

timer: CPU execution times:
timer:  Routine       Calls   Time/call    Tot.time        %
timer:  siesta            1  105417.546  105417.546   100.00
timer:  Setup             1       3.451       3.451     0.00
timer:  bands             3     225.758     677.273     0.64
timer:  writewave         1       0.020       0.020     0.00
timer:  KSV_init          1       0.003       0.003     0.00
timer:  IterMD            1  104729.770  104729.770    99.35
timer:  hsparse           1       0.161       0.161     0.00
timer:  overlap           1       7.567       7.567     0.01
timer:  IterSCF          36    2905.767  104607.596    99.23
timer:  kinefsm           2       3.826       7.652     0.01
timer:  nlefsm            2      18.479      36.958     0.04
timer:  DHSCF            37      60.943    2254.909     2.14
timer:  DHSCF1            1       0.903       0.903     0.00
timer:  DHSCF2            1      24.520      24.520     0.02
timer:  REORD           298       0.002       0.715     0.00
timer:  POISON           38       0.445      16.915     0.02
timer:  DHSCF3           37      59.696    2208.738     2.10
timer:  rhoofd           37      12.027     445.013     0.42
timer:  cellXC           37       2.446      90.497     0.09
timer:  vmat             37      28.080    1038.961     0.99
timer:  MolMec            2       0.000       0.000     0.00
timer:  diagon           36    2843.595  102369.424    97.11
timer:  c-eigval       8437       5.574   47026.024    44.61
timer:  c-buildHS      8437       0.033     274.801     0.26
timer:  cdiag         16753       5.671   95002.229    90.12
timer:  cdiag1        16753       0.261    4369.894     4.15
timer:  cdiag2        16753       1.827   30603.721    29.03
timer:  cdiag3        16753       3.378   56589.051    53.68
timer:  cdiag4        16753       0.088    1475.482     1.40
timer:  c-eigvec       8316       5.830   48479.074    45.99
timer:  c-buildD       8316       0.901    7496.276     7.11
timer:  DHSCF4            1      20.507      20.507     0.02
timer:  dfscf             1      19.084      19.084     0.02
timer:  overfsm           1       0.283       0.283     0.00
timer:  optical           1       6.434       6.434     0.01
  

elaps: ELAPSED times:
elaps:  Routine       Calls   Time/call    Tot.time        %
elaps:  siesta            1    8805.488    8805.488   100.00
elaps:  Setup             1       0.290       0.290     0.00
elaps:  bands             3      18.874      56.621     0.64
elaps:  writewave         1       0.002       0.002     0.00
elaps:  KSV_init          1       0.000       0.000     0.00
elaps:  IterMD            1    8748.036    8748.036    99.35
elaps:  hsparse           1       0.017       0.017     0.00
elaps:  overlap           1       0.709       0.709     0.01
elaps:  IterSCF          36     242.718    8737.831    99.23
elaps:  kinefsm           2       0.362       0.724     0.01
elaps:  nlefsm            2       1.626       3.251     0.04
elaps:  DHSCF            37       5.136     190.015     2.16
elaps:  DHSCF1            1       0.077       0.077     0.00
elaps:  DHSCF2            1       2.047       2.047     0.02
elaps:  REORD           298       0.000       0.089     0.00
elaps:  POISON           38       0.037       1.419     0.02
elaps:  DHSCF3           37       4.987     184.528     2.10
elaps:  rhoofd           37       2.085      77.159     0.88
elaps:  cellXC           37       0.204       7.542     0.09
elaps:  vmat             37       2.346      86.815     0.99
elaps:  MolMec            2       0.000       0.000     0.00
elaps:  diagon           36     237.530    8551.098    97.11
elaps:  c-eigval       8437       0.466    3928.024    44.61
elaps:  c-buildHS      8437       0.003      29.085     0.33
elaps:  cdiag         16753       0.469    7861.162    89.28
elaps:  cdiag1        16753       0.021     359.005     4.08
elaps:  cdiag2        16753       0.153    2558.623    29.06
elaps:  cdiag3        16753       0.283    4733.678    53.76
elaps:  cdiag4        16753       0.007     118.632     1.35
elaps:  c-eigvec       8316       0.479    3986.516    45.27
elaps:  c-buildD       8316       0.083     688.916     7.82
elaps:  DHSCF4            1       3.328       3.328     0.04
elaps:  dfscf             1       3.141       3.141     0.04
elaps:  overfsm           1       0.029       0.029     0.00
elaps:  optical           1       0.000       0.000     0.00
  
>> End of run:   2-MAY-2016   9:51:11
