Siesta Version:                                        siesta-3.2-pl-3
Architecture  : x86_64-unknown-linux-gnu--unknown
Compiler flags: mpiifort -g -O2 -fPIC -xSSE4.1 -fp-model source -shared-intel 
PARALLEL version

* Running on    8 nodes in parallel
>> Start of run:  30-APR-2016  23:01:06

                           ***********************       
                           *  WELCOME TO SIESTA  *       
                           ***********************       

reinit: Reading from standard input
************************** Dump of input data file ****************************
#(1) General system descriptors
SystemName            GRP_doping    # Descriptive name of the system
SystemLabel           GRP_doping    # Short name for naming files
%include STRUCT.fdf
%include KPT.fdf
%include BASIS.fdf
#%include TS.fdf # for transiesta calculation
#(4) DFT, Grid, SCF
XC.functional         GGA           # LDA or GGA (default = LDA)
XC.authors            PBE           # CA (Ceperley-Aldr) = PZ
                                    #    (Perdew-Zunger) - LDA - Default
                                    # PW92 (Perdew-Wang-92) - LDA
                                    # PBE (Perdew-Burke-Ernzerhof) - GGA
MeshCutoff            200.000000    Ry      # Default: 50.0 Ry ~ 0.444 Bohr
                                    #         100.0 Ry ~ 0.314 Bohr
MaxSCFIterations      500           # Default: 50
DM.MixingWeight       0.05          # Default: 0.25
DM.NumberPulay        10            # Default: 0
DM.PulayOnFile        F             # SystemLabel.P1, SystemLabel.P2
DM.Tolerance          1.d-4         # Default: 1.d-4
DM.UseSaveDM          .true.        # because of the bug
SCFMustConverge       .true.
NeglNonOverlapInt     F             # Default: F
#(5) Eigenvalue problem: order-N or diagonalization
SolutionMethod        Diagon        # or Transiesta
ElectronicTemperature 300.0 K       # Default: 300.0 K
#(6) Molecular dynamics and relaxations
#MD.TypeOfRun          CG            # Type of dynamics:
#MD.VariableCell       F
#MD.NumCGsteps         0           # 0 for single-point / 100 for gopt
#MD.MaxCGDispl         0.2 Bohr      # Default: 0.2 Bohr
#MD.MaxForceTol        0.02 eV/Ang   # Default: 0.04 eV/Ang
#MD.MaxStressTol       1.0 GPa       # Default: 1.0 GPa
# Geometry Constraints
#%block GeometryConstraints
#	position from 1 to 44
#%endblock GeometryConstraints
BandLinesScale   pi/a
%block BandLines
 1   0.00000000  0.00000000  0.00000000
50   0.00000000  0.07809418  0.00000000
50   0.04509075  0.07809242  0.00000000
20   0.00000000  0.00000000  0.00000000
%endblock BandLines
************************** End of input data file *****************************

reinit: -----------------------------------------------------------------------
reinit: System Name: GRP_doping
reinit: -----------------------------------------------------------------------
reinit: System Label: GRP_doping                                                  
reinit: -----------------------------------------------------------------------

initatom: Reading input for the pseudopotentials and atomic orbitals ----------
 Species number:            1  Label: B Atomic number:           5
 Species number:            2  Label: C Atomic number:           6
Ground state valence configuration:   2s02  2p01
Reading pseudopotential information in formatted form from B.psf

Valence configuration for pseudopotential generation:
2s( 2.00) rc: 1.74
2p( 1.00) rc: 1.74
3d( 0.00) rc: 1.74
4f( 0.00) rc: 1.74
Ground state valence configuration:   2s02  2p02
Reading pseudopotential information in formatted form from C.psf

Valence configuration for pseudopotential generation:
2s( 2.00) rc: 1.54
2p( 2.00) rc: 1.54
3d( 0.00) rc: 1.54
4f( 0.00) rc: 1.54
For B, standard SIESTA heuristics set lmxkb to 3
 (one more than the basis l, including polarization orbitals).
Use PS.lmax or PS.KBprojectors blocks to override.
For C, standard SIESTA heuristics set lmxkb to 3
 (one more than the basis l, including polarization orbitals).
Use PS.lmax or PS.KBprojectors blocks to override.

<basis_specs>
===============================================================================
B                    Z=   5    Mass=  10.810        Charge= 0.17977+309
Lmxo=1 Lmxkb= 3    BasisType=split      Semic=F
L=0  Nsemic=0  Cnfigmx=2
          n=1  nzeta=2  polorb=0
            splnorm:   0.15000    
               vcte:    0.0000    
               rinn:    0.0000    
                rcs:    0.0000      0.0000    
            lambdas:    1.0000      1.0000    
L=1  Nsemic=0  Cnfigmx=2
          n=1  nzeta=2  polorb=1
            splnorm:   0.15000    
               vcte:    0.0000    
               rinn:    0.0000    
                rcs:    0.0000      0.0000    
            lambdas:    1.0000      1.0000    
-------------------------------------------------------------------------------
L=0  Nkbl=1  erefs: 0.17977+309
L=1  Nkbl=1  erefs: 0.17977+309
L=2  Nkbl=1  erefs: 0.17977+309
L=3  Nkbl=1  erefs: 0.17977+309
===============================================================================
</basis_specs>

atom: Called for B                     (Z =   5)

read_vps: Pseudopotential generation method:
read_vps: ATM3      Troullier-Martins                       
Total valence charge:    3.00000

read_vps: Pseudopotential includes a core correction:
read_vps: Pseudo-core for xc-correction

xc_check: Exchange-correlation functional:
xc_check: GGA Perdew, Burke & Ernzerhof 1996
V l=0 = -2*Zval/r beyond r=  1.7165
V l=1 = -2*Zval/r beyond r=  1.7165
V l=2 = -2*Zval/r beyond r=  1.7165
V l=3 = -2*Zval/r beyond r=  1.6951
All V_l potentials equal beyond r=  1.7165
This should be close to max(r_c) in ps generation
All pots = -2*Zval/r beyond r=  1.7165

VLOCAL1: 99.0% of the norm of Vloc inside     14.733 Ry
VLOCAL1: 99.9% of the norm of Vloc inside     33.577 Ry
atom: Maximum radius for 4*pi*r*r*local-pseudopot. charge    2.04484
atom: Maximum radius for r*vlocal+2*Zval:    1.75994
GHOST: No ghost state for L =  0
GHOST: No ghost state for L =  1
GHOST: No ghost state for L =  2
GHOST: No ghost state for L =  3

KBgen: Kleinman-Bylander projectors: 
   l= 0   rc=  1.897051   el= -0.693730   Ekb=  4.595746   kbcos=  0.286105
   l= 1   rc=  1.920920   el= -0.265236   Ekb= -2.350715   kbcos= -0.315747
   l= 2   rc=  2.044840   el=  0.002055   Ekb= -0.690767   kbcos= -0.013822
   l= 3   rc=  2.149707   el=  0.003188   Ekb= -0.315358   kbcos= -0.002055

KBgen: Total number of  Kleinman-Bylander projectors:   16
atom: -------------------------------------------------------------------------

atom: SANKEY-TYPE ORBITALS:
atom: Selected multiple-zeta basis: split     

SPLIT: Orbitals with angular momentum L= 0

SPLIT: Basis orbitals for state 2s

SPLIT: PAO cut-off radius determined from an
SPLIT: energy shift=  0.007350 Ry

   izeta = 1
                 lambda =    1.000000
                     rc =    5.422032
                 energy =   -0.686029
                kinetic =    0.576707
    potential(screened) =   -1.262736
       potential(ionic) =   -3.271094

   izeta = 2
                 rmatch =    4.222573
              splitnorm =    0.150000
                 energy =   -0.602132
                kinetic =    0.858975
    potential(screened) =   -1.461107
       potential(ionic) =   -3.582536

SPLIT: Orbitals with angular momentum L= 1

SPLIT: Basis orbitals for state 2p

SPLIT: PAO cut-off radius determined from an
SPLIT: energy shift=  0.007350 Ry

   izeta = 1
                 lambda =    1.000000
                     rc =    6.790259
                 energy =   -0.258578
                kinetic =    1.481412
    potential(screened) =   -1.739989
       potential(ionic) =   -3.657461

   izeta = 2
                 rmatch =    4.608740
              splitnorm =    0.150000
                 energy =   -0.173757
                kinetic =    2.186690
    potential(screened) =   -2.360447
       potential(ionic) =   -4.464260

POLgen: Perturbative polarization orbital with L=  2

POLgen: Polarization orbital for state 2p

   izeta = 1
                     rc =    6.790259
                 energy =    0.684082
                kinetic =    1.471481
    potential(screened) =   -0.787399
       potential(ionic) =   -2.406985
atom: Total number of Sankey-type orbitals: 13

atm_pop: Valence configuration (for local Pseudopot. screening):
 2s( 2.00)                                                            
 2p( 1.00)                                                            
Vna: chval, zval:    3.00000   3.00000

Vna:  Cut-off radius for the neutral-atom potential:   6.790259
comcore: Pseudo-core radius Rcore=  2.122997

atom: _________________________________________________________________________

<basis_specs>
===============================================================================
C                    Z=   6    Mass=  12.010        Charge= 0.17977+309
Lmxo=1 Lmxkb= 3    BasisType=split      Semic=F
L=0  Nsemic=0  Cnfigmx=2
          n=1  nzeta=2  polorb=0
            splnorm:   0.15000    
               vcte:    0.0000    
               rinn:    0.0000    
                rcs:    0.0000      0.0000    
            lambdas:    1.0000      1.0000    
L=1  Nsemic=0  Cnfigmx=2
          n=1  nzeta=2  polorb=1
            splnorm:   0.15000    
               vcte:    0.0000    
               rinn:    0.0000    
                rcs:    0.0000      0.0000    
            lambdas:    1.0000      1.0000    
-------------------------------------------------------------------------------
L=0  Nkbl=1  erefs: 0.17977+309
L=1  Nkbl=1  erefs: 0.17977+309
L=2  Nkbl=1  erefs: 0.17977+309
L=3  Nkbl=1  erefs: 0.17977+309
===============================================================================
</basis_specs>

atom: Called for C                     (Z =   6)

read_vps: Pseudopotential generation method:
read_vps: ATM3      Troullier-Martins                       
Total valence charge:    4.00000

read_vps: Pseudopotential includes a core correction:
read_vps: Pseudo-core for xc-correction

xc_check: Exchange-correlation functional:
xc_check: GGA Perdew, Burke & Ernzerhof 1996
V l=0 = -2*Zval/r beyond r=  1.5227
V l=1 = -2*Zval/r beyond r=  1.5227
V l=2 = -2*Zval/r beyond r=  1.5227
V l=3 = -2*Zval/r beyond r=  1.5038
All V_l potentials equal beyond r=  1.5227
This should be close to max(r_c) in ps generation
All pots = -2*Zval/r beyond r=  1.5227

VLOCAL1: 99.0% of the norm of Vloc inside     18.722 Ry
VLOCAL1: 99.9% of the norm of Vloc inside     42.668 Ry
atom: Maximum radius for 4*pi*r*r*local-pseudopot. charge    1.83678
atom: Maximum radius for r*vlocal+2*Zval:    1.58088
GHOST: No ghost state for L =  0
GHOST: No ghost state for L =  1
GHOST: No ghost state for L =  2
GHOST: No ghost state for L =  3

KBgen: Kleinman-Bylander projectors: 
   l= 0   rc=  1.704034   el= -1.009801   Ekb=  5.335044   kbcos=  0.316824
   l= 1   rc=  1.704034   el= -0.388707   Ekb= -3.785862   kbcos= -0.366464
   l= 2   rc=  1.791422   el=  0.001971   Ekb= -0.970471   kbcos= -0.009212
   l= 3   rc=  1.859892   el=  0.003065   Ekb= -0.399525   kbcos= -0.001223

KBgen: Total number of  Kleinman-Bylander projectors:   16
atom: -------------------------------------------------------------------------

atom: SANKEY-TYPE ORBITALS:
atom: Selected multiple-zeta basis: split     

SPLIT: Orbitals with angular momentum L= 0

SPLIT: Basis orbitals for state 2s

SPLIT: PAO cut-off radius determined from an
SPLIT: energy shift=  0.007350 Ry

   izeta = 1
                 lambda =    1.000000
                     rc =    4.632753
                 energy =   -1.002270
                kinetic =    0.855760
    potential(screened) =   -1.858031
       potential(ionic) =   -5.417575

   izeta = 2
                 rmatch =    3.431921
              splitnorm =    0.150000
                 energy =   -0.867111
                kinetic =    1.300804
    potential(screened) =   -2.167915
       potential(ionic) =   -5.962684

SPLIT: Orbitals with angular momentum L= 1

SPLIT: Basis orbitals for state 2p

SPLIT: PAO cut-off radius determined from an
SPLIT: energy shift=  0.007350 Ry

   izeta = 1
                 lambda =    1.000000
                     rc =    5.658549
                 energy =   -0.381140
                kinetic =    2.399701
    potential(screened) =   -2.780841
       potential(ionic) =   -6.206085

   izeta = 2
                 rmatch =    3.653288
              splitnorm =    0.150000
                 energy =   -0.249149
                kinetic =    3.542762
    potential(screened) =   -3.791911
       potential(ionic) =   -7.581078

POLgen: Perturbative polarization orbital with L=  2

POLgen: Polarization orbital for state 2p

   izeta = 1
                     rc =    5.658549
                 energy =    1.109913
                kinetic =    2.304789
    potential(screened) =   -1.194876
       potential(ionic) =   -4.013592
atom: Total number of Sankey-type orbitals: 13

atm_pop: Valence configuration (for local Pseudopot. screening):
 2s( 2.00)                                                            
 2p( 2.00)                                                            
Vna: chval, zval:    4.00000   4.00000

Vna:  Cut-off radius for the neutral-atom potential:   5.658549
comcore: Pseudo-core radius Rcore=  1.791422

atom: _________________________________________________________________________

prinput: Basis input ----------------------------------------------------------

PAO.BasisType split     

%block ChemicalSpeciesLabel
    1    5 B                       # Species index, atomic number, species label
    2    6 C                       # Species index, atomic number, species label
%endblock ChemicalSpeciesLabel

%block PAO.Basis                 # Define Basis set
B                     2                    # Species label, number of l-shells
 n=2   0   2                         # n, l, Nzeta 
   5.422      4.223   
   1.000      1.000   
 n=2   1   2 P   1                   # n, l, Nzeta, Polarization, NzetaPol
   6.790      4.609   
   1.000      1.000   
C                     2                    # Species label, number of l-shells
 n=2   0   2                         # n, l, Nzeta 
   4.633      3.432   
   1.000      1.000   
 n=2   1   2 P   1                   # n, l, Nzeta, Polarization, NzetaPol
   5.659      3.653   
   1.000      1.000   
%endblock PAO.Basis

prinput: ----------------------------------------------------------------------

coor:   Atomic-coordinates input format  =     Fractional

siesta: Atomic coordinates (Bohr) and species
siesta:      2.30256   6.62836   0.00000  1        1
siesta:      2.30256   9.31683   0.00000  1        2
siesta:      4.63094  10.66124   0.00000  1        3
siesta:      4.63094  13.34970   0.00000  1        4
siesta:      6.95932  14.69411   0.00000  1        5
siesta:      6.95932  17.38257   0.00000  1        6
siesta:      9.28770  18.72698   0.00000  1        7
siesta:      9.28770  21.41544   0.00000  1        8
siesta:     11.61608  22.75985   0.00000  1        9
siesta:     11.61608  25.44831   0.00000  1       10
siesta:     -0.02582  10.66124   0.00000  1       11
siesta:      6.95932  22.75985   0.00000  1       12
siesta:     -2.35420  25.44831   0.00000  1       13
siesta:     -7.01096  25.44831   0.00000  1       14
siesta:     -0.02582  26.79272   0.00000  1       15
siesta:     -4.68258  26.79272   0.00000  1       16
siesta:     -4.68258  29.48119   0.00000  1       17
siesta:     -0.02582   2.59549   0.00000  2       18
siesta:     -0.02582   5.28395   0.00000  2       19
siesta:     -2.35420  38.89134   0.00000  2       20
siesta:     -2.35420  41.57980   0.00000  2       21
siesta:      2.30256  38.89134   0.00000  2       22
siesta:      2.30256  41.57980   0.00000  2       23
siesta:      4.63094  34.85847   0.00000  2       24
siesta:      4.63094  37.54693   0.00000  2       25
siesta:      6.95932  30.82560   0.00000  2       26
siesta:      6.95932  33.51406   0.00000  2       27
siesta:      9.28770  26.79272   0.00000  2       28
siesta:      9.28770  29.48119   0.00000  2       29
siesta:     -4.68258  34.85847   0.00000  2       30
siesta:     -4.68258  37.54693   0.00000  2       31
siesta:     -2.35420   6.62836   0.00000  2       32
siesta:     -2.35420   9.31683   0.00000  2       33
siesta:     -0.02582  13.34970   0.00000  2       34
siesta:      2.30256  14.69411   0.00000  2       35
siesta:      2.30256  17.38257   0.00000  2       36
siesta:      4.63094  18.72698   0.00000  2       37
siesta:      4.63094  21.41544   0.00000  2       38
siesta:      6.95932  25.44831   0.00000  2       39
siesta:     -4.68258  10.66124   0.00000  2       40
siesta:     -4.68258  13.34970   0.00000  2       41
siesta:     -2.35420  14.69411   0.00000  2       42
siesta:     -2.35420  17.38257   0.00000  2       43
siesta:     -0.02582  18.72698   0.00000  2       44
siesta:     -0.02582  21.41544   0.00000  2       45
siesta:      2.30256  22.75985   0.00000  2       46
siesta:      2.30256  25.44831   0.00000  2       47
siesta:     -7.01096  14.69411   0.00000  2       48
siesta:     -7.01096  17.38257   0.00000  2       49
siesta:     -4.68258  18.72698   0.00000  2       50
siesta:     -4.68258  21.41544   0.00000  2       51
siesta:     -2.35420  22.75985   0.00000  2       52
siesta:     -9.33934  18.72698   0.00000  2       53
siesta:     -9.33934  21.41544   0.00000  2       54
siesta:     -7.01096  22.75985   0.00000  2       55
siesta:    -11.66772  22.75985   0.00000  2       56
siesta:    -11.66772  25.44831   0.00000  2       57
siesta:     -9.33934  26.79272   0.00000  2       58
siesta:     -9.33934  29.48119   0.00000  2       59
siesta:      4.63094  26.79272   0.00000  2       60
siesta:      4.63094  29.48119   0.00000  2       61
siesta:     -0.02582  29.48119   0.00000  2       62
siesta:      2.30256  30.82560   0.00000  2       63
siesta:      2.30256  33.51406   0.00000  2       64
siesta:     -2.35420  30.82560   0.00000  2       65
siesta:     -2.35420  33.51406   0.00000  2       66
siesta:     -7.01096  30.82560   0.00000  2       67
siesta:     -7.01096  33.51406   0.00000  2       68
siesta:     -0.02582  34.85847   0.00000  2       69
siesta:     -0.02582  37.54693   0.00000  2       70
siesta:     -0.02582  42.92421   0.00000  2       71
siesta:     -0.02582  45.61267   0.00000  2       72

siesta: System type = slab      

initatomlists: Number of atoms, orbitals, and projectors:     72   936  1152

siesta: ******************** Simulation parameters ****************************
siesta:
siesta: The following are some of the parameters of the simulation.
siesta: A complete list of the parameters used, including default values,
siesta: can be found in file out.fdf
siesta:
redata: Non-Collinear-spin run           =     F
redata: SpinPolarized (Up/Down) run      =     F
redata: Number of spin components        =     1
redata: Long output                      =     F
redata: Number of Atomic Species         =        2
redata: Charge density info will appear in .RHO file
redata: Write Mulliken Pop.              =     NO
redata: Mesh Cutoff                      =   200.0000  Ry
redata: Net charge of the system         =     0.0000 |e|
redata: Max. number of SCF Iter          =      500
redata: SCF convergence failure will abort job
redata: Performing Pulay mixing using    =    10 iterations
redata: Mix DM in first SCF step ?       =     F
redata: Write Pulay info on disk?        =     F
redata: Discard 1st Pulay DM after  kick =     F
redata: New DM Mixing Weight             =     0.0500
redata: New DM Occupancy tolerance       = 0.000000000001
redata: No kicks to SCF
redata: DM Mixing Weight for Kicks       =     0.5000
redata: DM Tolerance for SCF             =     0.000100
redata: Require Energy convergence for SCF =     F
redata: DM Energy tolerance for SCF      =     0.000100 eV
redata: Require Harris convergence for SCF =     F
redata: DM Harris energy tolerance for SCF =     0.000100 eV
redata: Using Saved Data (generic)   =     F
redata: Use continuation files for DM    =     T
redata: Neglect nonoverlap interactions  =     F
redata: Method of Calculation            =     Diagonalization
redata: Divide and Conquer               =     T
redata: Electronic Temperature           =     0.0019  Ry
redata: Fix the spin of the system       =     F
redata: Dynamics option                  =     Verlet MD run
redata: Initial MD time step             =        1
redata:   Final MD time step             =        1
redata: Length of MD time step           =     1.0000  fs
redata: Initial Temperature of MD run    =     0.0000  K
redata: Perform a MD quench              =     F
redata: ***********************************************************************
Total number of electrons:   271.000000
Total ionic charge:   271.000000

* ProcessorY, Blocksize:    2  24

k-point displ. along   1 input, could be:     0.50    0.00
k-point displ. along   2 input, could be:     0.50    0.00
 Kpoints in:          231 . Kpoints trimmed:          231

siesta: k-grid: Number of k-points =   231
siesta: k-grid: Cutoff (effective) =     5.000 Ang
siesta: k-grid: Supercell and displacements
siesta: k-grid:   21   0   0      0.500
siesta: k-grid:    0  21   0      0.500
siesta: k-grid:    0   0   1      0.000
Naive supercell factors:     2    2    2

superc: Internal auxiliary supercell:     2 x     2 x     2  =       8
superc: Number of atoms, orbitals, and projectors:    576   7488   9216

* Maximum dynamic memory allocated =     4 MB

siesta:                 ==============================
                            Begin MD step =      1
                        ==============================

superc: Internal auxiliary supercell:     2 x     2 x     2  =       8
superc: Number of atoms, orbitals, and projectors:    576   7488   9216

outcell: Unit cell vectors (Ang):
       12.804619    7.392750    0.000000
        0.000000   14.785500    0.000000
        0.000000    0.000000   10.000000

outcell: Cell vector modules (Ang)   :   14.785500   14.785500   10.000000
outcell: Cell angles (23,13,12) (deg):     90.0000     90.0000     60.0000
outcell: Cell volume (Ang**3)        :   1893.2269
New_DM. Step:     1
Initializing Density Matrix...

InitMesh: MESH =   120 x   120 x    90 =     1296000
InitMesh: Mesh cutoff (required, used) =   200.000   223.865 Ry

* Maximum dynamic memory allocated =   225 MB

stepf: Fermi-Dirac step function

siesta: Program's energy decomposition (eV):
siesta: Ebs     =     -5584.294249
siesta: Eions   =     16226.046981
siesta: Ena     =      4310.905231
siesta: Ekin    =      5481.631332
siesta: Enl     =       777.080750
siesta: DEna    =        -0.000009
siesta: DUscf   =         0.000000
siesta: DUext   =         0.000000
siesta: Exc     =     -4195.120629
siesta: eta*DQ  =         0.000000
siesta: Emadel  =         0.000000
siesta: Emeta   =         0.000000
siesta: Emolmec =         0.000000
siesta: Ekinion =         0.000000
siesta: Eharris =     -9588.740067
siesta: Etot    =     -9851.550306
siesta: FreeEng =     -9851.550306

siesta: iscf   Eharris(eV)      E_KS(eV)   FreeEng(eV)   dDmax  Ef(eV)
siesta:    1    -9588.7401    -9851.5503    -9851.5503  7.0172 -8.2726
timer: Routine,Calls,Time,% = IterSCF        1    3486.721  99.69
elaps: Routine,Calls,Wall,% = IterSCF        1     436.667  99.69
siesta:    2   -13923.2060    -8839.9310    -8840.0155 16.8772 -3.5090
siesta:    3    -9574.2074    -9674.6221    -9674.6588  2.4757 -5.8499
siesta:    4    -9531.9175    -9588.7188    -9588.7431  1.3626 -5.3553
siesta:    5    -9475.4571    -9511.8741    -9511.9158  1.3376 -5.0567
siesta:    6    -9453.7745    -9478.2022    -9478.2390  1.2421 -5.0419
siesta:    7    -9439.7809    -9456.3722    -9456.4132  0.9625 -4.7990
siesta:    8    -9436.4207    -9446.0714    -9446.1135  0.5893 -4.8541
siesta:    9    -9435.0196    -9441.4418    -9441.4976  0.5224 -4.8764
siesta:   10    -9434.1430    -9434.6142    -9434.6684  0.4234 -4.9187
siesta:   11    -9434.6009    -9423.7094    -9423.7698  0.3073 -4.8899
siesta:   12    -9434.4045    -9417.5806    -9417.6311  0.5696 -4.8796
siesta:   13    -9434.0474    -9409.8133    -9409.8563  0.2634 -4.8542
siesta:   14    -9433.3039    -9412.9136    -9412.9723  0.2098 -4.8406
siesta:   15    -9433.0351    -9415.1285    -9415.1895  0.1456 -4.8510
siesta:   16    -9432.6622    -9421.4351    -9421.4976  0.1988 -4.8891
siesta:   17    -9432.5773    -9425.2088    -9425.2725  0.0538 -4.9162
siesta:   18    -9432.5426    -9426.0551    -9426.1197  0.0385 -4.9096
siesta:   19    -9432.5319    -9427.3699    -9427.4331  0.0471 -4.9141
siesta:   20    -9432.5137    -9429.1342    -9429.1972  0.0223 -4.9170
siesta:   21    -9432.5068    -9431.0810    -9431.1459  0.0208 -4.9250
siesta:   22    -9432.5069    -9431.7199    -9431.7860  0.0242 -4.9215
siesta:   23    -9432.5047    -9432.0137    -9432.0784  0.0207 -4.9215
siesta:   24    -9432.5032    -9432.6445    -9432.7094  0.0097 -4.9161
siesta:   25    -9432.5032    -9432.5978    -9432.6626  0.0076 -4.9136
siesta:   26    -9432.5028    -9432.4683    -9432.5327  0.0044 -4.9138
siesta:   27    -9432.5026    -9432.5348    -9432.5994  0.0031 -4.9140
siesta:   28    -9432.5024    -9432.5188    -9432.5834  0.0018 -4.9132
siesta:   29    -9432.5024    -9432.4517    -9432.5165  0.0013 -4.9129
siesta:   30    -9432.5024    -9432.4646    -9432.5293  0.0008 -4.9128
siesta:   31    -9432.5025    -9432.4630    -9432.5277  0.0006 -4.9130
siesta:   32    -9432.5025    -9432.4782    -9432.5429  0.0004 -4.9134
siesta:   33    -9432.5025    -9432.4846    -9432.5493  0.0002 -4.9136
siesta:   34    -9432.5025    -9432.5003    -9432.5650  0.0002 -4.9136
siesta:   35    -9432.5024    -9432.5070    -9432.5716  0.0002 -4.9135
siesta:   36    -9432.5024    -9432.5047    -9432.5693  0.0001 -4.9135
siesta:   37    -9432.5024    -9432.5013    -9432.5659  0.0001 -4.9136

siesta: E_KS(eV) =            -9432.5022

siesta: E_KS - E_eggbox =     -9432.5022

siesta: Atomic forces (eV/Ang):
----------------------------------------
   Tot   -0.199375    0.030379    0.000000
----------------------------------------
   Max  563.046987
   Res  148.143866    sqrt( Sum f_i^2 / 3N )
----------------------------------------
   Max  563.046987    constrained

Stress-tensor-Voigt (kbar):     -758.29    -2682.04       -0.58       -0.05        0.00        0.00
(Free)E + p*V (eV/cell)    -8077.2528
Target enthalpy (eV/cell)    -9432.5669

siesta: Stress tensor (static) (eV/Ang**3):
        -0.473283   -0.000034    0.000000
        -0.000034   -1.673983    0.000000
         0.000000    0.000000   -0.000360

siesta: Pressure (static):       1146.97087486  kBar

siesta: Stress tensor (total) (eV/Ang**3):
        -0.473283   -0.000034    0.000000
        -0.000034   -1.673983    0.000000
         0.000000    0.000000   -0.000360

siesta: Pressure (total):       1146.97087486  kBar

siesta: Temp_ion =       0.000 K

* Maximum dynamic memory allocated =   242 MB
Computing bands...

siesta: Program's energy decomposition (eV):
siesta: Ebs     =     -4262.900916
siesta: Eions   =     16226.046981
siesta: Ena     =      4310.905231
siesta: Ekin    =      8364.364227
siesta: Enl     =      -853.532264
siesta: DEna    =      -767.797447
siesta: DUscf   =       102.461988
siesta: DUext   =         0.000000
siesta: Exc     =     -4362.856975
siesta: eta*DQ  =         0.000000
siesta: Emadel  =         0.000000
siesta: Emeta   =         0.000000
siesta: Emolmec =         0.000000
siesta: Ekinion =         0.000000
siesta: Eharris =     -9432.502441
siesta: Etot    =     -9432.502220
siesta: FreeEng =     -9432.566912

siesta: Final energy (eV):
siesta:  Band Struct. =   -4262.900916
siesta:       Kinetic =    8364.364227
siesta:       Hartree =   27556.261525
siesta:    Ext. field =       0.000000
siesta:   Exch.-corr. =   -4362.856975
siesta:  Ion-electron =  -63222.143561
siesta:       Ion-ion =   22231.872564
siesta:       Ekinion =       0.000000
siesta:         Total =   -9432.502220

siesta: Atomic forces (eV/Ang):
siesta:      1    2.711783  395.744344    0.000000
siesta:      2   -3.092264 -102.562390    0.000000
siesta:      3   19.052963  393.974387    0.000000
siesta:      4   17.293187   -0.583418    0.000000
siesta:      5    3.429502   -4.145322    0.000000
siesta:      6   -1.722716   -1.149317    0.000000
siesta:      7    5.108707   -1.223370    0.000000
siesta:      8    5.119215   -1.259430    0.000000
siesta:      9    5.520306   -3.784786    0.000000
siesta:     10    2.321797    4.222346    0.000000
siesta:     11   10.726411  389.517104    0.000000
siesta:     12   -3.572913    1.961013    0.000000
siesta:     13    0.002841   -3.823551    0.000000
siesta:     14   -2.472282   -2.941906    0.000000
siesta:     15    3.454239    1.185230    0.000000
siesta:     16    0.699983    0.148706    0.000000
siesta:     17    2.254768    3.795978    0.000000
siesta:     18    3.312905  552.631988    0.000000
siesta:     19    7.897564 -118.543539    0.000000
siesta:     20   -1.504145  123.953179    0.000000
siesta:     21  -14.187525 -545.964789    0.000000
siesta:     22    9.523937  126.634892    0.000000
siesta:     23   10.640608 -545.180412    0.000000
siesta:     24   24.006912   -3.594909    0.000000
siesta:     25   30.985683 -401.961996    0.000000
siesta:     26    1.798047    0.801070    0.000000
siesta:     27   -2.672326    2.821074    0.000000
siesta:     28   -0.365735    3.807139    0.000000
siesta:     29   -0.550440   -0.646474    0.000000
siesta:     30  -26.625341    4.349737    0.000000
siesta:     31  -34.593354 -548.758184    0.000000
siesta:     32  -13.752393  547.736974    0.000000
siesta:     33    6.001731 -119.011922    0.000000
siesta:     34    0.604779 -130.049927    0.000000
siesta:     35   30.861315  549.983451    0.000000
siesta:     36   21.262529   -5.853587    0.000000
siesta:     37   -3.073686    3.476329    0.000000
siesta:     38   -3.289557   -2.079286    0.000000
siesta:     39   -1.406340    3.510569    0.000000
siesta:     40  -34.052814  548.416507    0.000000
siesta:     41  -26.951308   -4.869337    0.000000
siesta:     42  -24.884331  554.156213    0.000000
siesta:     43  -21.819164   -5.897212    0.000000
siesta:     44    0.959444  562.713183    0.000000
siesta:     45   -1.114655    1.475410    0.000000
siesta:     46   -0.053181   -0.109677    0.000000
siesta:     47    1.436984   -1.269687    0.000000
siesta:     48    2.265868   -1.914337    0.000000
siesta:     49   -1.821182   -0.529788    0.000000
siesta:     50    0.702635    2.451328    0.000000
siesta:     51   -1.154389   -1.351227    0.000000
siesta:     52    1.440097   -3.591748    0.000000
siesta:     53    1.014486   -0.182527    0.000000
siesta:     54   -2.714635   -2.204805    0.000000
siesta:     55    0.600294   -3.225407    0.000000
siesta:     56    0.041597    5.241906    0.000000
siesta:     57   -0.267917   -5.627581    0.000000
siesta:     58   -5.588564    4.276663    0.000000
siesta:     59    1.621956    0.489428    0.000000
siesta:     60    1.463764   -0.590098    0.000000
siesta:     61   -1.407100   -1.515519    0.000000
siesta:     62   -0.680667 -563.046987    0.000000
siesta:     63   21.537705    2.334640    0.000000
siesta:     64   32.878332 -410.829162    0.000000
siesta:     65  -19.592479    6.069678    0.000000
siesta:     66  -28.949463 -556.173514    0.000000
siesta:     67   -7.124501    2.342949    0.000000
siesta:     68    2.757309    1.637370    0.000000
siesta:     69    2.808222  123.829121    0.000000
siesta:     70   -3.651480 -398.610935    0.000000
siesta:     71   -0.015933  127.598332    0.000000
siesta:     72   -1.595001 -548.599793    0.000000
siesta: ----------------------------------------
siesta:    Tot   -0.199375    0.030379    0.000000

siesta: Stress tensor (static) (eV/Ang**3):
siesta:    -0.473283   -0.000034    0.000000
siesta:    -0.000034   -1.673983    0.000000
siesta:     0.000000    0.000000   -0.000360

siesta: Cell volume =       1893.226884 Ang**3

siesta: Pressure (static):
siesta:                Solid            Molecule  Units
siesta:           0.00779679          0.11369477  Ry/Bohr**3
siesta:           0.71587517         10.43906696  eV/Ang**3
siesta:        1146.97087486      16725.40995017  kBar
(Free)E+ p_basis*V_orbitals  =       -9396.458086
(Free)Eharris+ p_basis*V_orbitals  =       -9396.459268

siesta: Electric dipole (a.u.)  =    0.000000    0.000000    0.000000
siesta: Electric dipole (Debye) =    0.000000    0.000000    0.000000

* Maximum dynamic memory allocated : Node    0 =   242 MB
* Maximum dynamic memory allocated : Node    1 =    85 MB
* Maximum dynamic memory allocated : Node    2 =    87 MB
* Maximum dynamic memory allocated : Node    3 =   228 MB
* Maximum dynamic memory allocated : Node    4 =   219 MB
* Maximum dynamic memory allocated : Node    5 =    80 MB
* Maximum dynamic memory allocated : Node    6 =    82 MB
* Maximum dynamic memory allocated : Node    7 =   202 MB

* Maximum memory occured during matrixMtoO                    

timer: CPU execution times:
timer:  Routine       Calls   Time/call    Tot.time        %
timer:  siesta            1  126670.257  126670.257   100.00
timer:  Setup             1       2.679       2.679     0.00
timer:  bands             3     243.489     730.466     0.58
timer:  writewave         1       0.016       0.016     0.00
timer:  KSV_init          1       0.000       0.000     0.00
timer:  IterMD            1  125931.914  125931.914    99.42
timer:  hsparse           1       0.516       0.516     0.00
timer:  overlap           1       7.223       7.223     0.01
timer:  IterSCF          37    3397.975  125725.069    99.25
timer:  kinefsm           2       3.745       7.490     0.01
timer:  nlefsm            2      19.712      39.424     0.03
timer:  DHSCF            38     105.731    4017.780     3.17
timer:  DHSCF1            1       0.991       0.991     0.00
timer:  DHSCF2            1      42.563      42.563     0.03
timer:  REORD           306       0.005       1.563     0.00
timer:  POISON           39       0.874      34.079     0.03
timer:  DHSCF3           38     103.535    3934.318     3.11
timer:  rhoofd           38      22.386     850.656     0.67
timer:  cellXC           38       3.327     126.423     0.10
timer:  vmat             38      49.330    1874.521     1.48
timer:  MolMec            2       0.000       0.000     0.00
timer:  diagon           37    3291.588  121788.760    96.15
timer:  c-eigval       8668       6.024   52216.698    41.22
timer:  c-buildHS      8668       0.052     447.858     0.35
timer:  cdiag         17215       6.172  106248.337    83.88
timer:  cdiag1        17215       0.386    6638.115     5.24
timer:  cdiag2        17215       1.767   30418.052    24.01
timer:  cdiag3        17215       3.729   64189.495    50.67
timer:  cdiag4        17215       0.158    2720.820     2.15
timer:  c-eigvec       8547       6.419   54862.466    43.31
timer:  c-buildD       8547       1.801   15396.708    12.15
timer:  DHSCF4            1      39.207      39.207     0.03
timer:  dfscf             1      36.456      36.456     0.03
timer:  overfsm           1       0.449       0.449     0.00
timer:  optical           1       4.543       4.543     0.00
  

elaps: ELAPSED times:
elaps:  Routine       Calls   Time/call    Tot.time        %
elaps:  siesta            1   15863.487   15863.487   100.00
elaps:  Setup             1       0.336       0.336     0.00
elaps:  bands             3      30.511      91.532     0.58
elaps:  writewave         1       0.002       0.002     0.00
elaps:  KSV_init          1       0.000       0.000     0.00
elaps:  IterMD            1   15771.020   15771.020    99.42
elaps:  hsparse           1       0.068       0.068     0.00
elaps:  overlap           1       0.918       0.918     0.01
elaps:  IterSCF          37     425.544   15745.116    99.25
elaps:  kinefsm           2       0.479       0.958     0.01
elaps:  nlefsm            2       2.461       4.923     0.03
elaps:  DHSCF            38      13.375     508.265     3.20
elaps:  DHSCF1            1       0.126       0.126     0.00
elaps:  DHSCF2            1       5.329       5.329     0.03
elaps:  REORD           306       0.001       0.204     0.00
elaps:  POISON           39       0.110       4.275     0.03
elaps:  DHSCF3           38      12.967     492.758     3.11
elaps:  rhoofd           38       6.239     237.077     1.49
elaps:  cellXC           38       0.416      15.827     0.10
elaps:  vmat             38       6.178     234.781     1.48
elaps:  MolMec            2       0.000       0.000     0.00
elaps:  diagon           37     412.230   15252.496    96.15
elaps:  c-eigval       8668       0.754    6539.269    41.22
elaps:  c-buildHS      8668       0.007      62.627     0.39
elaps:  cdiag         17215       0.768   13217.800    83.32
elaps:  cdiag1        17215       0.048     830.722     5.24
elaps:  cdiag2        17215       0.221    3810.295    24.02
elaps:  cdiag3        17215       0.468    8049.350    50.74
elaps:  cdiag4        17215       0.020     341.490     2.15
elaps:  c-eigvec       8547       0.795    6791.502    42.81
elaps:  c-buildD       8547       0.235    2007.345    12.65
elaps:  DHSCF4            1       9.968       9.968     0.06
elaps:  dfscf             1       9.415       9.415     0.06
elaps:  overfsm           1       0.061       0.061     0.00
elaps:  optical           1       0.000       0.000     0.00
  
>> End of run:   1-MAY-2016   3:25:29
