Siesta Version:                                        siesta-3.2-pl-3
Architecture  : x86_64-unknown-linux-gnu--unknown
Compiler flags: mpiifort -g -O2 -fPIC -xSSE4.1 -fp-model source -shared-intel 
PARALLEL version

* Running on   12 nodes in parallel
>> Start of run:   3-MAY-2016  16:32:13

                           ***********************       
                           *  WELCOME TO SIESTA  *       
                           ***********************       

reinit: Reading from standard input
************************** Dump of input data file ****************************
#(1) General system descriptors
SystemName            GRP_doping    # Descriptive name of the system
SystemLabel           GRP_doping    # Short name for naming files
%include STRUCT.fdf
%include KPT.fdf
%include BASIS.fdf
#%include TS.fdf # for transiesta calculation
#(4) DFT, Grid, SCF
XC.functional         GGA           # LDA or GGA (default = LDA)
XC.authors            PBE           # CA (Ceperley-Aldr) = PZ
                                    #    (Perdew-Zunger) - LDA - Default
                                    # PW92 (Perdew-Wang-92) - LDA
                                    # PBE (Perdew-Burke-Ernzerhof) - GGA
MeshCutoff            200.000000    Ry      # Default: 50.0 Ry ~ 0.444 Bohr
                                    #         100.0 Ry ~ 0.314 Bohr
MaxSCFIterations      500           # Default: 50
DM.MixingWeight       0.05          # Default: 0.25
DM.NumberPulay        10            # Default: 0
DM.PulayOnFile        F             # SystemLabel.P1, SystemLabel.P2
DM.Tolerance          1.d-4         # Default: 1.d-4
DM.UseSaveDM          .true.        # because of the bug
SCFMustConverge       .true.
NeglNonOverlapInt     F             # Default: F
#(5) Eigenvalue problem: order-N or diagonalization
SolutionMethod        Diagon        # or Transiesta
ElectronicTemperature 300.0 K       # Default: 300.0 K
#(6) Molecular dynamics and relaxations
#MD.TypeOfRun          CG            # Type of dynamics:
#MD.VariableCell       F
#MD.NumCGsteps         0           # 0 for single-point / 100 for gopt
#MD.MaxCGDispl         0.2 Bohr      # Default: 0.2 Bohr
#MD.MaxForceTol        0.02 eV/Ang   # Default: 0.04 eV/Ang
#MD.MaxStressTol       1.0 GPa       # Default: 1.0 GPa
# Geometry Constraints
#%block GeometryConstraints
#	position from 1 to 44
#%endblock GeometryConstraints
BandLinesScale   pi/a
%block BandLines
 1   0.00000000  0.00000000  0.00000000
50   0.00000000  0.07809418  0.00000000
50   0.04509075  0.07809242  0.00000000
20   0.00000000  0.00000000  0.00000000
%endblock BandLines
************************** End of input data file *****************************

reinit: -----------------------------------------------------------------------
reinit: System Name: GRP_doping
reinit: -----------------------------------------------------------------------
reinit: System Label: GRP_doping                                                  
reinit: -----------------------------------------------------------------------

initatom: Reading input for the pseudopotentials and atomic orbitals ----------
 Species number:            1  Label: B Atomic number:           5
 Species number:            2  Label: C Atomic number:           6
Ground state valence configuration:   2s02  2p01
Reading pseudopotential information in formatted form from B.psf

Valence configuration for pseudopotential generation:
2s( 2.00) rc: 1.74
2p( 1.00) rc: 1.74
3d( 0.00) rc: 1.74
4f( 0.00) rc: 1.74
Ground state valence configuration:   2s02  2p02
Reading pseudopotential information in formatted form from C.psf

Valence configuration for pseudopotential generation:
2s( 2.00) rc: 1.54
2p( 2.00) rc: 1.54
3d( 0.00) rc: 1.54
4f( 0.00) rc: 1.54
For B, standard SIESTA heuristics set lmxkb to 3
 (one more than the basis l, including polarization orbitals).
Use PS.lmax or PS.KBprojectors blocks to override.
For C, standard SIESTA heuristics set lmxkb to 3
 (one more than the basis l, including polarization orbitals).
Use PS.lmax or PS.KBprojectors blocks to override.

<basis_specs>
===============================================================================
B                    Z=   5    Mass=  10.810        Charge= 0.17977+309
Lmxo=1 Lmxkb= 3    BasisType=split      Semic=F
L=0  Nsemic=0  Cnfigmx=2
          n=1  nzeta=2  polorb=0
            splnorm:   0.15000    
               vcte:    0.0000    
               rinn:    0.0000    
                rcs:    0.0000      0.0000    
            lambdas:    1.0000      1.0000    
L=1  Nsemic=0  Cnfigmx=2
          n=1  nzeta=2  polorb=1
            splnorm:   0.15000    
               vcte:    0.0000    
               rinn:    0.0000    
                rcs:    0.0000      0.0000    
            lambdas:    1.0000      1.0000    
-------------------------------------------------------------------------------
L=0  Nkbl=1  erefs: 0.17977+309
L=1  Nkbl=1  erefs: 0.17977+309
L=2  Nkbl=1  erefs: 0.17977+309
L=3  Nkbl=1  erefs: 0.17977+309
===============================================================================
</basis_specs>

atom: Called for B                     (Z =   5)

read_vps: Pseudopotential generation method:
read_vps: ATM3      Troullier-Martins                       
Total valence charge:    3.00000

read_vps: Pseudopotential includes a core correction:
read_vps: Pseudo-core for xc-correction

xc_check: Exchange-correlation functional:
xc_check: GGA Perdew, Burke & Ernzerhof 1996
V l=0 = -2*Zval/r beyond r=  1.7165
V l=1 = -2*Zval/r beyond r=  1.7165
V l=2 = -2*Zval/r beyond r=  1.7165
V l=3 = -2*Zval/r beyond r=  1.6951
All V_l potentials equal beyond r=  1.7165
This should be close to max(r_c) in ps generation
All pots = -2*Zval/r beyond r=  1.7165

VLOCAL1: 99.0% of the norm of Vloc inside     14.733 Ry
VLOCAL1: 99.9% of the norm of Vloc inside     33.577 Ry
atom: Maximum radius for 4*pi*r*r*local-pseudopot. charge    2.04484
atom: Maximum radius for r*vlocal+2*Zval:    1.75994
GHOST: No ghost state for L =  0
GHOST: No ghost state for L =  1
GHOST: No ghost state for L =  2
GHOST: No ghost state for L =  3

KBgen: Kleinman-Bylander projectors: 
   l= 0   rc=  1.897051   el= -0.693730   Ekb=  4.595746   kbcos=  0.286105
   l= 1   rc=  1.920920   el= -0.265236   Ekb= -2.350715   kbcos= -0.315747
   l= 2   rc=  2.044840   el=  0.002055   Ekb= -0.690767   kbcos= -0.013822
   l= 3   rc=  2.149707   el=  0.003188   Ekb= -0.315358   kbcos= -0.002055

KBgen: Total number of  Kleinman-Bylander projectors:   16
atom: -------------------------------------------------------------------------

atom: SANKEY-TYPE ORBITALS:
atom: Selected multiple-zeta basis: split     

SPLIT: Orbitals with angular momentum L= 0

SPLIT: Basis orbitals for state 2s

SPLIT: PAO cut-off radius determined from an
SPLIT: energy shift=  0.007350 Ry

   izeta = 1
                 lambda =    1.000000
                     rc =    5.422032
                 energy =   -0.686029
                kinetic =    0.576707
    potential(screened) =   -1.262736
       potential(ionic) =   -3.271094

   izeta = 2
                 rmatch =    4.222573
              splitnorm =    0.150000
                 energy =   -0.602132
                kinetic =    0.858975
    potential(screened) =   -1.461107
       potential(ionic) =   -3.582536

SPLIT: Orbitals with angular momentum L= 1

SPLIT: Basis orbitals for state 2p

SPLIT: PAO cut-off radius determined from an
SPLIT: energy shift=  0.007350 Ry

   izeta = 1
                 lambda =    1.000000
                     rc =    6.790259
                 energy =   -0.258578
                kinetic =    1.481412
    potential(screened) =   -1.739989
       potential(ionic) =   -3.657461

   izeta = 2
                 rmatch =    4.608740
              splitnorm =    0.150000
                 energy =   -0.173757
                kinetic =    2.186690
    potential(screened) =   -2.360447
       potential(ionic) =   -4.464260

POLgen: Perturbative polarization orbital with L=  2

POLgen: Polarization orbital for state 2p

   izeta = 1
                     rc =    6.790259
                 energy =    0.684082
                kinetic =    1.471481
    potential(screened) =   -0.787399
       potential(ionic) =   -2.406985
atom: Total number of Sankey-type orbitals: 13

atm_pop: Valence configuration (for local Pseudopot. screening):
 2s( 2.00)                                                            
 2p( 1.00)                                                            
Vna: chval, zval:    3.00000   3.00000

Vna:  Cut-off radius for the neutral-atom potential:   6.790259
comcore: Pseudo-core radius Rcore=  2.122997

atom: _________________________________________________________________________

<basis_specs>
===============================================================================
C                    Z=   6    Mass=  12.010        Charge= 0.17977+309
Lmxo=1 Lmxkb= 3    BasisType=split      Semic=F
L=0  Nsemic=0  Cnfigmx=2
          n=1  nzeta=2  polorb=0
            splnorm:   0.15000    
               vcte:    0.0000    
               rinn:    0.0000    
                rcs:    0.0000      0.0000    
            lambdas:    1.0000      1.0000    
L=1  Nsemic=0  Cnfigmx=2
          n=1  nzeta=2  polorb=1
            splnorm:   0.15000    
               vcte:    0.0000    
               rinn:    0.0000    
                rcs:    0.0000      0.0000    
            lambdas:    1.0000      1.0000    
-------------------------------------------------------------------------------
L=0  Nkbl=1  erefs: 0.17977+309
L=1  Nkbl=1  erefs: 0.17977+309
L=2  Nkbl=1  erefs: 0.17977+309
L=3  Nkbl=1  erefs: 0.17977+309
===============================================================================
</basis_specs>

atom: Called for C                     (Z =   6)

read_vps: Pseudopotential generation method:
read_vps: ATM3      Troullier-Martins                       
Total valence charge:    4.00000

read_vps: Pseudopotential includes a core correction:
read_vps: Pseudo-core for xc-correction

xc_check: Exchange-correlation functional:
xc_check: GGA Perdew, Burke & Ernzerhof 1996
V l=0 = -2*Zval/r beyond r=  1.5227
V l=1 = -2*Zval/r beyond r=  1.5227
V l=2 = -2*Zval/r beyond r=  1.5227
V l=3 = -2*Zval/r beyond r=  1.5038
All V_l potentials equal beyond r=  1.5227
This should be close to max(r_c) in ps generation
All pots = -2*Zval/r beyond r=  1.5227

VLOCAL1: 99.0% of the norm of Vloc inside     18.722 Ry
VLOCAL1: 99.9% of the norm of Vloc inside     42.668 Ry
atom: Maximum radius for 4*pi*r*r*local-pseudopot. charge    1.83678
atom: Maximum radius for r*vlocal+2*Zval:    1.58088
GHOST: No ghost state for L =  0
GHOST: No ghost state for L =  1
GHOST: No ghost state for L =  2
GHOST: No ghost state for L =  3

KBgen: Kleinman-Bylander projectors: 
   l= 0   rc=  1.704034   el= -1.009801   Ekb=  5.335044   kbcos=  0.316824
   l= 1   rc=  1.704034   el= -0.388707   Ekb= -3.785862   kbcos= -0.366464
   l= 2   rc=  1.791422   el=  0.001971   Ekb= -0.970471   kbcos= -0.009212
   l= 3   rc=  1.859892   el=  0.003065   Ekb= -0.399525   kbcos= -0.001223

KBgen: Total number of  Kleinman-Bylander projectors:   16
atom: -------------------------------------------------------------------------

atom: SANKEY-TYPE ORBITALS:
atom: Selected multiple-zeta basis: split     

SPLIT: Orbitals with angular momentum L= 0

SPLIT: Basis orbitals for state 2s

SPLIT: PAO cut-off radius determined from an
SPLIT: energy shift=  0.007350 Ry

   izeta = 1
                 lambda =    1.000000
                     rc =    4.632753
                 energy =   -1.002270
                kinetic =    0.855760
    potential(screened) =   -1.858031
       potential(ionic) =   -5.417575

   izeta = 2
                 rmatch =    3.431921
              splitnorm =    0.150000
                 energy =   -0.867111
                kinetic =    1.300804
    potential(screened) =   -2.167915
       potential(ionic) =   -5.962684

SPLIT: Orbitals with angular momentum L= 1

SPLIT: Basis orbitals for state 2p

SPLIT: PAO cut-off radius determined from an
SPLIT: energy shift=  0.007350 Ry

   izeta = 1
                 lambda =    1.000000
                     rc =    5.658549
                 energy =   -0.381140
                kinetic =    2.399701
    potential(screened) =   -2.780841
       potential(ionic) =   -6.206085

   izeta = 2
                 rmatch =    3.653288
              splitnorm =    0.150000
                 energy =   -0.249149
                kinetic =    3.542762
    potential(screened) =   -3.791911
       potential(ionic) =   -7.581078

POLgen: Perturbative polarization orbital with L=  2

POLgen: Polarization orbital for state 2p

   izeta = 1
                     rc =    5.658549
                 energy =    1.109913
                kinetic =    2.304789
    potential(screened) =   -1.194876
       potential(ionic) =   -4.013592
atom: Total number of Sankey-type orbitals: 13

atm_pop: Valence configuration (for local Pseudopot. screening):
 2s( 2.00)                                                            
 2p( 2.00)                                                            
Vna: chval, zval:    4.00000   4.00000

Vna:  Cut-off radius for the neutral-atom potential:   5.658549
comcore: Pseudo-core radius Rcore=  1.791422

atom: _________________________________________________________________________

prinput: Basis input ----------------------------------------------------------

PAO.BasisType split     

%block ChemicalSpeciesLabel
    1    5 B                       # Species index, atomic number, species label
    2    6 C                       # Species index, atomic number, species label
%endblock ChemicalSpeciesLabel

%block PAO.Basis                 # Define Basis set
B                     2                    # Species label, number of l-shells
 n=2   0   2                         # n, l, Nzeta 
   5.422      4.223   
   1.000      1.000   
 n=2   1   2 P   1                   # n, l, Nzeta, Polarization, NzetaPol
   6.790      4.609   
   1.000      1.000   
C                     2                    # Species label, number of l-shells
 n=2   0   2                         # n, l, Nzeta 
   4.633      3.432   
   1.000      1.000   
 n=2   1   2 P   1                   # n, l, Nzeta, Polarization, NzetaPol
   5.659      3.653   
   1.000      1.000   
%endblock PAO.Basis

prinput: ----------------------------------------------------------------------

coor:   Atomic-coordinates input format  =     Fractional

siesta: Atomic coordinates (Bohr) and species
siesta:      4.63094  13.34970   0.00000  1        1
siesta:      6.95932  17.38257   0.00000  1        2
siesta:     -0.02582  13.34970   0.00000  1        3
siesta:      2.30256  14.69411   0.00000  1        4
siesta:      4.63094  18.72698   0.00000  1        5
siesta:      4.63094  21.41544   0.00000  1        6
siesta:      6.95932  25.44831   0.00000  1        7
siesta:     -2.35420  14.69411   0.00000  1        8
siesta:     -2.35420  17.38257   0.00000  1        9
siesta:     -7.01096  25.44831   0.00000  1       10
siesta:      4.63094  26.79272   0.00000  1       11
siesta:     -0.02582  29.48119   0.00000  1       12
siesta:     -4.68258  26.79272   0.00000  1       13
siesta:     -2.35420  30.82560   0.00000  1       14
siesta:     -7.01096  33.51406   0.00000  1       15
siesta:     -0.02582   2.59549   0.00000  2       16
siesta:     -0.02582   5.28395   0.00000  2       17
siesta:     -2.35420  38.89134   0.00000  2       18
siesta:     -2.35420  41.57980   0.00000  2       19
siesta:      2.30256  38.89134   0.00000  2       20
siesta:      2.30256  41.57980   0.00000  2       21
siesta:      4.63094  34.85847   0.00000  2       22
siesta:      4.63094  37.54693   0.00000  2       23
siesta:      6.95932  30.82560   0.00000  2       24
siesta:      6.95932  33.51406   0.00000  2       25
siesta:      9.28770  26.79272   0.00000  2       26
siesta:      9.28770  29.48119   0.00000  2       27
siesta:     -4.68258  34.85847   0.00000  2       28
siesta:     -4.68258  37.54693   0.00000  2       29
siesta:      2.30256   6.62836   0.00000  2       30
siesta:      2.30256   9.31683   0.00000  2       31
siesta:      4.63094  10.66124   0.00000  2       32
siesta:      6.95932  14.69411   0.00000  2       33
siesta:      9.28770  18.72698   0.00000  2       34
siesta:      9.28770  21.41544   0.00000  2       35
siesta:     11.61608  22.75985   0.00000  2       36
siesta:     11.61608  25.44831   0.00000  2       37
siesta:     -2.35420   6.62836   0.00000  2       38
siesta:     -2.35420   9.31683   0.00000  2       39
siesta:     -0.02582  10.66124   0.00000  2       40
siesta:      2.30256  17.38257   0.00000  2       41
siesta:      6.95932  22.75985   0.00000  2       42
siesta:     -4.68258  10.66124   0.00000  2       43
siesta:     -4.68258  13.34970   0.00000  2       44
siesta:     -0.02582  18.72698   0.00000  2       45
siesta:     -0.02582  21.41544   0.00000  2       46
siesta:      2.30256  22.75985   0.00000  2       47
siesta:      2.30256  25.44831   0.00000  2       48
siesta:     -7.01096  14.69411   0.00000  2       49
siesta:     -7.01096  17.38257   0.00000  2       50
siesta:     -4.68258  18.72698   0.00000  2       51
siesta:     -4.68258  21.41544   0.00000  2       52
siesta:     -2.35420  22.75985   0.00000  2       53
siesta:     -2.35420  25.44831   0.00000  2       54
siesta:     -9.33934  18.72698   0.00000  2       55
siesta:     -9.33934  21.41544   0.00000  2       56
siesta:     -7.01096  22.75985   0.00000  2       57
siesta:    -11.66772  22.75985   0.00000  2       58
siesta:    -11.66772  25.44831   0.00000  2       59
siesta:     -9.33934  26.79272   0.00000  2       60
siesta:     -9.33934  29.48119   0.00000  2       61
siesta:      4.63094  29.48119   0.00000  2       62
siesta:     -0.02582  26.79272   0.00000  2       63
siesta:     -4.68258  29.48119   0.00000  2       64
siesta:      2.30256  30.82560   0.00000  2       65
siesta:      2.30256  33.51406   0.00000  2       66
siesta:     -2.35420  33.51406   0.00000  2       67
siesta:     -7.01096  30.82560   0.00000  2       68
siesta:     -0.02582  34.85847   0.00000  2       69
siesta:     -0.02582  37.54693   0.00000  2       70
siesta:     -0.02582  42.92421   0.00000  2       71
siesta:     -0.02582  45.61267   0.00000  2       72

siesta: System type = slab      

initatomlists: Number of atoms, orbitals, and projectors:     72   936  1152

siesta: ******************** Simulation parameters ****************************
siesta:
siesta: The following are some of the parameters of the simulation.
siesta: A complete list of the parameters used, including default values,
siesta: can be found in file out.fdf
siesta:
redata: Non-Collinear-spin run           =     F
redata: SpinPolarized (Up/Down) run      =     F
redata: Number of spin components        =     1
redata: Long output                      =     F
redata: Number of Atomic Species         =        2
redata: Charge density info will appear in .RHO file
redata: Write Mulliken Pop.              =     NO
redata: Mesh Cutoff                      =   200.0000  Ry
redata: Net charge of the system         =     0.0000 |e|
redata: Max. number of SCF Iter          =      500
redata: SCF convergence failure will abort job
redata: Performing Pulay mixing using    =    10 iterations
redata: Mix DM in first SCF step ?       =     F
redata: Write Pulay info on disk?        =     F
redata: Discard 1st Pulay DM after  kick =     F
redata: New DM Mixing Weight             =     0.0500
redata: New DM Occupancy tolerance       = 0.000000000001
redata: No kicks to SCF
redata: DM Mixing Weight for Kicks       =     0.5000
redata: DM Tolerance for SCF             =     0.000100
redata: Require Energy convergence for SCF =     F
redata: DM Energy tolerance for SCF      =     0.000100 eV
redata: Require Harris convergence for SCF =     F
redata: DM Harris energy tolerance for SCF =     0.000100 eV
redata: Using Saved Data (generic)   =     F
redata: Use continuation files for DM    =     T
redata: Neglect nonoverlap interactions  =     F
redata: Method of Calculation            =     Diagonalization
redata: Divide and Conquer               =     T
redata: Electronic Temperature           =     0.0019  Ry
redata: Fix the spin of the system       =     F
redata: Dynamics option                  =     Verlet MD run
redata: Initial MD time step             =        1
redata:   Final MD time step             =        1
redata: Length of MD time step           =     1.0000  fs
redata: Initial Temperature of MD run    =     0.0000  K
redata: Perform a MD quench              =     F
redata: ***********************************************************************
Total number of electrons:   273.000000
Total ionic charge:   273.000000

* ProcessorY, Blocksize:    3  24

k-point displ. along   1 input, could be:     0.50    0.00
k-point displ. along   2 input, could be:     0.50    0.00
 Kpoints in:          231 . Kpoints trimmed:          231

siesta: k-grid: Number of k-points =   231
siesta: k-grid: Cutoff (effective) =     5.000 Ang
siesta: k-grid: Supercell and displacements
siesta: k-grid:   21   0   0      0.500
siesta: k-grid:    0  21   0      0.500
siesta: k-grid:    0   0   1      0.000
Naive supercell factors:     2    2    2

superc: Internal auxiliary supercell:     2 x     2 x     2  =       8
superc: Number of atoms, orbitals, and projectors:    576   7488   9216

* Maximum dynamic memory allocated =     4 MB

siesta:                 ==============================
                            Begin MD step =      1
                        ==============================

superc: Internal auxiliary supercell:     2 x     2 x     2  =       8
superc: Number of atoms, orbitals, and projectors:    576   7488   9216

outcell: Unit cell vectors (Ang):
       12.804619    7.392750    0.000000
        0.000000   14.785500    0.000000
        0.000000    0.000000   10.000000

outcell: Cell vector modules (Ang)   :   14.785500   14.785500   10.000000
outcell: Cell angles (23,13,12) (deg):     90.0000     90.0000     60.0000
outcell: Cell volume (Ang**3)        :   1893.2269
New_DM. Step:     1
Initializing Density Matrix...

InitMesh: MESH =   120 x   120 x    90 =     1296000
InitMesh: Mesh cutoff (required, used) =   200.000   223.865 Ry

* Maximum dynamic memory allocated =   156 MB

stepf: Fermi-Dirac step function

siesta: Program's energy decomposition (eV):
siesta: Ebs     =     -5632.314900
siesta: Eions   =     16482.160403
siesta: Ena     =      4356.119045
siesta: Ekin    =      5587.107004
siesta: Enl     =       761.044387
siesta: DEna    =        -0.000010
siesta: DUscf   =         0.000000
siesta: DUext   =         0.000000
siesta: Exc     =     -4190.384805
siesta: eta*DQ  =         0.000000
siesta: Emadel  =         0.000000
siesta: Emeta   =         0.000000
siesta: Emolmec =         0.000000
siesta: Ekinion =         0.000000
siesta: Eharris =     -9714.939202
siesta: Etot    =     -9968.274782
siesta: FreeEng =     -9968.274782

siesta: iscf   Eharris(eV)      E_KS(eV)   FreeEng(eV)   dDmax  Ef(eV)
siesta:    1    -9714.9392    -9968.2748    -9968.2748  6.4352 -8.2545
timer: Routine,Calls,Time,% = IterSCF        1    3058.043  99.60
elaps: Routine,Calls,Wall,% = IterSCF        1     255.444  99.59
siesta:    2   -13824.2294    -9032.7220    -9032.7690 16.7762 -3.2421
siesta:    3    -9671.6497    -9811.9458    -9811.9749  2.8342 -6.7226
siesta:    4    -9636.3960    -9708.2477    -9708.2856  1.3981 -6.0514
siesta:    5    -9589.2139    -9603.1829    -9603.2360  1.2529 -5.1350
siesta:    6    -9578.2271    -9591.6958    -9591.7540  1.1508 -5.0942
siesta:    7    -9569.8734    -9579.9858    -9580.0425  0.8005 -5.1111
siesta:    8    -9567.8566    -9576.8332    -9576.8770  0.7673 -5.1342
siesta:    9    -9565.4495    -9566.0405    -9566.0880  0.6132 -5.0359
siesta:   10    -9566.5938    -9552.6087    -9552.6624  0.4018 -4.9802
siesta:   11    -9565.4739    -9547.4483    -9547.4963  0.2842 -4.9814
siesta:   12    -9565.1736    -9543.1957    -9543.2525  0.1657 -5.0672
siesta:   13    -9564.9185    -9542.9082    -9542.9818  0.1756 -5.0188
siesta:   14    -9564.3662    -9545.7288    -9545.7684  0.1490 -5.0159
siesta:   15    -9563.9767    -9550.9882    -9551.0471  0.0805 -5.0128
siesta:   16    -9563.9022    -9553.0613    -9553.1384  0.1356 -5.0299
siesta:   17    -9563.8485    -9554.1599    -9554.2300  0.0856 -5.0394
siesta:   18    -9563.8236    -9557.1620    -9557.2377  0.0729 -5.0595
siesta:   19    -9563.7966    -9558.8925    -9558.9612  0.0323 -5.0726
siesta:   20    -9563.7856    -9560.3008    -9560.3730  0.0282 -5.0804
siesta:   21    -9563.7862    -9562.1872    -9562.2619  0.0177 -5.0829
siesta:   22    -9563.7840    -9562.7343    -9562.8076  0.0122 -5.0837
siesta:   23    -9563.7817    -9563.5285    -9563.6024  0.0130 -5.0815
siesta:   24    -9563.7815    -9563.7636    -9563.8376  0.0110 -5.0767
siesta:   25    -9563.7801    -9564.0169    -9564.0902  0.0080 -5.0749
siesta:   26    -9563.7798    -9564.0289    -9564.1033  0.0059 -5.0741
siesta:   27    -9563.7804    -9563.9975    -9564.0721  0.0037 -5.0732
siesta:   28    -9563.7803    -9563.9794    -9564.0533  0.0025 -5.0727
siesta:   29    -9563.7801    -9563.9499    -9564.0239  0.0009 -5.0719
siesta:   30    -9563.7800    -9563.9283    -9564.0024  0.0009 -5.0717
siesta:   31    -9563.7800    -9563.8579    -9563.9321  0.0010 -5.0713
siesta:   32    -9563.7800    -9563.8217    -9563.8959  0.0007 -5.0712
siesta:   33    -9563.7800    -9563.8120    -9563.8863  0.0005 -5.0715
siesta:   34    -9563.7800    -9563.8080    -9563.8822  0.0003 -5.0716
siesta:   35    -9563.7800    -9563.7984    -9563.8727  0.0001 -5.0717
siesta:   36    -9563.7800    -9563.7902    -9563.8644  0.0001 -5.0717
siesta:   37    -9563.7800    -9563.7876    -9563.8618  0.0001 -5.0717
siesta:   38    -9563.7800    -9563.7854    -9563.8597  0.0001 -5.0717

siesta: E_KS(eV) =            -9563.7831

siesta: E_KS - E_eggbox =     -9563.7831

siesta: Atomic forces (eV/Ang):
----------------------------------------
   Tot   -0.104889    0.106911    0.000000
----------------------------------------
   Max  557.869504
   Res  148.577617    sqrt( Sum f_i^2 / 3N )
----------------------------------------
   Max  557.869504    constrained

Stress-tensor-Voigt (kbar):     -758.91    -2676.34       -0.55       -1.57        0.00        0.00
(Free)E + p*V (eV/cell)    -8210.5559
Target enthalpy (eV/cell)    -9563.8574

siesta: Stress tensor (static) (eV/Ang**3):
        -0.473671   -0.000981    0.000000
        -0.000981   -1.670422    0.000000
         0.000000    0.000000   -0.000343

siesta: Pressure (static):       1145.26758032  kBar

siesta: Stress tensor (total) (eV/Ang**3):
        -0.473671   -0.000981    0.000000
        -0.000981   -1.670422    0.000000
         0.000000    0.000000   -0.000343

siesta: Pressure (total):       1145.26758032  kBar

siesta: Temp_ion =       0.000 K

* Maximum dynamic memory allocated =   168 MB
Computing bands...

siesta: Program's energy decomposition (eV):
siesta: Ebs     =     -4262.965750
siesta: Eions   =     16482.160403
siesta: Ena     =      4356.119045
siesta: Ekin    =      8467.419419
siesta: Enl     =      -862.741853
siesta: DEna    =      -785.839397
siesta: DUscf   =       105.008129
siesta: DUext   =         0.000000
siesta: Exc     =     -4361.588072
siesta: eta*DQ  =         0.000000
siesta: Emadel  =         0.000000
siesta: Emeta   =         0.000000
siesta: Emolmec =         0.000000
siesta: Ekinion =         0.000000
siesta: Eharris =     -9563.779968
siesta: Etot    =     -9563.783132
siesta: FreeEng =     -9563.857366

siesta: Final energy (eV):
siesta:  Band Struct. =   -4262.965750
siesta:       Kinetic =    8467.419419
siesta:       Hartree =   27509.008345
siesta:    Ext. field =       0.000000
siesta:   Exch.-corr. =   -4361.588072
siesta:  Ion-electron =  -63181.989344
siesta:       Ion-ion =   22003.366519
siesta:       Ekinion =       0.000000
siesta:         Total =   -9563.783132

siesta: Atomic forces (eV/Ang):
siesta:      1   22.011033   -0.962833    0.000000
siesta:      2    8.977901   -4.623908    0.000000
siesta:      3    0.203164 -101.705529    0.000000
siesta:      4   16.312477  400.679446    0.000000
siesta:      5   -6.347428   -2.979005    0.000000
siesta:      6    1.055254    4.551166    0.000000
siesta:      7    3.345995   -3.536903    0.000000
siesta:      8  -18.022720  397.075974    0.000000
siesta:      9  -19.959397   -2.182832    0.000000
siesta:     10   -3.205767   -2.863610    0.000000
siesta:     11   -3.579327    2.167042    0.000000
siesta:     12    0.502329 -413.552097    0.000000
siesta:     13    3.500736    1.902799    0.000000
siesta:     14  -20.509691    1.286599    0.000000
siesta:     15    0.654475    2.266337    0.000000
siesta:     16    1.493253  405.701999    0.000000
siesta:     17   -1.703801 -127.565279    0.000000
siesta:     18    1.833006  125.553995    0.000000
siesta:     19  -15.983130 -406.746601    0.000000
siesta:     20   -0.168337  126.576801    0.000000
siesta:     21   16.982092 -401.909678    0.000000
siesta:     22   27.377706    4.985220    0.000000
siesta:     23   35.659940 -556.018064    0.000000
siesta:     24    2.134107    1.249504    0.000000
siesta:     25   -2.602157    1.605521    0.000000
siesta:     26    6.837397    4.697888    0.000000
siesta:     27   -1.180550   -0.399514    0.000000
siesta:     28  -23.911996    6.371056    0.000000
siesta:     29  -33.753488 -551.817808    0.000000
siesta:     30   15.696923  549.369895    0.000000
siesta:     31   -0.315443 -124.410058    0.000000
siesta:     32   27.642514  549.510224    0.000000
siesta:     33   -1.687996   -2.211813    0.000000
siesta:     34    1.078962    3.225316    0.000000
siesta:     35    3.197508   -2.199102    0.000000
siesta:     36    1.206983    5.459414    0.000000
siesta:     37   -0.809789   -6.177410    0.000000
siesta:     38  -17.715866  552.578315    0.000000
siesta:     39    0.364754 -125.440032    0.000000
siesta:     40    1.896447  539.631211    0.000000
siesta:     41   20.825799   -5.155192    0.000000
siesta:     42    1.899376   -0.264441    0.000000
siesta:     43  -29.553133  551.309446    0.000000
siesta:     44  -25.372782    0.151956    0.000000
siesta:     45   -0.875639  557.869504    0.000000
siesta:     46    0.223058    2.005196    0.000000
siesta:     47   -3.951412    0.777169    0.000000
siesta:     48   -3.822139   -0.930117    0.000000
siesta:     49    1.789865   -1.936101    0.000000
siesta:     50   -2.673106    0.203250    0.000000
siesta:     51    0.125424    2.193813    0.000000
siesta:     52   -1.208463    0.057568    0.000000
siesta:     53    0.762802   -0.597333    0.000000
siesta:     54    3.397617   -1.130720    0.000000
siesta:     55    1.530402   -0.839906    0.000000
siesta:     56   -3.191234   -1.933367    0.000000
siesta:     57    0.734791   -2.302430    0.000000
siesta:     58    0.299012    6.180998    0.000000
siesta:     59    0.504417   -6.833048    0.000000
siesta:     60   -6.191227    4.052735    0.000000
siesta:     61    2.189408    0.169719    0.000000
siesta:     62   -1.703225    2.170611    0.000000
siesta:     63    0.417520   -3.709748    0.000000
siesta:     64    0.008188    2.504764    0.000000
siesta:     65   22.823368    2.909110    0.000000
siesta:     66   24.394420 -557.633903    0.000000
siesta:     67  -23.912918 -554.386495    0.000000
siesta:     68   -5.004753   -2.221445    0.000000
siesta:     69   -0.592714  126.309154    0.000000
siesta:     70   -0.529073 -550.923153    0.000000
siesta:     71   -3.075640  131.993944    0.000000
siesta:     72    1.119029 -549.098274    0.000000
siesta: ----------------------------------------
siesta:    Tot   -0.104889    0.106911    0.000000

siesta: Stress tensor (static) (eV/Ang**3):
siesta:    -0.473671   -0.000981    0.000000
siesta:    -0.000981   -1.670422    0.000000
siesta:     0.000000    0.000000   -0.000343

siesta: Cell volume =       1893.226884 Ang**3

siesta: Pressure (static):
siesta:                Solid            Molecule  Units
siesta:           0.00778522          0.11396372  Ry/Bohr**3
siesta:           0.71481207         10.46376116  eV/Ang**3
siesta:        1145.26758032      16764.97484221  kBar
(Free)E+ p_basis*V_orbitals  =       -9528.380447
(Free)Eharris+ p_basis*V_orbitals  =       -9528.374996

siesta: Electric dipole (a.u.)  =    0.000000    0.000000    0.000000
siesta: Electric dipole (Debye) =    0.000000    0.000000    0.000000

* Maximum dynamic memory allocated : Node    0 =   167 MB
* Maximum dynamic memory allocated : Node    1 =    66 MB
* Maximum dynamic memory allocated : Node    2 =    68 MB
* Maximum dynamic memory allocated : Node    3 =   153 MB
* Maximum dynamic memory allocated : Node    4 =   168 MB
* Maximum dynamic memory allocated : Node    5 =    61 MB
* Maximum dynamic memory allocated : Node    6 =    63 MB
* Maximum dynamic memory allocated : Node    7 =   157 MB
* Maximum dynamic memory allocated : Node    8 =   149 MB
* Maximum dynamic memory allocated : Node    9 =    60 MB
* Maximum dynamic memory allocated : Node   10 =    61 MB
* Maximum dynamic memory allocated : Node   11 =   143 MB

* Maximum memory occured during matrixMtoO                    

timer: CPU execution times:
timer:  Routine       Calls   Time/call    Tot.time        %
timer:  siesta            1  113088.230  113088.230   100.00
timer:  Setup             1       3.293       3.293     0.00
timer:  bands             3     226.591     679.772     0.60
timer:  writewave         1       0.023       0.023     0.00
timer:  KSV_init          1       0.005       0.005     0.00
timer:  IterMD            1  112398.213  112398.213    99.39
timer:  hsparse           1       0.283       0.283     0.00
timer:  overlap           1       7.212       7.212     0.01
timer:  IterSCF          38    2953.719  112241.327    99.25
timer:  kinefsm           2       3.667       7.334     0.01
timer:  nlefsm            2      20.110      40.219     0.04
timer:  DHSCF            39      80.344    3133.415     2.77
timer:  DHSCF1            1       1.190       1.190     0.00
timer:  DHSCF2            1      33.107      33.107     0.03
timer:  REORD           314       0.002       0.773     0.00
timer:  POISON           40       0.448      17.931     0.02
timer:  DHSCF3           39      78.749    3071.202     2.72
timer:  rhoofd           39      16.832     656.449     0.58
timer:  cellXC           39       2.438      95.098     0.08
timer:  vmat             39      37.349    1456.630     1.29
timer:  MolMec            2       0.000       0.000     0.00
timer:  diagon           38    2872.250  109145.482    96.51
timer:  c-eigval       8899       5.602   49855.872    44.09
timer:  c-buildHS      8899       0.036     317.918     0.28
timer:  cdiag         17677       5.699  100741.346    89.08
timer:  cdiag1        17677       0.260    4598.465     4.07
timer:  cdiag2        17677       1.844   32601.495    28.83
timer:  cdiag3        17677       3.385   59832.623    52.91
timer:  cdiag4        17677       0.086    1518.538     1.34
timer:  c-eigvec       8778       5.864   51472.127    45.52
timer:  c-buildD       8778       0.962    8448.578     7.47
timer:  DHSCF4            1      27.655      27.655     0.02
timer:  dfscf             1      25.559      25.559     0.02
timer:  overfsm           1       0.330       0.330     0.00
timer:  optical           1       6.348       6.348     0.01
  

elaps: ELAPSED times:
elaps:  Routine       Calls   Time/call    Tot.time        %
elaps:  siesta            1    9446.201    9446.201   100.00
elaps:  Setup             1       0.277       0.277     0.00
elaps:  bands             3      18.942      56.825     0.60
elaps:  writewave         1       0.002       0.002     0.00
elaps:  KSV_init          1       0.000       0.000     0.00
elaps:  IterMD            1    9388.562    9388.562    99.39
elaps:  hsparse           1       0.027       0.027     0.00
elaps:  overlap           1       0.715       0.715     0.01
elaps:  IterSCF          38     246.723    9375.457    99.25
elaps:  kinefsm           2       0.368       0.735     0.01
elaps:  nlefsm            2       1.733       3.466     0.04
elaps:  DHSCF            39       6.764     263.797     2.79
elaps:  DHSCF1            1       0.101       0.101     0.00
elaps:  DHSCF2            1       2.764       2.764     0.03
elaps:  REORD           314       0.000       0.093     0.00
elaps:  POISON           40       0.038       1.509     0.02
elaps:  DHSCF3           39       6.579     256.575     2.72
elaps:  rhoofd           39       2.839     110.732     1.17
elaps:  cellXC           39       0.203       7.926     0.08
elaps:  vmat             39       3.121     121.709     1.29
elaps:  MolMec            2       0.000       0.000     0.00
elaps:  diagon           38     239.925    9117.133    96.52
elaps:  c-eigval       8899       0.468    4164.383    44.09
elaps:  c-buildHS      8899       0.004      34.365     0.36
elaps:  cdiag         17677       0.471    8324.897    88.13
elaps:  cdiag1        17677       0.021     375.081     3.97
elaps:  cdiag2        17677       0.154    2725.572    28.85
elaps:  cdiag3        17677       0.283    5005.415    52.99
elaps:  cdiag4        17677       0.007     123.101     1.30
elaps:  c-eigvec       8778       0.481    4223.877    44.72
elaps:  c-buildD       8778       0.089     781.079     8.27
elaps:  DHSCF4            1       4.316       4.316     0.05
elaps:  dfscf             1       4.058       4.058     0.04
elaps:  overfsm           1       0.035       0.035     0.00
elaps:  optical           1       0.000       0.000     0.00
  
>> End of run:   3-MAY-2016  19:09:40
