Siesta Version:                                        siesta-3.2-pl-3
Architecture  : x86_64-unknown-linux-gnu--unknown
Compiler flags: mpiifort -g -O2 -fPIC -xSSE4.1 -fp-model source -shared-intel 
PARALLEL version

* Running on    8 nodes in parallel
>> Start of run:  23-APR-2016  20:36:35

                           ***********************       
                           *  WELCOME TO SIESTA  *       
                           ***********************       

reinit: Reading from standard input
************************** Dump of input data file ****************************
#(1) General system descriptors
SystemName            GRP_doping    # Descriptive name of the system
SystemLabel           GRP_doping    # Short name for naming files
%include STRUCT.fdf
%include KPT.fdf
%include BASIS.fdf
#%include TS.fdf # for transiesta calculation
#(4) DFT, Grid, SCF
XC.functional         GGA           # LDA or GGA (default = LDA)
XC.authors            PBE           # CA (Ceperley-Aldr) = PZ
                                    #    (Perdew-Zunger) - LDA - Default
                                    # PW92 (Perdew-Wang-92) - LDA
                                    # PBE (Perdew-Burke-Ernzerhof) - GGA
MeshCutoff            200.000000    Ry      # Default: 50.0 Ry ~ 0.444 Bohr
                                    #         100.0 Ry ~ 0.314 Bohr
MaxSCFIterations      500           # Default: 50
DM.MixingWeight       0.05          # Default: 0.25
DM.NumberPulay        10            # Default: 0
DM.PulayOnFile        F             # SystemLabel.P1, SystemLabel.P2
DM.Tolerance          1.d-4         # Default: 1.d-4
DM.UseSaveDM          .true.        # because of the bug
SCFMustConverge       .true.
NeglNonOverlapInt     F             # Default: F
#(5) Eigenvalue problem: order-N or diagonalization
SolutionMethod        Diagon        # or Transiesta
ElectronicTemperature 300.0 K       # Default: 300.0 K
#(6) Molecular dynamics and relaxations
#MD.TypeOfRun          CG            # Type of dynamics:
#MD.VariableCell       F
#MD.NumCGsteps         0           # 0 for single-point / 100 for gopt
#MD.MaxCGDispl         0.2 Bohr      # Default: 0.2 Bohr
#MD.MaxForceTol        0.02 eV/Ang   # Default: 0.04 eV/Ang
#MD.MaxStressTol       1.0 GPa       # Default: 1.0 GPa
# Geometry Constraints
#%block GeometryConstraints
#	position from 1 to 44
#%endblock GeometryConstraints
BandLinesScale   pi/a
%block BandLines
 1   0.00000000  0.00000000  0.00000000
50   0.00000000  0.07809418  0.00000000
50   0.04509075  0.07809242  0.00000000
20   0.00000000  0.00000000  0.00000000
%endblock BandLines
************************** End of input data file *****************************

reinit: -----------------------------------------------------------------------
reinit: System Name: GRP_doping
reinit: -----------------------------------------------------------------------
reinit: System Label: GRP_doping                                                  
reinit: -----------------------------------------------------------------------

initatom: Reading input for the pseudopotentials and atomic orbitals ----------
 Species number:            1  Label: B Atomic number:           5
 Species number:            2  Label: C Atomic number:           6
Ground state valence configuration:   2s02  2p01
Reading pseudopotential information in formatted form from B.psf

Valence configuration for pseudopotential generation:
2s( 2.00) rc: 1.74
2p( 1.00) rc: 1.74
3d( 0.00) rc: 1.74
4f( 0.00) rc: 1.74
Ground state valence configuration:   2s02  2p02
Reading pseudopotential information in formatted form from C.psf

Valence configuration for pseudopotential generation:
2s( 2.00) rc: 1.54
2p( 2.00) rc: 1.54
3d( 0.00) rc: 1.54
4f( 0.00) rc: 1.54
For B, standard SIESTA heuristics set lmxkb to 3
 (one more than the basis l, including polarization orbitals).
Use PS.lmax or PS.KBprojectors blocks to override.
For C, standard SIESTA heuristics set lmxkb to 3
 (one more than the basis l, including polarization orbitals).
Use PS.lmax or PS.KBprojectors blocks to override.

<basis_specs>
===============================================================================
B                    Z=   5    Mass=  10.810        Charge= 0.17977+309
Lmxo=1 Lmxkb= 3    BasisType=split      Semic=F
L=0  Nsemic=0  Cnfigmx=2
          n=1  nzeta=2  polorb=0
            splnorm:   0.15000    
               vcte:    0.0000    
               rinn:    0.0000    
                rcs:    0.0000      0.0000    
            lambdas:    1.0000      1.0000    
L=1  Nsemic=0  Cnfigmx=2
          n=1  nzeta=2  polorb=1
            splnorm:   0.15000    
               vcte:    0.0000    
               rinn:    0.0000    
                rcs:    0.0000      0.0000    
            lambdas:    1.0000      1.0000    
-------------------------------------------------------------------------------
L=0  Nkbl=1  erefs: 0.17977+309
L=1  Nkbl=1  erefs: 0.17977+309
L=2  Nkbl=1  erefs: 0.17977+309
L=3  Nkbl=1  erefs: 0.17977+309
===============================================================================
</basis_specs>

atom: Called for B                     (Z =   5)

read_vps: Pseudopotential generation method:
read_vps: ATM3      Troullier-Martins                       
Total valence charge:    3.00000

read_vps: Pseudopotential includes a core correction:
read_vps: Pseudo-core for xc-correction

xc_check: Exchange-correlation functional:
xc_check: GGA Perdew, Burke & Ernzerhof 1996
V l=0 = -2*Zval/r beyond r=  1.7165
V l=1 = -2*Zval/r beyond r=  1.7165
V l=2 = -2*Zval/r beyond r=  1.7165
V l=3 = -2*Zval/r beyond r=  1.6951
All V_l potentials equal beyond r=  1.7165
This should be close to max(r_c) in ps generation
All pots = -2*Zval/r beyond r=  1.7165

VLOCAL1: 99.0% of the norm of Vloc inside     14.733 Ry
VLOCAL1: 99.9% of the norm of Vloc inside     33.577 Ry
atom: Maximum radius for 4*pi*r*r*local-pseudopot. charge    2.04484
atom: Maximum radius for r*vlocal+2*Zval:    1.75994
GHOST: No ghost state for L =  0
GHOST: No ghost state for L =  1
GHOST: No ghost state for L =  2
GHOST: No ghost state for L =  3

KBgen: Kleinman-Bylander projectors: 
   l= 0   rc=  1.897051   el= -0.693730   Ekb=  4.595746   kbcos=  0.286105
   l= 1   rc=  1.920920   el= -0.265236   Ekb= -2.350715   kbcos= -0.315747
   l= 2   rc=  2.044840   el=  0.002055   Ekb= -0.690767   kbcos= -0.013822
   l= 3   rc=  2.149707   el=  0.003188   Ekb= -0.315358   kbcos= -0.002055

KBgen: Total number of  Kleinman-Bylander projectors:   16
atom: -------------------------------------------------------------------------

atom: SANKEY-TYPE ORBITALS:
atom: Selected multiple-zeta basis: split     

SPLIT: Orbitals with angular momentum L= 0

SPLIT: Basis orbitals for state 2s

SPLIT: PAO cut-off radius determined from an
SPLIT: energy shift=  0.007350 Ry

   izeta = 1
                 lambda =    1.000000
                     rc =    5.422032
                 energy =   -0.686029
                kinetic =    0.576707
    potential(screened) =   -1.262736
       potential(ionic) =   -3.271094

   izeta = 2
                 rmatch =    4.222573
              splitnorm =    0.150000
                 energy =   -0.602132
                kinetic =    0.858975
    potential(screened) =   -1.461107
       potential(ionic) =   -3.582536

SPLIT: Orbitals with angular momentum L= 1

SPLIT: Basis orbitals for state 2p

SPLIT: PAO cut-off radius determined from an
SPLIT: energy shift=  0.007350 Ry

   izeta = 1
                 lambda =    1.000000
                     rc =    6.790259
                 energy =   -0.258578
                kinetic =    1.481412
    potential(screened) =   -1.739989
       potential(ionic) =   -3.657461

   izeta = 2
                 rmatch =    4.608740
              splitnorm =    0.150000
                 energy =   -0.173757
                kinetic =    2.186690
    potential(screened) =   -2.360447
       potential(ionic) =   -4.464260

POLgen: Perturbative polarization orbital with L=  2

POLgen: Polarization orbital for state 2p

   izeta = 1
                     rc =    6.790259
                 energy =    0.684082
                kinetic =    1.471481
    potential(screened) =   -0.787399
       potential(ionic) =   -2.406985
atom: Total number of Sankey-type orbitals: 13

atm_pop: Valence configuration (for local Pseudopot. screening):
 2s( 2.00)                                                            
 2p( 1.00)                                                            
Vna: chval, zval:    3.00000   3.00000

Vna:  Cut-off radius for the neutral-atom potential:   6.790259
comcore: Pseudo-core radius Rcore=  2.122997

atom: _________________________________________________________________________

<basis_specs>
===============================================================================
C                    Z=   6    Mass=  12.010        Charge= 0.17977+309
Lmxo=1 Lmxkb= 3    BasisType=split      Semic=F
L=0  Nsemic=0  Cnfigmx=2
          n=1  nzeta=2  polorb=0
            splnorm:   0.15000    
               vcte:    0.0000    
               rinn:    0.0000    
                rcs:    0.0000      0.0000    
            lambdas:    1.0000      1.0000    
L=1  Nsemic=0  Cnfigmx=2
          n=1  nzeta=2  polorb=1
            splnorm:   0.15000    
               vcte:    0.0000    
               rinn:    0.0000    
                rcs:    0.0000      0.0000    
            lambdas:    1.0000      1.0000    
-------------------------------------------------------------------------------
L=0  Nkbl=1  erefs: 0.17977+309
L=1  Nkbl=1  erefs: 0.17977+309
L=2  Nkbl=1  erefs: 0.17977+309
L=3  Nkbl=1  erefs: 0.17977+309
===============================================================================
</basis_specs>

atom: Called for C                     (Z =   6)

read_vps: Pseudopotential generation method:
read_vps: ATM3      Troullier-Martins                       
Total valence charge:    4.00000

read_vps: Pseudopotential includes a core correction:
read_vps: Pseudo-core for xc-correction

xc_check: Exchange-correlation functional:
xc_check: GGA Perdew, Burke & Ernzerhof 1996
V l=0 = -2*Zval/r beyond r=  1.5227
V l=1 = -2*Zval/r beyond r=  1.5227
V l=2 = -2*Zval/r beyond r=  1.5227
V l=3 = -2*Zval/r beyond r=  1.5038
All V_l potentials equal beyond r=  1.5227
This should be close to max(r_c) in ps generation
All pots = -2*Zval/r beyond r=  1.5227

VLOCAL1: 99.0% of the norm of Vloc inside     18.722 Ry
VLOCAL1: 99.9% of the norm of Vloc inside     42.668 Ry
atom: Maximum radius for 4*pi*r*r*local-pseudopot. charge    1.83678
atom: Maximum radius for r*vlocal+2*Zval:    1.58088
GHOST: No ghost state for L =  0
GHOST: No ghost state for L =  1
GHOST: No ghost state for L =  2
GHOST: No ghost state for L =  3

KBgen: Kleinman-Bylander projectors: 
   l= 0   rc=  1.704034   el= -1.009801   Ekb=  5.335044   kbcos=  0.316824
   l= 1   rc=  1.704034   el= -0.388707   Ekb= -3.785862   kbcos= -0.366464
   l= 2   rc=  1.791422   el=  0.001971   Ekb= -0.970471   kbcos= -0.009212
   l= 3   rc=  1.859892   el=  0.003065   Ekb= -0.399525   kbcos= -0.001223

KBgen: Total number of  Kleinman-Bylander projectors:   16
atom: -------------------------------------------------------------------------

atom: SANKEY-TYPE ORBITALS:
atom: Selected multiple-zeta basis: split     

SPLIT: Orbitals with angular momentum L= 0

SPLIT: Basis orbitals for state 2s

SPLIT: PAO cut-off radius determined from an
SPLIT: energy shift=  0.007350 Ry

   izeta = 1
                 lambda =    1.000000
                     rc =    4.632753
                 energy =   -1.002270
                kinetic =    0.855760
    potential(screened) =   -1.858031
       potential(ionic) =   -5.417575

   izeta = 2
                 rmatch =    3.431921
              splitnorm =    0.150000
                 energy =   -0.867111
                kinetic =    1.300804
    potential(screened) =   -2.167915
       potential(ionic) =   -5.962684

SPLIT: Orbitals with angular momentum L= 1

SPLIT: Basis orbitals for state 2p

SPLIT: PAO cut-off radius determined from an
SPLIT: energy shift=  0.007350 Ry

   izeta = 1
                 lambda =    1.000000
                     rc =    5.658549
                 energy =   -0.381140
                kinetic =    2.399701
    potential(screened) =   -2.780841
       potential(ionic) =   -6.206085

   izeta = 2
                 rmatch =    3.653288
              splitnorm =    0.150000
                 energy =   -0.249149
                kinetic =    3.542762
    potential(screened) =   -3.791911
       potential(ionic) =   -7.581078

POLgen: Perturbative polarization orbital with L=  2

POLgen: Polarization orbital for state 2p

   izeta = 1
                     rc =    5.658549
                 energy =    1.109913
                kinetic =    2.304789
    potential(screened) =   -1.194876
       potential(ionic) =   -4.013592
atom: Total number of Sankey-type orbitals: 13

atm_pop: Valence configuration (for local Pseudopot. screening):
 2s( 2.00)                                                            
 2p( 2.00)                                                            
Vna: chval, zval:    4.00000   4.00000

Vna:  Cut-off radius for the neutral-atom potential:   5.658549
comcore: Pseudo-core radius Rcore=  1.791422

atom: _________________________________________________________________________

prinput: Basis input ----------------------------------------------------------

PAO.BasisType split     

%block ChemicalSpeciesLabel
    1    5 B                       # Species index, atomic number, species label
    2    6 C                       # Species index, atomic number, species label
%endblock ChemicalSpeciesLabel

%block PAO.Basis                 # Define Basis set
B                     2                    # Species label, number of l-shells
 n=2   0   2                         # n, l, Nzeta 
   5.422      4.223   
   1.000      1.000   
 n=2   1   2 P   1                   # n, l, Nzeta, Polarization, NzetaPol
   6.790      4.609   
   1.000      1.000   
C                     2                    # Species label, number of l-shells
 n=2   0   2                         # n, l, Nzeta 
   4.633      3.432   
   1.000      1.000   
 n=2   1   2 P   1                   # n, l, Nzeta, Polarization, NzetaPol
   5.659      3.653   
   1.000      1.000   
%endblock PAO.Basis

prinput: ----------------------------------------------------------------------

coor:   Atomic-coordinates input format  =     Fractional

siesta: Atomic coordinates (Bohr) and species
siesta:     -0.02582   2.59549   0.00000  1        1
siesta:     -0.02582   5.28395   0.00000  1        2
siesta:     -2.35420  41.57980   0.00000  1        3
siesta:      2.30256  41.57980   0.00000  1        4
siesta:      9.28770  26.79272   0.00000  1        5
siesta:      2.30256   6.62836   0.00000  1        6
siesta:     -2.35420   6.62836   0.00000  1        7
siesta:     -0.02582  13.34970   0.00000  1        8
siesta:      2.30256  14.69411   0.00000  1        9
siesta:      2.30256  17.38257   0.00000  1       10
siesta:      4.63094  18.72698   0.00000  1       11
siesta:      4.63094  21.41544   0.00000  1       12
siesta:      6.95932  22.75985   0.00000  1       13
siesta:      6.95932  25.44831   0.00000  1       14
siesta:     -9.33934  21.41544   0.00000  1       15
siesta:     -7.01096  22.75985   0.00000  1       16
siesta:     -7.01096  25.44831   0.00000  1       17
siesta:     -4.68258  26.79272   0.00000  1       18
siesta:     -4.68258  29.48119   0.00000  1       19
siesta:     -2.35420  30.82560   0.00000  1       20
siesta:     -2.35420  33.51406   0.00000  1       21
siesta:     -0.02582  34.85847   0.00000  1       22
siesta:     -0.02582  42.92421   0.00000  1       23
siesta:     -0.02582  45.61267   0.00000  1       24
siesta:     -2.35420  38.89134   0.00000  2       25
siesta:      2.30256  38.89134   0.00000  2       26
siesta:      4.63094  34.85847   0.00000  2       27
siesta:      4.63094  37.54693   0.00000  2       28
siesta:      6.95932  30.82560   0.00000  2       29
siesta:      6.95932  33.51406   0.00000  2       30
siesta:      9.28770  29.48119   0.00000  2       31
siesta:     -4.68258  34.85847   0.00000  2       32
siesta:     -4.68258  37.54693   0.00000  2       33
siesta:      2.30256   9.31683   0.00000  2       34
siesta:      4.63094  10.66124   0.00000  2       35
siesta:      4.63094  13.34970   0.00000  2       36
siesta:      6.95932  14.69411   0.00000  2       37
siesta:      6.95932  17.38257   0.00000  2       38
siesta:      9.28770  18.72698   0.00000  2       39
siesta:      9.28770  21.41544   0.00000  2       40
siesta:     11.61608  22.75985   0.00000  2       41
siesta:     11.61608  25.44831   0.00000  2       42
siesta:     -2.35420   9.31683   0.00000  2       43
siesta:     -0.02582  10.66124   0.00000  2       44
siesta:     -4.68258  10.66124   0.00000  2       45
siesta:     -4.68258  13.34970   0.00000  2       46
siesta:     -2.35420  14.69411   0.00000  2       47
siesta:     -2.35420  17.38257   0.00000  2       48
siesta:     -0.02582  18.72698   0.00000  2       49
siesta:     -0.02582  21.41544   0.00000  2       50
siesta:      2.30256  22.75985   0.00000  2       51
siesta:      2.30256  25.44831   0.00000  2       52
siesta:     -7.01096  14.69411   0.00000  2       53
siesta:     -7.01096  17.38257   0.00000  2       54
siesta:     -4.68258  18.72698   0.00000  2       55
siesta:     -4.68258  21.41544   0.00000  2       56
siesta:     -2.35420  22.75985   0.00000  2       57
siesta:     -2.35420  25.44831   0.00000  2       58
siesta:     -9.33934  18.72698   0.00000  2       59
siesta:    -11.66772  22.75985   0.00000  2       60
siesta:    -11.66772  25.44831   0.00000  2       61
siesta:     -9.33934  26.79272   0.00000  2       62
siesta:     -9.33934  29.48119   0.00000  2       63
siesta:      4.63094  26.79272   0.00000  2       64
siesta:      4.63094  29.48119   0.00000  2       65
siesta:     -0.02582  26.79272   0.00000  2       66
siesta:     -0.02582  29.48119   0.00000  2       67
siesta:      2.30256  30.82560   0.00000  2       68
siesta:      2.30256  33.51406   0.00000  2       69
siesta:     -7.01096  30.82560   0.00000  2       70
siesta:     -7.01096  33.51406   0.00000  2       71
siesta:     -0.02582  37.54693   0.00000  2       72

siesta: System type = slab      

initatomlists: Number of atoms, orbitals, and projectors:     72   936  1152

siesta: ******************** Simulation parameters ****************************
siesta:
siesta: The following are some of the parameters of the simulation.
siesta: A complete list of the parameters used, including default values,
siesta: can be found in file out.fdf
siesta:
redata: Non-Collinear-spin run           =     F
redata: SpinPolarized (Up/Down) run      =     F
redata: Number of spin components        =     1
redata: Long output                      =     F
redata: Number of Atomic Species         =        2
redata: Charge density info will appear in .RHO file
redata: Write Mulliken Pop.              =     NO
redata: Mesh Cutoff                      =   200.0000  Ry
redata: Net charge of the system         =     0.0000 |e|
redata: Max. number of SCF Iter          =      500
redata: SCF convergence failure will abort job
redata: Performing Pulay mixing using    =    10 iterations
redata: Mix DM in first SCF step ?       =     F
redata: Write Pulay info on disk?        =     F
redata: Discard 1st Pulay DM after  kick =     F
redata: New DM Mixing Weight             =     0.0500
redata: New DM Occupancy tolerance       = 0.000000000001
redata: No kicks to SCF
redata: DM Mixing Weight for Kicks       =     0.5000
redata: DM Tolerance for SCF             =     0.000100
redata: Require Energy convergence for SCF =     F
redata: DM Energy tolerance for SCF      =     0.000100 eV
redata: Require Harris convergence for SCF =     F
redata: DM Harris energy tolerance for SCF =     0.000100 eV
redata: Using Saved Data (generic)   =     F
redata: Use continuation files for DM    =     T
redata: Neglect nonoverlap interactions  =     F
redata: Method of Calculation            =     Diagonalization
redata: Divide and Conquer               =     T
redata: Electronic Temperature           =     0.0019  Ry
redata: Fix the spin of the system       =     F
redata: Dynamics option                  =     Verlet MD run
redata: Initial MD time step             =        1
redata:   Final MD time step             =        1
redata: Length of MD time step           =     1.0000  fs
redata: Initial Temperature of MD run    =     0.0000  K
redata: Perform a MD quench              =     F
redata: ***********************************************************************
Total number of electrons:   264.000000
Total ionic charge:   264.000000

* ProcessorY, Blocksize:    2  24

k-point displ. along   1 input, could be:     0.50    0.00
k-point displ. along   2 input, could be:     0.50    0.00
 Kpoints in:          231 . Kpoints trimmed:          231

siesta: k-grid: Number of k-points =   231
siesta: k-grid: Cutoff (effective) =     5.000 Ang
siesta: k-grid: Supercell and displacements
siesta: k-grid:   21   0   0      0.500
siesta: k-grid:    0  21   0      0.500
siesta: k-grid:    0   0   1      0.000
Naive supercell factors:     2    2    2

superc: Internal auxiliary supercell:     2 x     2 x     2  =       8
superc: Number of atoms, orbitals, and projectors:    576   7488   9216

* Maximum dynamic memory allocated =     4 MB

siesta:                 ==============================
                            Begin MD step =      1
                        ==============================

superc: Internal auxiliary supercell:     2 x     2 x     2  =       8
superc: Number of atoms, orbitals, and projectors:    576   7488   9216

outcell: Unit cell vectors (Ang):
       12.804619    7.392750    0.000000
        0.000000   14.785500    0.000000
        0.000000    0.000000   10.000000

outcell: Cell vector modules (Ang)   :   14.785500   14.785500   10.000000
outcell: Cell angles (23,13,12) (deg):     90.0000     90.0000     60.0000
outcell: Cell volume (Ang**3)        :   1893.2269
New_DM. Step:     1
Initializing Density Matrix...

InitMesh: MESH =   120 x   120 x    90 =     1296000
InitMesh: Mesh cutoff (required, used) =   200.000   223.865 Ry

* Maximum dynamic memory allocated =   231 MB

stepf: Fermi-Dirac step function

siesta: Program's energy decomposition (eV):
siesta: Ebs     =     -5384.952242
siesta: Eions   =     15329.650002
siesta: Ena     =      4131.438572
siesta: Ekin    =      5112.466478
siesta: Enl     =       844.942600
siesta: DEna    =        -0.000007
siesta: DUscf   =         0.000000
siesta: DUext   =         0.000000
siesta: Exc     =     -4192.771878
siesta: eta*DQ  =         0.000000
siesta: Emadel  =         0.000000
siesta: Emeta   =         0.000000
siesta: Emolmec =         0.000000
siesta: Ekinion =         0.000000
siesta: Eharris =     -9261.593529
siesta: Etot    =     -9433.574236
siesta: FreeEng =     -9433.574236

siesta: iscf   Eharris(eV)      E_KS(eV)   FreeEng(eV)   dDmax  Ef(eV)
siesta:    1    -9261.5935    -9433.5742    -9433.5742  5.8056 -8.5259
timer: Routine,Calls,Time,% = IterSCF        1    3463.756  99.69
elaps: Routine,Calls,Wall,% = IterSCF        1     433.831  99.70
siesta:    2   -14911.0832    -8327.9929    -8328.0263 15.6388 -6.0440
siesta:    3    -9314.0756    -9275.6959    -9275.7096  2.0054 -5.9222
siesta:    4    -9253.2970    -9192.5765    -9192.6318  1.3031 -5.9161
siesta:    5    -9187.1488    -9123.6581    -9123.7239  1.0513 -5.5297
siesta:    6    -9146.8149    -9091.5349    -9091.5996  0.8718 -5.3375
siesta:    7    -9130.9692    -9077.2405    -9077.2918  0.7579 -5.3711
siesta:    8    -9121.7392    -9069.3495    -9069.3840  0.5551 -5.3316
siesta:    9    -9119.9153    -9070.5667    -9070.6377  0.5039 -5.3771
siesta:   10    -9119.3251    -9074.6376    -9074.7022  0.3411 -5.3801
siesta:   11    -9118.7221    -9080.2179    -9080.2902  0.2263 -5.3613
siesta:   12    -9118.3095    -9090.4633    -9090.5170  0.2064 -5.3265
siesta:   13    -9117.6320    -9095.5496    -9095.5904  0.1553 -5.2960
siesta:   14    -9117.3110    -9101.0288    -9101.0850  0.0976 -5.3043
siesta:   15    -9117.0475    -9104.4718    -9104.5345  0.0811 -5.3184
siesta:   16    -9117.0018    -9105.0923    -9105.1759  0.0830 -5.3273
siesta:   17    -9116.9673    -9107.4008    -9107.4675  0.0473 -5.3502
siesta:   18    -9116.9108    -9110.0093    -9110.0664  0.0298 -5.3648
siesta:   19    -9116.8711    -9113.7914    -9113.8498  0.0197 -5.3776
siesta:   20    -9116.8731    -9114.9386    -9115.0018  0.0222 -5.3768
siesta:   21    -9116.8671    -9116.2594    -9116.3182  0.0240 -5.3711
siesta:   22    -9116.8582    -9116.5433    -9116.6013  0.0193 -5.3678
siesta:   23    -9116.8561    -9116.7471    -9116.8065  0.0073 -5.3660
siesta:   24    -9116.8547    -9116.8572    -9116.9166  0.0033 -5.3635
siesta:   25    -9116.8532    -9116.8468    -9116.9074  0.0021 -5.3629
siesta:   26    -9116.8526    -9116.8277    -9116.8894  0.0019 -5.3626
siesta:   27    -9116.8526    -9116.8589    -9116.9209  0.0015 -5.3627
siesta:   28    -9116.8527    -9116.8986    -9116.9605  0.0011 -5.3629
siesta:   29    -9116.8528    -9116.9393    -9117.0011  0.0009 -5.3632
siesta:   30    -9116.8528    -9116.9149    -9116.9766  0.0009 -5.3635
siesta:   31    -9116.8528    -9116.9076    -9116.9693  0.0005 -5.3635
siesta:   32    -9116.8527    -9116.8807    -9116.9424  0.0004 -5.3635
siesta:   33    -9116.8527    -9116.8702    -9116.9320  0.0003 -5.3635
siesta:   34    -9116.8527    -9116.8662    -9116.9280  0.0002 -5.3634
siesta:   35    -9116.8527    -9116.8658    -9116.9276  0.0001 -5.3634
siesta:   36    -9116.8527    -9116.8579    -9116.9197  0.0001 -5.3634

siesta: E_KS(eV) =            -9116.8544

siesta: E_KS - E_eggbox =     -9116.8544

siesta: Atomic forces (eV/Ang):
----------------------------------------
   Tot   -0.034388   -0.019234    0.000000
----------------------------------------
   Max  551.521708
   Res  129.759270    sqrt( Sum f_i^2 / 3N )
----------------------------------------
   Max  551.521708    constrained

Stress-tensor-Voigt (kbar):     -732.99    -2331.01       -0.72        0.63        0.00        0.00
(Free)E + p*V (eV/cell)    -7909.7783
Target enthalpy (eV/cell)    -9116.9162

siesta: Stress tensor (static) (eV/Ang**3):
        -0.457489    0.000393    0.000000
         0.000392   -1.454885    0.000000
         0.000000    0.000000   -0.000451

siesta: Pressure (static):       1021.57278570  kBar

siesta: Stress tensor (total) (eV/Ang**3):
        -0.457489    0.000393    0.000000
         0.000392   -1.454885    0.000000
         0.000000    0.000000   -0.000451

siesta: Pressure (total):       1021.57278570  kBar

siesta: Temp_ion =       0.000 K

* Maximum dynamic memory allocated =   247 MB
Computing bands...

siesta: Program's energy decomposition (eV):
siesta: Ebs     =     -4036.670812
siesta: Eions   =     15329.650002
siesta: Ena     =      4131.438572
siesta: Ekin    =      7785.541811
siesta: Enl     =      -732.306164
siesta: DEna    =      -716.464694
siesta: DUscf   =        93.794468
siesta: DUext   =         0.000000
siesta: Exc     =     -4349.208418
siesta: eta*DQ  =         0.000000
siesta: Emadel  =         0.000000
siesta: Emeta   =         0.000000
siesta: Emolmec =         0.000000
siesta: Ekinion =         0.000000
siesta: Eharris =     -9116.852668
siesta: Etot    =     -9116.854426
siesta: FreeEng =     -9116.916218

siesta: Final energy (eV):
siesta:  Band Struct. =   -4036.670812
siesta:       Kinetic =    7785.541811
siesta:       Hartree =   24881.330684
siesta:    Ext. field =       0.000000
siesta:   Exch.-corr. =   -4349.208418
siesta:  Ion-electron =  -57264.114828
siesta:       Ion-ion =   19829.596324
siesta:       Ekinion =       0.000000
siesta:         Total =   -9116.854426

siesta: Atomic forces (eV/Ang):
siesta:      1    5.157717  411.021630    0.000000
siesta:      2    0.586285  -98.781740    0.000000
siesta:      3   -1.180189 -400.560167    0.000000
siesta:      4    7.002693 -299.179938    0.000000
siesta:      5    8.502862    3.015639    0.000000
siesta:      6    1.175547  400.545087    0.000000
siesta:      7   -6.978463  299.221037    0.000000
siesta:      8   -1.301282 -104.439690    0.000000
siesta:      9   19.792834  299.330824    0.000000
siesta:     10   15.732914    0.712832    0.000000
siesta:     11    3.338567   -3.665702    0.000000
siesta:     12   -5.281313    3.685955    0.000000
siesta:     13    4.276755   -2.794811    0.000000
siesta:     14   -6.231744    3.083050    0.000000
siesta:     15   -8.478686   -3.010911    0.000000
siesta:     16    6.233448   -3.097623    0.000000
siesta:     17   -4.289290    2.812234    0.000000
siesta:     18    5.278765   -3.691913    0.000000
siesta:     19   -3.320242    3.672257    0.000000
siesta:     20  -15.732843   -0.710863    0.000000
siesta:     21  -19.785237 -299.348762    0.000000
siesta:     22    1.292179  104.440437    0.000000
siesta:     23   -0.620907   98.747519    0.000000
siesta:     24   -5.176074 -411.018899    0.000000
siesta:     25    0.567318  126.095106    0.000000
siesta:     26   -0.782886  122.555772    0.000000
siesta:     27   26.626059    1.076429    0.000000
siesta:     28   33.742008 -551.449455    0.000000
siesta:     29    3.275947    1.328149    0.000000
siesta:     30   -2.384479    2.064216    0.000000
siesta:     31   -3.563291    3.622011    0.000000
siesta:     32  -24.517354   -0.766061    0.000000
siesta:     33  -30.486207 -551.521708    0.000000
siesta:     34   -0.613944 -126.086366    0.000000
siesta:     35   30.514287  551.509343    0.000000
siesta:     36   24.531196    0.737725    0.000000
siesta:     37   -1.959471   -1.612374    0.000000
siesta:     38    5.714943   -2.968002    0.000000
siesta:     39   -0.824899    1.037796    0.000000
siesta:     40    6.166151   -4.553099    0.000000
siesta:     41    0.432798    6.378952    0.000000
siesta:     42    3.013121   -8.713012    0.000000
siesta:     43    0.748479 -122.554396    0.000000
siesta:     44    0.468628  550.508332    0.000000
siesta:     45  -33.727196  551.461042    0.000000
siesta:     46  -26.654399   -1.064427    0.000000
siesta:     47  -19.934730  406.883698    0.000000
siesta:     48  -22.558517   -3.833810    0.000000
siesta:     49    4.045883  419.387889    0.000000
siesta:     50   -0.955202    3.657896    0.000000
siesta:     51   -3.255150    0.739311    0.000000
siesta:     52   -1.735536    0.887948    0.000000
siesta:     53    2.381714   -2.062845    0.000000
siesta:     54   -3.260200   -1.329365    0.000000
siesta:     55    2.639680    1.575061    0.000000
siesta:     56    1.594562   -1.402726    0.000000
siesta:     57    1.735085   -0.878611    0.000000
siesta:     58    3.248655   -0.718010    0.000000
siesta:     59    3.566825   -3.615156    0.000000
siesta:     60   -3.004584    8.713677    0.000000
siesta:     61   -0.420353   -6.383348    0.000000
siesta:     62   -6.144986    4.535556    0.000000
siesta:     63    0.826766   -1.047905    0.000000
siesta:     64   -1.607516    1.386897    0.000000
siesta:     65   -2.652350   -1.585366    0.000000
siesta:     66    0.934172   -3.656028    0.000000
siesta:     67   -4.039346 -419.440161    0.000000
siesta:     68   22.546568    3.841571    0.000000
siesta:     69   19.881923 -406.814129    0.000000
siesta:     70   -5.703494    2.963963    0.000000
siesta:     71    1.958856    1.628618    0.000000
siesta:     72   -0.404213 -550.527313    0.000000
siesta: ----------------------------------------
siesta:    Tot   -0.034388   -0.019234    0.000000

siesta: Stress tensor (static) (eV/Ang**3):
siesta:    -0.457489    0.000393    0.000000
siesta:     0.000392   -1.454885    0.000000
siesta:     0.000000    0.000000   -0.000451

siesta: Cell volume =       1893.226884 Ang**3

siesta: Pressure (static):
siesta:                Solid            Molecule  Units
siesta:           0.00694437          0.09742822  Ry/Bohr**3
siesta:           0.63760869          8.94552770  eV/Ang**3
siesta:        1021.57278570      14332.47038568  kBar
(Free)E+ p_basis*V_orbitals  =       -9078.595719
(Free)Eharris+ p_basis*V_orbitals  =       -9078.590458

siesta: Electric dipole (a.u.)  =    0.000000    0.000000    0.000000
siesta: Electric dipole (Debye) =    0.000000    0.000000    0.000000

* Maximum dynamic memory allocated : Node    0 =   247 MB
* Maximum dynamic memory allocated : Node    1 =    85 MB
* Maximum dynamic memory allocated : Node    2 =    89 MB
* Maximum dynamic memory allocated : Node    3 =   236 MB
* Maximum dynamic memory allocated : Node    4 =   230 MB
* Maximum dynamic memory allocated : Node    5 =    82 MB
* Maximum dynamic memory allocated : Node    6 =    85 MB
* Maximum dynamic memory allocated : Node    7 =   210 MB

* Maximum memory occured during matrixMtoO                    

timer: CPU execution times:
timer:  Routine       Calls   Time/call    Tot.time        %
timer:  siesta            1  121570.172  121570.172   100.00
timer:  Setup             1       2.678       2.678     0.00
timer:  bands             3     243.788     731.364     0.60
timer:  writewave         1       0.018       0.018     0.00
timer:  KSV_init          1       0.001       0.001     0.00
timer:  IterMD            1  120830.899  120830.899    99.39
timer:  hsparse           1       0.516       0.516     0.00
timer:  overlap           1       7.207       7.207     0.01
timer:  IterSCF          36    3350.357  120612.854    99.21
timer:  kinefsm           2       3.747       7.494     0.01
timer:  nlefsm            2      20.272      40.544     0.03
timer:  DHSCF            37     118.183    4372.769     3.60
timer:  DHSCF1            1       0.990       0.990     0.00
timer:  DHSCF2            1      43.499      43.499     0.04
timer:  REORD           298       0.005       1.502     0.00
timer:  POISON           38       0.879      33.408     0.03
timer:  DHSCF3           37     115.819    4285.314     3.52
timer:  rhoofd           37      25.365     938.516     0.77
timer:  cellXC           37       3.271     121.035     0.10
timer:  vmat             37      53.125    1965.618     1.62
timer:  MolMec            2       0.000       0.000     0.00
timer:  diagon           36    3231.554  116335.933    95.69
timer:  c-eigval       8437       6.032   50890.312    41.86
timer:  c-buildHS      8437       0.052     440.525     0.36
timer:  cdiag         16753       6.139  102838.829    84.59
timer:  cdiag1        16753       0.385    6454.420     5.31
timer:  cdiag2        16753       1.767   29610.000    24.36
timer:  cdiag3        16753       3.734   62558.692    51.46
timer:  cdiag4        16753       0.156    2611.461     2.15
timer:  c-eigvec       8316       6.344   52755.359    43.39
timer:  c-buildD       8316       1.609   13379.418    11.01
timer:  DHSCF4            1      42.279      42.279     0.03
timer:  dfscf             1      39.456      39.456     0.03
timer:  overfsm           1       0.455       0.455     0.00
timer:  optical           1       4.568       4.568     0.00
  

elaps: ELAPSED times:
elaps:  Routine       Calls   Time/call    Tot.time        %
elaps:  siesta            1   15225.319   15225.319   100.00
elaps:  Setup             1       0.336       0.336     0.00
elaps:  bands             3      30.549      91.648     0.60
elaps:  writewave         1       0.002       0.002     0.00
elaps:  KSV_init          1       0.000       0.000     0.00
elaps:  IterMD            1   15132.733   15132.733    99.39
elaps:  hsparse           1       0.064       0.064     0.00
elaps:  overlap           1       0.900       0.900     0.01
elaps:  IterSCF          36     419.595   15105.434    99.21
elaps:  kinefsm           2       0.468       0.935     0.01
elaps:  nlefsm            2       2.578       5.156     0.03
elaps:  DHSCF            37      14.945     552.979     3.63
elaps:  DHSCF1            1       0.126       0.126     0.00
elaps:  DHSCF2            1       5.447       5.447     0.04
elaps:  REORD           298       0.001       0.206     0.00
elaps:  POISON           38       0.110       4.176     0.03
elaps:  DHSCF3           37      14.506     536.715     3.53
elaps:  rhoofd           37       6.799     251.574     1.65
elaps:  cellXC           37       0.409      15.146     0.10
elaps:  vmat             37       6.654     246.187     1.62
elaps:  MolMec            2       0.000       0.000     0.00
elaps:  diagon           36     404.715   14569.754    95.69
elaps:  c-eigval       8437       0.755    6373.398    41.86
elaps:  c-buildHS      8437       0.007      57.049     0.37
elaps:  cdiag         16753       0.769   12885.465    84.63
elaps:  cdiag1        16753       0.048     810.060     5.32
elaps:  cdiag2        16753       0.221    3709.236    24.36
elaps:  cdiag3        16753       0.468    7845.052    51.53
elaps:  cdiag4        16753       0.019     323.464     2.12
elaps:  c-eigvec       8316       0.795    6613.924    43.44
elaps:  c-buildD       8316       0.201    1668.106    10.96
elaps:  DHSCF4            1      10.608      10.608     0.07
elaps:  dfscf             1      10.039      10.039     0.07
elaps:  overfsm           1       0.056       0.056     0.00
elaps:  optical           1       0.000       0.000     0.00
  
>> End of run:  24-APR-2016   0:50:21
