Siesta Version:                                        siesta-3.2-pl-3
Architecture  : x86_64-unknown-linux-gnu--unknown
Compiler flags: mpiifort -g -O2 -fPIC -xSSE4.1 -fp-model source -shared-intel 
PARALLEL version

* Running on   12 nodes in parallel
>> Start of run:  14-APR-2016  14:59:04

                           ***********************       
                           *  WELCOME TO SIESTA  *       
                           ***********************       

reinit: Reading from standard input
************************** Dump of input data file ****************************
#(1) General system descriptors
SystemName            GRP_doping    # Descriptive name of the system
SystemLabel           GRP_doping    # Short name for naming files
%include STRUCT.fdf
%include KPT.fdf
%include BASIS.fdf
#%include TS.fdf # for transiesta calculation
#(4) DFT, Grid, SCF
XC.functional         GGA           # LDA or GGA (default = LDA)
XC.authors            PBE           # CA (Ceperley-Aldr) = PZ
                                    #    (Perdew-Zunger) - LDA - Default
                                    # PW92 (Perdew-Wang-92) - LDA
                                    # PBE (Perdew-Burke-Ernzerhof) - GGA
MeshCutoff            200.000000    Ry      # Default: 50.0 Ry ~ 0.444 Bohr
                                    #         100.0 Ry ~ 0.314 Bohr
MaxSCFIterations      500           # Default: 50
DM.MixingWeight       0.05          # Default: 0.25
DM.NumberPulay        10            # Default: 0
DM.PulayOnFile        F             # SystemLabel.P1, SystemLabel.P2
DM.Tolerance          1.d-4         # Default: 1.d-4
DM.UseSaveDM          .true.        # because of the bug
SCFMustConverge       .true.
NeglNonOverlapInt     F             # Default: F
#(5) Eigenvalue problem: order-N or diagonalization
SolutionMethod        Diagon        # or Transiesta
ElectronicTemperature 300.0 K       # Default: 300.0 K
#(6) Molecular dynamics and relaxations
#MD.TypeOfRun          CG            # Type of dynamics:
#MD.VariableCell       F
#MD.NumCGsteps         0           # 0 for single-point / 100 for gopt
#MD.MaxCGDispl         0.2 Bohr      # Default: 0.2 Bohr
#MD.MaxForceTol        0.02 eV/Ang   # Default: 0.04 eV/Ang
#MD.MaxStressTol       1.0 GPa       # Default: 1.0 GPa
# Geometry Constraints
#%block GeometryConstraints
#	position from 1 to 44
#%endblock GeometryConstraints
BandLinesScale   pi/a
%block BandLines
 1   0.00000000  0.00000000  0.00000000
50   0.00000000  0.07809418  0.00000000
50   0.04509075  0.07809242  0.00000000
20   0.00000000  0.00000000  0.00000000
%endblock BandLines
************************** End of input data file *****************************

reinit: -----------------------------------------------------------------------
reinit: System Name: GRP_doping
reinit: -----------------------------------------------------------------------
reinit: System Label: GRP_doping                                                  
reinit: -----------------------------------------------------------------------

initatom: Reading input for the pseudopotentials and atomic orbitals ----------
 Species number:            1  Label: N Atomic number:           7
 Species number:            2  Label: C Atomic number:           6
Ground state valence configuration:   2s02  2p03
Reading pseudopotential information in formatted form from N.psf

Valence configuration for pseudopotential generation:
2s( 2.00) rc: 1.48
2p( 3.00) rc: 1.48
3d( 0.00) rc: 1.48
4f( 0.00) rc: 1.48
Ground state valence configuration:   2s02  2p02
Reading pseudopotential information in formatted form from C.psf

Valence configuration for pseudopotential generation:
2s( 2.00) rc: 1.54
2p( 2.00) rc: 1.54
3d( 0.00) rc: 1.54
4f( 0.00) rc: 1.54
For N, standard SIESTA heuristics set lmxkb to 3
 (one more than the basis l, including polarization orbitals).
Use PS.lmax or PS.KBprojectors blocks to override.
For C, standard SIESTA heuristics set lmxkb to 3
 (one more than the basis l, including polarization orbitals).
Use PS.lmax or PS.KBprojectors blocks to override.

<basis_specs>
===============================================================================
N                    Z=   7    Mass=  14.010        Charge= 0.17977+309
Lmxo=1 Lmxkb= 3    BasisType=split      Semic=F
L=0  Nsemic=0  Cnfigmx=2
          n=1  nzeta=2  polorb=0
            splnorm:   0.15000    
               vcte:    0.0000    
               rinn:    0.0000    
                rcs:    0.0000      0.0000    
            lambdas:    1.0000      1.0000    
L=1  Nsemic=0  Cnfigmx=2
          n=1  nzeta=2  polorb=1
            splnorm:   0.15000    
               vcte:    0.0000    
               rinn:    0.0000    
                rcs:    0.0000      0.0000    
            lambdas:    1.0000      1.0000    
-------------------------------------------------------------------------------
L=0  Nkbl=1  erefs: 0.17977+309
L=1  Nkbl=1  erefs: 0.17977+309
L=2  Nkbl=1  erefs: 0.17977+309
L=3  Nkbl=1  erefs: 0.17977+309
===============================================================================
</basis_specs>

atom: Called for N                     (Z =   7)

read_vps: Pseudopotential generation method:
read_vps: ATM3      Troullier-Martins                       
Total valence charge:    5.00000

read_vps: Pseudopotential includes a core correction:
read_vps: Pseudo-core for xc-correction

xc_check: Exchange-correlation functional:
xc_check: GGA Perdew, Burke & Ernzerhof 1996
V l=0 = -2*Zval/r beyond r=  1.4606
V l=1 = -2*Zval/r beyond r=  1.4606
V l=2 = -2*Zval/r beyond r=  1.4606
V l=3 = -2*Zval/r beyond r=  1.4606
All V_l potentials equal beyond r=  1.4606
This should be close to max(r_c) in ps generation
All pots = -2*Zval/r beyond r=  1.4606

VLOCAL1: 99.0% of the norm of Vloc inside     20.347 Ry
VLOCAL1: 99.9% of the norm of Vloc inside     46.372 Ry
atom: Maximum radius for 4*pi*r*r*local-pseudopot. charge    1.76189
atom: Maximum radius for r*vlocal+2*Zval:    1.53550
GHOST: No ghost state for L =  0
GHOST: No ghost state for L =  1
GHOST: No ghost state for L =  2
GHOST: No ghost state for L =  3

KBgen: Kleinman-Bylander projectors: 
   l= 0   rc=  1.634559   el= -1.363963   Ekb=  5.296955   kbcos=  0.335621
   l= 1   rc=  1.614250   el= -0.521451   Ekb= -5.259161   kbcos= -0.433408
   l= 2   rc=  1.718383   el=  0.001991   Ekb= -1.271464   kbcos= -0.007566
   l= 3   rc=  1.761893   el=  0.003093   Ekb= -0.494769   kbcos= -0.001015

KBgen: Total number of  Kleinman-Bylander projectors:   16
atom: -------------------------------------------------------------------------

atom: SANKEY-TYPE ORBITALS:
atom: Selected multiple-zeta basis: split     

SPLIT: Orbitals with angular momentum L= 0

SPLIT: Basis orbitals for state 2s

SPLIT: PAO cut-off radius determined from an
SPLIT: energy shift=  0.007350 Ry

   izeta = 1
                 lambda =    1.000000
                     rc =    4.071465
                 energy =   -1.356470
                kinetic =    1.176977
    potential(screened) =   -2.533447
       potential(ionic) =   -8.057990

   izeta = 2
                 rmatch =    2.905100
              splitnorm =    0.150000
                 energy =   -1.158343
                kinetic =    1.813009
    potential(screened) =   -2.971352
       potential(ionic) =   -8.901931

SPLIT: Orbitals with angular momentum L= 1

SPLIT: Basis orbitals for state 2p

SPLIT: PAO cut-off radius determined from an
SPLIT: energy shift=  0.007350 Ry

   izeta = 1
                 lambda =    1.000000
                     rc =    4.972977
                 energy =   -0.513884
                kinetic =    3.441732
    potential(screened) =   -3.955616
       potential(ionic) =   -9.287901

   izeta = 2
                 rmatch =    3.054066
              splitnorm =    0.150000
                 energy =   -0.318226
                kinetic =    5.125348
    potential(screened) =   -5.443573
       potential(ionic) =  -11.380999

POLgen: Perturbative polarization orbital with L=  2

POLgen: Polarization orbital for state 2p

   izeta = 1
                     rc =    4.972977
                 energy =    1.607437
                kinetic =    3.268125
    potential(screened) =   -1.660688
       potential(ionic) =   -5.973652
atom: Total number of Sankey-type orbitals: 13

atm_pop: Valence configuration (for local Pseudopot. screening):
 2s( 2.00)                                                            
 2p( 3.00)                                                            
Vna: chval, zval:    5.00000   5.00000

Vna:  Cut-off radius for the neutral-atom potential:   4.972977
comcore: Pseudo-core radius Rcore=  1.554824

atom: _________________________________________________________________________

<basis_specs>
===============================================================================
C                    Z=   6    Mass=  12.010        Charge= 0.17977+309
Lmxo=1 Lmxkb= 3    BasisType=split      Semic=F
L=0  Nsemic=0  Cnfigmx=2
          n=1  nzeta=2  polorb=0
            splnorm:   0.15000    
               vcte:    0.0000    
               rinn:    0.0000    
                rcs:    0.0000      0.0000    
            lambdas:    1.0000      1.0000    
L=1  Nsemic=0  Cnfigmx=2
          n=1  nzeta=2  polorb=1
            splnorm:   0.15000    
               vcte:    0.0000    
               rinn:    0.0000    
                rcs:    0.0000      0.0000    
            lambdas:    1.0000      1.0000    
-------------------------------------------------------------------------------
L=0  Nkbl=1  erefs: 0.17977+309
L=1  Nkbl=1  erefs: 0.17977+309
L=2  Nkbl=1  erefs: 0.17977+309
L=3  Nkbl=1  erefs: 0.17977+309
===============================================================================
</basis_specs>

atom: Called for C                     (Z =   6)

read_vps: Pseudopotential generation method:
read_vps: ATM3      Troullier-Martins                       
Total valence charge:    4.00000

read_vps: Pseudopotential includes a core correction:
read_vps: Pseudo-core for xc-correction

xc_check: Exchange-correlation functional:
xc_check: GGA Perdew, Burke & Ernzerhof 1996
V l=0 = -2*Zval/r beyond r=  1.5227
V l=1 = -2*Zval/r beyond r=  1.5227
V l=2 = -2*Zval/r beyond r=  1.5227
V l=3 = -2*Zval/r beyond r=  1.5038
All V_l potentials equal beyond r=  1.5227
This should be close to max(r_c) in ps generation
All pots = -2*Zval/r beyond r=  1.5227

VLOCAL1: 99.0% of the norm of Vloc inside     18.722 Ry
VLOCAL1: 99.9% of the norm of Vloc inside     42.668 Ry
atom: Maximum radius for 4*pi*r*r*local-pseudopot. charge    1.83678
atom: Maximum radius for r*vlocal+2*Zval:    1.58088
GHOST: No ghost state for L =  0
GHOST: No ghost state for L =  1
GHOST: No ghost state for L =  2
GHOST: No ghost state for L =  3

KBgen: Kleinman-Bylander projectors: 
   l= 0   rc=  1.704034   el= -1.009801   Ekb=  5.335044   kbcos=  0.316824
   l= 1   rc=  1.704034   el= -0.388707   Ekb= -3.785862   kbcos= -0.366464
   l= 2   rc=  1.791422   el=  0.001971   Ekb= -0.970471   kbcos= -0.009212
   l= 3   rc=  1.859892   el=  0.003065   Ekb= -0.399525   kbcos= -0.001223

KBgen: Total number of  Kleinman-Bylander projectors:   16
atom: -------------------------------------------------------------------------

atom: SANKEY-TYPE ORBITALS:
atom: Selected multiple-zeta basis: split     

SPLIT: Orbitals with angular momentum L= 0

SPLIT: Basis orbitals for state 2s

SPLIT: PAO cut-off radius determined from an
SPLIT: energy shift=  0.007350 Ry

   izeta = 1
                 lambda =    1.000000
                     rc =    4.632753
                 energy =   -1.002270
                kinetic =    0.855760
    potential(screened) =   -1.858031
       potential(ionic) =   -5.417575

   izeta = 2
                 rmatch =    3.431921
              splitnorm =    0.150000
                 energy =   -0.867111
                kinetic =    1.300804
    potential(screened) =   -2.167915
       potential(ionic) =   -5.962684

SPLIT: Orbitals with angular momentum L= 1

SPLIT: Basis orbitals for state 2p

SPLIT: PAO cut-off radius determined from an
SPLIT: energy shift=  0.007350 Ry

   izeta = 1
                 lambda =    1.000000
                     rc =    5.658549
                 energy =   -0.381140
                kinetic =    2.399701
    potential(screened) =   -2.780841
       potential(ionic) =   -6.206085

   izeta = 2
                 rmatch =    3.653288
              splitnorm =    0.150000
                 energy =   -0.249149
                kinetic =    3.542762
    potential(screened) =   -3.791911
       potential(ionic) =   -7.581078

POLgen: Perturbative polarization orbital with L=  2

POLgen: Polarization orbital for state 2p

   izeta = 1
                     rc =    5.658549
                 energy =    1.109913
                kinetic =    2.304789
    potential(screened) =   -1.194876
       potential(ionic) =   -4.013592
atom: Total number of Sankey-type orbitals: 13

atm_pop: Valence configuration (for local Pseudopot. screening):
 2s( 2.00)                                                            
 2p( 2.00)                                                            
Vna: chval, zval:    4.00000   4.00000

Vna:  Cut-off radius for the neutral-atom potential:   5.658549
comcore: Pseudo-core radius Rcore=  1.791422

atom: _________________________________________________________________________

prinput: Basis input ----------------------------------------------------------

PAO.BasisType split     

%block ChemicalSpeciesLabel
    1    7 N                       # Species index, atomic number, species label
    2    6 C                       # Species index, atomic number, species label
%endblock ChemicalSpeciesLabel

%block PAO.Basis                 # Define Basis set
N                     2                    # Species label, number of l-shells
 n=2   0   2                         # n, l, Nzeta 
   4.071      2.905   
   1.000      1.000   
 n=2   1   2 P   1                   # n, l, Nzeta, Polarization, NzetaPol
   4.973      3.054   
   1.000      1.000   
C                     2                    # Species label, number of l-shells
 n=2   0   2                         # n, l, Nzeta 
   4.633      3.432   
   1.000      1.000   
 n=2   1   2 P   1                   # n, l, Nzeta, Polarization, NzetaPol
   5.659      3.653   
   1.000      1.000   
%endblock PAO.Basis

prinput: ----------------------------------------------------------------------

coor:   Atomic-coordinates input format  =     Fractional

siesta: Atomic coordinates (Bohr) and species
siesta:     -0.02582   2.59549   0.00000  1        1
siesta:      4.63094  10.66124   0.00000  1        2
siesta:      9.28770  18.72698   0.00000  1        3
siesta:     -4.68258  10.66124   0.00000  1        4
siesta:     -9.33934  18.72698   0.00000  1        5
siesta:      4.63094  26.79272   0.00000  1        6
siesta:     -0.02582  34.85847   0.00000  1        7
siesta:     -0.02582   5.28395   0.00000  2        8
siesta:     -2.35420  38.89134   0.00000  2        9
siesta:     -2.35420  41.57980   0.00000  2       10
siesta:      2.30256  38.89134   0.00000  2       11
siesta:      2.30256  41.57980   0.00000  2       12
siesta:      4.63094  34.85847   0.00000  2       13
siesta:      4.63094  37.54693   0.00000  2       14
siesta:      6.95932  30.82560   0.00000  2       15
siesta:      6.95932  33.51406   0.00000  2       16
siesta:      9.28770  26.79272   0.00000  2       17
siesta:      9.28770  29.48119   0.00000  2       18
siesta:     -4.68258  34.85847   0.00000  2       19
siesta:     -4.68258  37.54693   0.00000  2       20
siesta:      2.30256   6.62836   0.00000  2       21
siesta:      2.30256   9.31683   0.00000  2       22
siesta:      4.63094  13.34970   0.00000  2       23
siesta:      6.95932  14.69411   0.00000  2       24
siesta:      6.95932  17.38257   0.00000  2       25
siesta:      9.28770  21.41544   0.00000  2       26
siesta:     11.61608  22.75985   0.00000  2       27
siesta:     11.61608  25.44831   0.00000  2       28
siesta:     -2.35420   6.62836   0.00000  2       29
siesta:     -2.35420   9.31683   0.00000  2       30
siesta:     -0.02582  10.66124   0.00000  2       31
siesta:     -0.02582  13.34970   0.00000  2       32
siesta:      2.30256  14.69411   0.00000  2       33
siesta:      2.30256  17.38257   0.00000  2       34
siesta:      4.63094  18.72698   0.00000  2       35
siesta:      4.63094  21.41544   0.00000  2       36
siesta:      6.95932  22.75985   0.00000  2       37
siesta:      6.95932  25.44831   0.00000  2       38
siesta:     -4.68258  13.34970   0.00000  2       39
siesta:     -2.35420  14.69411   0.00000  2       40
siesta:     -2.35420  17.38257   0.00000  2       41
siesta:     -0.02582  18.72698   0.00000  2       42
siesta:     -0.02582  21.41544   0.00000  2       43
siesta:      2.30256  22.75985   0.00000  2       44
siesta:      2.30256  25.44831   0.00000  2       45
siesta:     -7.01096  14.69411   0.00000  2       46
siesta:     -7.01096  17.38257   0.00000  2       47
siesta:     -4.68258  18.72698   0.00000  2       48
siesta:     -4.68258  21.41544   0.00000  2       49
siesta:     -2.35420  22.75985   0.00000  2       50
siesta:     -2.35420  25.44831   0.00000  2       51
siesta:     -9.33934  21.41544   0.00000  2       52
siesta:     -7.01096  22.75985   0.00000  2       53
siesta:     -7.01096  25.44831   0.00000  2       54
siesta:    -11.66772  22.75985   0.00000  2       55
siesta:    -11.66772  25.44831   0.00000  2       56
siesta:     -9.33934  26.79272   0.00000  2       57
siesta:     -9.33934  29.48119   0.00000  2       58
siesta:      4.63094  29.48119   0.00000  2       59
siesta:     -0.02582  26.79272   0.00000  2       60
siesta:     -0.02582  29.48119   0.00000  2       61
siesta:     -4.68258  26.79272   0.00000  2       62
siesta:     -4.68258  29.48119   0.00000  2       63
siesta:      2.30256  30.82560   0.00000  2       64
siesta:      2.30256  33.51406   0.00000  2       65
siesta:     -2.35420  30.82560   0.00000  2       66
siesta:     -2.35420  33.51406   0.00000  2       67
siesta:     -7.01096  30.82560   0.00000  2       68
siesta:     -7.01096  33.51406   0.00000  2       69
siesta:     -0.02582  37.54693   0.00000  2       70
siesta:     -0.02582  42.92421   0.00000  2       71
siesta:     -0.02582  45.61267   0.00000  2       72

siesta: System type = slab      

initatomlists: Number of atoms, orbitals, and projectors:     72   936  1152

siesta: ******************** Simulation parameters ****************************
siesta:
siesta: The following are some of the parameters of the simulation.
siesta: A complete list of the parameters used, including default values,
siesta: can be found in file out.fdf
siesta:
redata: Non-Collinear-spin run           =     F
redata: SpinPolarized (Up/Down) run      =     F
redata: Number of spin components        =     1
redata: Long output                      =     F
redata: Number of Atomic Species         =        2
redata: Charge density info will appear in .RHO file
redata: Write Mulliken Pop.              =     NO
redata: Mesh Cutoff                      =   200.0000  Ry
redata: Net charge of the system         =     0.0000 |e|
redata: Max. number of SCF Iter          =      500
redata: SCF convergence failure will abort job
redata: Performing Pulay mixing using    =    10 iterations
redata: Mix DM in first SCF step ?       =     F
redata: Write Pulay info on disk?        =     F
redata: Discard 1st Pulay DM after  kick =     F
redata: New DM Mixing Weight             =     0.0500
redata: New DM Occupancy tolerance       = 0.000000000001
redata: No kicks to SCF
redata: DM Mixing Weight for Kicks       =     0.5000
redata: DM Tolerance for SCF             =     0.000100
redata: Require Energy convergence for SCF =     F
redata: DM Energy tolerance for SCF      =     0.000100 eV
redata: Require Harris convergence for SCF =     F
redata: DM Harris energy tolerance for SCF =     0.000100 eV
redata: Using Saved Data (generic)   =     F
redata: Use continuation files for DM    =     T
redata: Neglect nonoverlap interactions  =     F
redata: Method of Calculation            =     Diagonalization
redata: Divide and Conquer               =     T
redata: Electronic Temperature           =     0.0019  Ry
redata: Fix the spin of the system       =     F
redata: Dynamics option                  =     Verlet MD run
redata: Initial MD time step             =        1
redata:   Final MD time step             =        1
redata: Length of MD time step           =     1.0000  fs
redata: Initial Temperature of MD run    =     0.0000  K
redata: Perform a MD quench              =     F
redata: ***********************************************************************
Total number of electrons:   295.000000
Total ionic charge:   295.000000

* ProcessorY, Blocksize:    3  24

k-point displ. along   1 input, could be:     0.50    0.00
k-point displ. along   2 input, could be:     0.50    0.00
 Kpoints in:          231 . Kpoints trimmed:          231

siesta: k-grid: Number of k-points =   231
siesta: k-grid: Cutoff (effective) =     5.000 Ang
siesta: k-grid: Supercell and displacements
siesta: k-grid:   21   0   0      0.500
siesta: k-grid:    0  21   0      0.500
siesta: k-grid:    0   0   1      0.000
Naive supercell factors:     2    2    2

superc: Internal auxiliary supercell:     2 x     2 x     2  =       8
superc: Number of atoms, orbitals, and projectors:    576   7488   9216

* Maximum dynamic memory allocated =     4 MB

siesta:                 ==============================
                            Begin MD step =      1
                        ==============================

superc: Internal auxiliary supercell:     2 x     2 x     2  =       8
superc: Number of atoms, orbitals, and projectors:    576   7488   9216

outcell: Unit cell vectors (Ang):
       12.804619    7.392750    0.000000
        0.000000   14.785500    0.000000
        0.000000    0.000000   10.000000

outcell: Cell vector modules (Ang)   :   14.785500   14.785500   10.000000
outcell: Cell angles (23,13,12) (deg):     90.0000     90.0000     60.0000
outcell: Cell volume (Ang**3)        :   1893.2269
New_DM. Step:     1
Initializing Density Matrix...

iodm: Reading Density Matrix from files

InitMesh: MESH =   120 x   120 x    90 =     1296000
InitMesh: Mesh cutoff (required, used) =   200.000   223.865 Ry

* Maximum dynamic memory allocated =   138 MB

stepf: Fermi-Dirac step function

siesta: Program's energy decomposition (eV):
siesta: Ebs     =     -4789.705110
siesta: Eions   =     19528.238980
siesta: Ena     =      4797.822700
siesta: Ekin    =     10031.056778
siesta: Enl     =     -1298.723898
siesta: DEna    =      -788.970624
siesta: DUscf   =       103.648469
siesta: DUext   =         0.000000
siesta: Exc     =     -4521.752342
siesta: eta*DQ  =         0.000000
siesta: Emadel  =         0.000000
siesta: Emeta   =         0.000000
siesta: Emolmec =         0.000000
siesta: Ekinion =         0.000000
siesta: Eharris =    -11205.158407
siesta: Etot    =    -11205.157898
siesta: FreeEng =    -11205.157898

siesta: iscf   Eharris(eV)      E_KS(eV)   FreeEng(eV)   dDmax  Ef(eV)
siesta:    1   -11205.1584   -11205.1579   -11205.1579  0.0001 -4.2485
timer: Routine,Calls,Time,% = IterSCF        1    3016.934  99.59
elaps: Routine,Calls,Wall,% = IterSCF        1     252.022  99.59

siesta: E_KS(eV) =           -11205.1584

siesta: E_KS - E_eggbox =    -11205.1584

siesta: Atomic forces (eV/Ang):
----------------------------------------
   Tot   -0.453024    0.105839    0.000000
----------------------------------------
   Max  676.941864
   Res  172.152680    sqrt( Sum f_i^2 / 3N )
----------------------------------------
   Max  676.941864    constrained

Stress-tensor-Voigt (kbar):     -680.30    -3009.31       -0.18        0.23        0.00        0.00
(Free)E + p*V (eV/cell)    -9751.9032
Target enthalpy (eV/cell)   -11205.2477

siesta: Stress tensor (static) (eV/Ang**3):
        -0.424606    0.000144    0.000000
         0.000144   -1.878245    0.000000
         0.000000    0.000000   -0.000113

siesta: Pressure (static):       1229.93169400  kBar

siesta: Stress tensor (total) (eV/Ang**3):
        -0.424606    0.000144    0.000000
         0.000144   -1.878245    0.000000
         0.000000    0.000000   -0.000113

siesta: Pressure (total):       1229.93169400  kBar

siesta: Temp_ion =       0.000 K

* Maximum dynamic memory allocated =   148 MB
Computing bands...

siesta: Program's energy decomposition (eV):
siesta: Ebs     =     -4789.705110
siesta: Eions   =     19528.238980
siesta: Ena     =      4797.822700
siesta: Ekin    =     10031.046623
siesta: Enl     =     -1298.721445
siesta: DEna    =      -788.963337
siesta: DUscf   =       103.646813
siesta: DUext   =         0.000000
siesta: Exc     =     -4521.750780
siesta: eta*DQ  =         0.000000
siesta: Emadel  =         0.000000
siesta: Emeta   =         0.000000
siesta: Emolmec =         0.000000
siesta: Ekinion =         0.000000
siesta: Eharris =    -11205.158407
siesta: Etot    =    -11205.158407
siesta: FreeEng =    -11205.247677

siesta: Final energy (eV):
siesta:  Band Struct. =   -4789.705110
siesta:       Kinetic =   10031.046623
siesta:       Hartree =   32590.728226
siesta:    Ext. field =       0.000000
siesta:   Exch.-corr. =   -4521.750780
siesta:  Ion-electron =  -74868.741801
siesta:       Ion-ion =   25563.559326
siesta:       Ekinion =       0.000000
siesta:         Total =  -11205.158407

siesta: Atomic forces (eV/Ang):
siesta:      1    0.338664  648.721151    0.000000
siesta:      2   38.611559  653.404253    0.000000
siesta:      3   -1.605654    0.710168    0.000000
siesta:      4  -38.875739  653.388052    0.000000
siesta:      5    1.572917    0.750639    0.000000
siesta:      6   -0.028048   -0.092355    0.000000
siesta:      7    0.247720  121.403918    0.000000
siesta:      8    0.169916 -116.830608    0.000000
siesta:      9    3.345054  130.536611    0.000000
siesta:     10  -20.524790 -550.271798    0.000000
siesta:     11   -3.231789  130.425196    0.000000
siesta:     12   20.751861 -550.314377    0.000000
siesta:     13   26.606801    6.283533    0.000000
siesta:     14   30.835290 -651.878258    0.000000
siesta:     15    1.350915    0.014286    0.000000
siesta:     16   -2.804918    1.679774    0.000000
siesta:     17    1.263018    2.470033    0.000000
siesta:     18   -1.147297   -0.010031    0.000000
siesta:     19  -26.622838    6.190232    0.000000
siesta:     20  -30.920521 -651.812315    0.000000
siesta:     21    6.394015  547.936466    0.000000
siesta:     22   -6.112054 -131.349014    0.000000
siesta:     23   24.482093   -4.622470    0.000000
siesta:     24   -2.397097   -2.089979    0.000000
siesta:     25    2.258523    1.512070    0.000000
siesta:     26    1.233852   -4.292306    0.000000
siesta:     27   -0.325750    7.001734    0.000000
siesta:     28   -0.092003   -7.978904    0.000000
siesta:     29   -5.610439  547.773601    0.000000
siesta:     30    6.053420 -131.191835    0.000000
siesta:     31   -0.408229  551.070705    0.000000
siesta:     32   -0.191417 -126.737535    0.000000
siesta:     33   18.024576  560.586806    0.000000
siesta:     34   22.880847   -6.634796    0.000000
siesta:     35   -0.965906    2.943566    0.000000
siesta:     36    0.902912   -0.697367    0.000000
siesta:     37   -0.802104    1.245865    0.000000
siesta:     38   -0.443588   -0.678617    0.000000
siesta:     39  -24.509407   -4.612049    0.000000
siesta:     40  -18.003409  560.447543    0.000000
siesta:     41  -23.046068   -6.454120    0.000000
siesta:     42    0.052125  561.361481    0.000000
siesta:     43    0.118679    1.270858    0.000000
siesta:     44   -0.389911    0.414925    0.000000
siesta:     45    1.154147    0.370298    0.000000
siesta:     46    2.365062   -2.056842    0.000000
siesta:     47   -2.187326    1.506714    0.000000
siesta:     48    0.985774    2.626058    0.000000
siesta:     49   -0.882598   -0.303901    0.000000
siesta:     50    0.396298    0.525949    0.000000
siesta:     51   -0.471269   -0.540125    0.000000
siesta:     52   -1.200368   -4.559324    0.000000
siesta:     53    0.505435    0.843377    0.000000
siesta:     54    0.138234   -0.799377    0.000000
siesta:     55    0.287213    7.369029    0.000000
siesta:     56    0.075866   -8.336360    0.000000
siesta:     57   -1.862386    2.617102    0.000000
siesta:     58    1.424423   -0.359072    0.000000
siesta:     59   -1.293128   -3.805746    0.000000
siesta:     60    0.703430    0.009961    0.000000
siesta:     61   -0.208406 -676.941864    0.000000
siesta:     62   -0.294072    0.421295    0.000000
siesta:     63    0.960975   -3.642877    0.000000
siesta:     64   24.849074    5.613141    0.000000
siesta:     65   17.250498 -561.483491    0.000000
siesta:     66  -24.725984    6.515720    0.000000
siesta:     67  -18.332538 -561.377760    0.000000
siesta:     68   -1.511245    0.560399    0.000000
siesta:     69    2.684225    1.734725    0.000000
siesta:     70    0.373904 -540.330348    0.000000
siesta:     71   -0.093766  130.971213    0.000000
siesta:     72    0.019727 -548.036787    0.000000
siesta: ----------------------------------------
siesta:    Tot   -0.453024    0.105839    0.000000

siesta: Stress tensor (static) (eV/Ang**3):
siesta:    -0.424606    0.000144    0.000000
siesta:     0.000144   -1.878245    0.000000
siesta:     0.000000    0.000000   -0.000113

siesta: Cell volume =       1893.226884 Ang**3

siesta: Pressure (static):
siesta:                Solid            Molecule  Units
siesta:           0.00836074          0.13487590  Ry/Bohr**3
siesta:           0.76765469         12.38384682  eV/Ang**3
siesta:        1229.93169400      19841.32446892  kBar
(Free)E+ p_basis*V_orbitals  =      -11175.510803
(Free)Eharris+ p_basis*V_orbitals  =      -11175.511313

siesta: Electric dipole (a.u.)  =    0.000000    0.000000    0.000000
siesta: Electric dipole (Debye) =    0.000000    0.000000    0.000000

* Maximum dynamic memory allocated : Node    0 =   148 MB
* Maximum dynamic memory allocated : Node    1 =    56 MB
* Maximum dynamic memory allocated : Node    2 =    57 MB
* Maximum dynamic memory allocated : Node    3 =   135 MB
* Maximum dynamic memory allocated : Node    4 =   145 MB
* Maximum dynamic memory allocated : Node    5 =    51 MB
* Maximum dynamic memory allocated : Node    6 =    53 MB
* Maximum dynamic memory allocated : Node    7 =   137 MB
* Maximum dynamic memory allocated : Node    8 =   131 MB
* Maximum dynamic memory allocated : Node    9 =    51 MB
* Maximum dynamic memory allocated : Node   10 =    53 MB
* Maximum dynamic memory allocated : Node   11 =   125 MB

* Maximum memory occured during matrixMtoO                    

timer: CPU execution times:
timer:  Routine       Calls   Time/call    Tot.time        %
timer:  siesta            1    3836.158    3836.158   100.00
timer:  Setup             1       3.400       3.400     0.09
timer:  bands             3     226.303     678.908    17.70
timer:  writewave         1       0.023       0.023     0.00
timer:  KSV_init          1       0.004       0.004     0.00
timer:  IterMD            1    3146.865    3146.865    82.03
timer:  hsparse           1       0.164       0.164     0.00
timer:  overlap           1       5.741       5.741     0.15
timer:  IterSCF           1    3016.934    3016.934    78.64
timer:  kinefsm           2       2.921       5.841     0.15
timer:  nlefsm            2      18.941      37.881     0.99
timer:  DHSCF             2      89.365     178.731     4.66
timer:  DHSCF1            1       0.902       0.902     0.02
timer:  DHSCF2            1      25.095      25.095     0.65
timer:  REORD            18       0.002       0.038     0.00
timer:  POISON            3       0.475       1.426     0.04
timer:  DHSCF3            2      65.386     130.772     3.41
timer:  rhoofd            2      13.156      26.313     0.69
timer:  cellXC            2       2.446       4.892     0.13
timer:  vmat              2      32.249      64.498     1.68
timer:  MolMec            2       0.000       0.000     0.00
timer:  diagon            1    2886.014    2886.014    75.23
timer:  c-eigval        352       5.594    1969.242    51.33
timer:  c-buildHS       352       0.033      11.475     0.30
timer:  cdiag           583       5.710    3329.184    86.78
timer:  cdiag1          583       0.299     174.404     4.55
timer:  cdiag2          583       1.710     996.825    25.98
timer:  cdiag3          583       3.476    2026.255    52.82
timer:  cdiag4          583       0.109      63.661     1.66
timer:  c-eigvec        231       5.965    1377.877    35.92
timer:  c-buildD        231       0.937     216.368     5.64
timer:  DHSCF4            1      21.916      21.916     0.57
timer:  dfscf             1      20.467      20.467     0.53
timer:  overfsm           1       0.288       0.288     0.01
timer:  optical           1       6.372       6.372     0.17
  

elaps: ELAPSED times:
elaps:  Routine       Calls   Time/call    Tot.time        %
elaps:  siesta            1     320.455     320.455   100.00
elaps:  Setup             1       0.284       0.284     0.09
elaps:  bands             3      18.920      56.760    17.71
elaps:  writewave         1       0.002       0.002     0.00
elaps:  KSV_init          1       0.000       0.000     0.00
elaps:  IterMD            1     262.875     262.875    82.03
elaps:  hsparse           1       0.016       0.016     0.00
elaps:  overlap           1       0.711       0.711     0.22
elaps:  IterSCF           1     252.022     252.022    78.64
elaps:  kinefsm           2       0.364       0.727     0.23
elaps:  nlefsm            2       1.648       3.296     1.03
elaps:  DHSCF             2       8.360      16.720     5.22
elaps:  DHSCF1            1       0.077       0.077     0.02
elaps:  DHSCF2            1       2.095       2.095     0.65
elaps:  REORD            18       0.000       0.006     0.00
elaps:  POISON            3       0.040       0.119     0.04
elaps:  DHSCF3            2       5.460      10.920     3.41
elaps:  rhoofd            2       2.331       4.662     1.45
elaps:  cellXC            2       0.204       0.408     0.13
elaps:  vmat              2       2.692       5.383     1.68
elaps:  MolMec            2       0.000       0.000     0.00
elaps:  diagon            1     241.094     241.094    75.23
elaps:  c-eigval        352       0.467     164.502    51.33
elaps:  c-buildHS       352       0.003       1.227     0.38
elaps:  cdiag           583       0.473     275.696    86.03
elaps:  cdiag1          583       0.025      14.352     4.48
elaps:  cdiag2          583       0.143      83.318    26.00
elaps:  cdiag3          583       0.291     169.614    52.93
elaps:  cdiag4          583       0.009       5.178     1.62
elaps:  c-eigvec        231       0.490     113.126    35.30
elaps:  c-buildD        231       0.087      20.048     6.26
elaps:  DHSCF4            1       3.623       3.623     1.13
elaps:  dfscf             1       3.431       3.431     1.07
elaps:  overfsm           1       0.031       0.031     0.01
elaps:  optical           1       0.000       0.000     0.00
  
>> End of run:  14-APR-2016  15:04:24
