Siesta Version:                                        siesta-3.2-pl-3
Architecture  : x86_64-unknown-linux-gnu--unknown
Compiler flags: mpiifort -g -O2 -fPIC -xSSE4.1 -fp-model source -shared-intel 
PARALLEL version

* Running on    8 nodes in parallel
>> Start of run:  21-APR-2016   8:51:39

                           ***********************       
                           *  WELCOME TO SIESTA  *       
                           ***********************       

reinit: Reading from standard input
************************** Dump of input data file ****************************
#(1) General system descriptors
SystemName            GRP_doping    # Descriptive name of the system
SystemLabel           GRP_doping    # Short name for naming files
%include STRUCT.fdf
%include KPT.fdf
%include BASIS.fdf
#%include TS.fdf # for transiesta calculation
#(4) DFT, Grid, SCF
XC.functional         GGA           # LDA or GGA (default = LDA)
XC.authors            PBE           # CA (Ceperley-Aldr) = PZ
                                    #    (Perdew-Zunger) - LDA - Default
                                    # PW92 (Perdew-Wang-92) - LDA
                                    # PBE (Perdew-Burke-Ernzerhof) - GGA
MeshCutoff            200.000000    Ry      # Default: 50.0 Ry ~ 0.444 Bohr
                                    #         100.0 Ry ~ 0.314 Bohr
MaxSCFIterations      500           # Default: 50
DM.MixingWeight       0.05          # Default: 0.25
DM.NumberPulay        10            # Default: 0
DM.PulayOnFile        F             # SystemLabel.P1, SystemLabel.P2
DM.Tolerance          1.d-4         # Default: 1.d-4
DM.UseSaveDM          .true.        # because of the bug
SCFMustConverge       .true.
NeglNonOverlapInt     F             # Default: F
#(5) Eigenvalue problem: order-N or diagonalization
SolutionMethod        Diagon        # or Transiesta
ElectronicTemperature 300.0 K       # Default: 300.0 K
#(6) Molecular dynamics and relaxations
#MD.TypeOfRun          CG            # Type of dynamics:
#MD.VariableCell       F
#MD.NumCGsteps         0           # 0 for single-point / 100 for gopt
#MD.MaxCGDispl         0.2 Bohr      # Default: 0.2 Bohr
#MD.MaxForceTol        0.02 eV/Ang   # Default: 0.04 eV/Ang
#MD.MaxStressTol       1.0 GPa       # Default: 1.0 GPa
# Geometry Constraints
#%block GeometryConstraints
#	position from 1 to 44
#%endblock GeometryConstraints
BandLinesScale   pi/a
%block BandLines
 1   0.00000000  0.00000000  0.00000000
50   0.00000000  0.07809418  0.00000000
50   0.04509075  0.07809242  0.00000000
20   0.00000000  0.00000000  0.00000000
%endblock BandLines
************************** End of input data file *****************************

reinit: -----------------------------------------------------------------------
reinit: System Name: GRP_doping
reinit: -----------------------------------------------------------------------
reinit: System Label: GRP_doping                                                  
reinit: -----------------------------------------------------------------------

initatom: Reading input for the pseudopotentials and atomic orbitals ----------
 Species number:            1  Label: B Atomic number:           5
 Species number:            2  Label: C Atomic number:           6
Ground state valence configuration:   2s02  2p01
Reading pseudopotential information in formatted form from B.psf

Valence configuration for pseudopotential generation:
2s( 2.00) rc: 1.74
2p( 1.00) rc: 1.74
3d( 0.00) rc: 1.74
4f( 0.00) rc: 1.74
Ground state valence configuration:   2s02  2p02
Reading pseudopotential information in formatted form from C.psf

Valence configuration for pseudopotential generation:
2s( 2.00) rc: 1.54
2p( 2.00) rc: 1.54
3d( 0.00) rc: 1.54
4f( 0.00) rc: 1.54
For B, standard SIESTA heuristics set lmxkb to 3
 (one more than the basis l, including polarization orbitals).
Use PS.lmax or PS.KBprojectors blocks to override.
For C, standard SIESTA heuristics set lmxkb to 3
 (one more than the basis l, including polarization orbitals).
Use PS.lmax or PS.KBprojectors blocks to override.

<basis_specs>
===============================================================================
B                    Z=   5    Mass=  10.810        Charge= 0.17977+309
Lmxo=1 Lmxkb= 3    BasisType=split      Semic=F
L=0  Nsemic=0  Cnfigmx=2
          n=1  nzeta=2  polorb=0
            splnorm:   0.15000    
               vcte:    0.0000    
               rinn:    0.0000    
                rcs:    0.0000      0.0000    
            lambdas:    1.0000      1.0000    
L=1  Nsemic=0  Cnfigmx=2
          n=1  nzeta=2  polorb=1
            splnorm:   0.15000    
               vcte:    0.0000    
               rinn:    0.0000    
                rcs:    0.0000      0.0000    
            lambdas:    1.0000      1.0000    
-------------------------------------------------------------------------------
L=0  Nkbl=1  erefs: 0.17977+309
L=1  Nkbl=1  erefs: 0.17977+309
L=2  Nkbl=1  erefs: 0.17977+309
L=3  Nkbl=1  erefs: 0.17977+309
===============================================================================
</basis_specs>

atom: Called for B                     (Z =   5)

read_vps: Pseudopotential generation method:
read_vps: ATM3      Troullier-Martins                       
Total valence charge:    3.00000

read_vps: Pseudopotential includes a core correction:
read_vps: Pseudo-core for xc-correction

xc_check: Exchange-correlation functional:
xc_check: GGA Perdew, Burke & Ernzerhof 1996
V l=0 = -2*Zval/r beyond r=  1.7165
V l=1 = -2*Zval/r beyond r=  1.7165
V l=2 = -2*Zval/r beyond r=  1.7165
V l=3 = -2*Zval/r beyond r=  1.6951
All V_l potentials equal beyond r=  1.7165
This should be close to max(r_c) in ps generation
All pots = -2*Zval/r beyond r=  1.7165

VLOCAL1: 99.0% of the norm of Vloc inside     14.733 Ry
VLOCAL1: 99.9% of the norm of Vloc inside     33.577 Ry
atom: Maximum radius for 4*pi*r*r*local-pseudopot. charge    2.04484
atom: Maximum radius for r*vlocal+2*Zval:    1.75994
GHOST: No ghost state for L =  0
GHOST: No ghost state for L =  1
GHOST: No ghost state for L =  2
GHOST: No ghost state for L =  3

KBgen: Kleinman-Bylander projectors: 
   l= 0   rc=  1.897051   el= -0.693730   Ekb=  4.595746   kbcos=  0.286105
   l= 1   rc=  1.920920   el= -0.265236   Ekb= -2.350715   kbcos= -0.315747
   l= 2   rc=  2.044840   el=  0.002055   Ekb= -0.690767   kbcos= -0.013822
   l= 3   rc=  2.149707   el=  0.003188   Ekb= -0.315358   kbcos= -0.002055

KBgen: Total number of  Kleinman-Bylander projectors:   16
atom: -------------------------------------------------------------------------

atom: SANKEY-TYPE ORBITALS:
atom: Selected multiple-zeta basis: split     

SPLIT: Orbitals with angular momentum L= 0

SPLIT: Basis orbitals for state 2s

SPLIT: PAO cut-off radius determined from an
SPLIT: energy shift=  0.007350 Ry

   izeta = 1
                 lambda =    1.000000
                     rc =    5.422032
                 energy =   -0.686029
                kinetic =    0.576707
    potential(screened) =   -1.262736
       potential(ionic) =   -3.271094

   izeta = 2
                 rmatch =    4.222573
              splitnorm =    0.150000
                 energy =   -0.602132
                kinetic =    0.858975
    potential(screened) =   -1.461107
       potential(ionic) =   -3.582536

SPLIT: Orbitals with angular momentum L= 1

SPLIT: Basis orbitals for state 2p

SPLIT: PAO cut-off radius determined from an
SPLIT: energy shift=  0.007350 Ry

   izeta = 1
                 lambda =    1.000000
                     rc =    6.790259
                 energy =   -0.258578
                kinetic =    1.481412
    potential(screened) =   -1.739989
       potential(ionic) =   -3.657461

   izeta = 2
                 rmatch =    4.608740
              splitnorm =    0.150000
                 energy =   -0.173757
                kinetic =    2.186690
    potential(screened) =   -2.360447
       potential(ionic) =   -4.464260

POLgen: Perturbative polarization orbital with L=  2

POLgen: Polarization orbital for state 2p

   izeta = 1
                     rc =    6.790259
                 energy =    0.684082
                kinetic =    1.471481
    potential(screened) =   -0.787399
       potential(ionic) =   -2.406985
atom: Total number of Sankey-type orbitals: 13

atm_pop: Valence configuration (for local Pseudopot. screening):
 2s( 2.00)                                                            
 2p( 1.00)                                                            
Vna: chval, zval:    3.00000   3.00000

Vna:  Cut-off radius for the neutral-atom potential:   6.790259
comcore: Pseudo-core radius Rcore=  2.122997

atom: _________________________________________________________________________

<basis_specs>
===============================================================================
C                    Z=   6    Mass=  12.010        Charge= 0.17977+309
Lmxo=1 Lmxkb= 3    BasisType=split      Semic=F
L=0  Nsemic=0  Cnfigmx=2
          n=1  nzeta=2  polorb=0
            splnorm:   0.15000    
               vcte:    0.0000    
               rinn:    0.0000    
                rcs:    0.0000      0.0000    
            lambdas:    1.0000      1.0000    
L=1  Nsemic=0  Cnfigmx=2
          n=1  nzeta=2  polorb=1
            splnorm:   0.15000    
               vcte:    0.0000    
               rinn:    0.0000    
                rcs:    0.0000      0.0000    
            lambdas:    1.0000      1.0000    
-------------------------------------------------------------------------------
L=0  Nkbl=1  erefs: 0.17977+309
L=1  Nkbl=1  erefs: 0.17977+309
L=2  Nkbl=1  erefs: 0.17977+309
L=3  Nkbl=1  erefs: 0.17977+309
===============================================================================
</basis_specs>

atom: Called for C                     (Z =   6)

read_vps: Pseudopotential generation method:
read_vps: ATM3      Troullier-Martins                       
Total valence charge:    4.00000

read_vps: Pseudopotential includes a core correction:
read_vps: Pseudo-core for xc-correction

xc_check: Exchange-correlation functional:
xc_check: GGA Perdew, Burke & Ernzerhof 1996
V l=0 = -2*Zval/r beyond r=  1.5227
V l=1 = -2*Zval/r beyond r=  1.5227
V l=2 = -2*Zval/r beyond r=  1.5227
V l=3 = -2*Zval/r beyond r=  1.5038
All V_l potentials equal beyond r=  1.5227
This should be close to max(r_c) in ps generation
All pots = -2*Zval/r beyond r=  1.5227

VLOCAL1: 99.0% of the norm of Vloc inside     18.722 Ry
VLOCAL1: 99.9% of the norm of Vloc inside     42.668 Ry
atom: Maximum radius for 4*pi*r*r*local-pseudopot. charge    1.83678
atom: Maximum radius for r*vlocal+2*Zval:    1.58088
GHOST: No ghost state for L =  0
GHOST: No ghost state for L =  1
GHOST: No ghost state for L =  2
GHOST: No ghost state for L =  3

KBgen: Kleinman-Bylander projectors: 
   l= 0   rc=  1.704034   el= -1.009801   Ekb=  5.335044   kbcos=  0.316824
   l= 1   rc=  1.704034   el= -0.388707   Ekb= -3.785862   kbcos= -0.366464
   l= 2   rc=  1.791422   el=  0.001971   Ekb= -0.970471   kbcos= -0.009212
   l= 3   rc=  1.859892   el=  0.003065   Ekb= -0.399525   kbcos= -0.001223

KBgen: Total number of  Kleinman-Bylander projectors:   16
atom: -------------------------------------------------------------------------

atom: SANKEY-TYPE ORBITALS:
atom: Selected multiple-zeta basis: split     

SPLIT: Orbitals with angular momentum L= 0

SPLIT: Basis orbitals for state 2s

SPLIT: PAO cut-off radius determined from an
SPLIT: energy shift=  0.007350 Ry

   izeta = 1
                 lambda =    1.000000
                     rc =    4.632753
                 energy =   -1.002270
                kinetic =    0.855760
    potential(screened) =   -1.858031
       potential(ionic) =   -5.417575

   izeta = 2
                 rmatch =    3.431921
              splitnorm =    0.150000
                 energy =   -0.867111
                kinetic =    1.300804
    potential(screened) =   -2.167915
       potential(ionic) =   -5.962684

SPLIT: Orbitals with angular momentum L= 1

SPLIT: Basis orbitals for state 2p

SPLIT: PAO cut-off radius determined from an
SPLIT: energy shift=  0.007350 Ry

   izeta = 1
                 lambda =    1.000000
                     rc =    5.658549
                 energy =   -0.381140
                kinetic =    2.399701
    potential(screened) =   -2.780841
       potential(ionic) =   -6.206085

   izeta = 2
                 rmatch =    3.653288
              splitnorm =    0.150000
                 energy =   -0.249149
                kinetic =    3.542762
    potential(screened) =   -3.791911
       potential(ionic) =   -7.581078

POLgen: Perturbative polarization orbital with L=  2

POLgen: Polarization orbital for state 2p

   izeta = 1
                     rc =    5.658549
                 energy =    1.109913
                kinetic =    2.304789
    potential(screened) =   -1.194876
       potential(ionic) =   -4.013592
atom: Total number of Sankey-type orbitals: 13

atm_pop: Valence configuration (for local Pseudopot. screening):
 2s( 2.00)                                                            
 2p( 2.00)                                                            
Vna: chval, zval:    4.00000   4.00000

Vna:  Cut-off radius for the neutral-atom potential:   5.658549
comcore: Pseudo-core radius Rcore=  1.791422

atom: _________________________________________________________________________

prinput: Basis input ----------------------------------------------------------

PAO.BasisType split     

%block ChemicalSpeciesLabel
    1    5 B                       # Species index, atomic number, species label
    2    6 C                       # Species index, atomic number, species label
%endblock ChemicalSpeciesLabel

%block PAO.Basis                 # Define Basis set
B                     2                    # Species label, number of l-shells
 n=2   0   2                         # n, l, Nzeta 
   5.422      4.223   
   1.000      1.000   
 n=2   1   2 P   1                   # n, l, Nzeta, Polarization, NzetaPol
   6.790      4.609   
   1.000      1.000   
C                     2                    # Species label, number of l-shells
 n=2   0   2                         # n, l, Nzeta 
   4.633      3.432   
   1.000      1.000   
 n=2   1   2 P   1                   # n, l, Nzeta, Polarization, NzetaPol
   5.659      3.653   
   1.000      1.000   
%endblock PAO.Basis

prinput: ----------------------------------------------------------------------

coor:   Atomic-coordinates input format  =     Fractional

siesta: Atomic coordinates (Bohr) and species
siesta:     -2.35420  38.89134   0.00000  1        1
siesta:      2.30256  38.89134   0.00000  1        2
siesta:      4.63094  34.85847   0.00000  1        3
siesta:      4.63094  37.54693   0.00000  1        4
siesta:     -4.68258  34.85847   0.00000  1        5
siesta:     -4.68258  37.54693   0.00000  1        6
siesta:      2.30256   9.31683   0.00000  1        7
siesta:      4.63094  10.66124   0.00000  1        8
siesta:      4.63094  13.34970   0.00000  1        9
siesta:     -2.35420   9.31683   0.00000  1       10
siesta:     -0.02582  10.66124   0.00000  1       11
siesta:     -0.02582  13.34970   0.00000  1       12
siesta:      2.30256  14.69411   0.00000  1       13
siesta:     -4.68258  10.66124   0.00000  1       14
siesta:     -4.68258  13.34970   0.00000  1       15
siesta:     -2.35420  14.69411   0.00000  1       16
siesta:     -0.02582  21.41544   0.00000  1       17
siesta:      2.30256  25.44831   0.00000  1       18
siesta:     -2.35420  22.75985   0.00000  1       19
siesta:     -2.35420  25.44831   0.00000  1       20
siesta:     -0.02582  26.79272   0.00000  1       21
siesta:      2.30256  33.51406   0.00000  1       22
siesta:     -2.35420  33.51406   0.00000  1       23
siesta:     -0.02582  34.85847   0.00000  1       24
siesta:     -0.02582  37.54693   0.00000  1       25
siesta:     -0.02582   2.59549   0.00000  2       26
siesta:     -0.02582   5.28395   0.00000  2       27
siesta:     -2.35420  41.57980   0.00000  2       28
siesta:      2.30256  41.57980   0.00000  2       29
siesta:      6.95932  30.82560   0.00000  2       30
siesta:      6.95932  33.51406   0.00000  2       31
siesta:      9.28770  26.79272   0.00000  2       32
siesta:      9.28770  29.48119   0.00000  2       33
siesta:      2.30256   6.62836   0.00000  2       34
siesta:      6.95932  14.69411   0.00000  2       35
siesta:      6.95932  17.38257   0.00000  2       36
siesta:      9.28770  18.72698   0.00000  2       37
siesta:      9.28770  21.41544   0.00000  2       38
siesta:     11.61608  22.75985   0.00000  2       39
siesta:     11.61608  25.44831   0.00000  2       40
siesta:     -2.35420   6.62836   0.00000  2       41
siesta:      2.30256  17.38257   0.00000  2       42
siesta:      4.63094  18.72698   0.00000  2       43
siesta:      4.63094  21.41544   0.00000  2       44
siesta:      6.95932  22.75985   0.00000  2       45
siesta:      6.95932  25.44831   0.00000  2       46
siesta:     -2.35420  17.38257   0.00000  2       47
siesta:     -0.02582  18.72698   0.00000  2       48
siesta:      2.30256  22.75985   0.00000  2       49
siesta:     -7.01096  14.69411   0.00000  2       50
siesta:     -7.01096  17.38257   0.00000  2       51
siesta:     -4.68258  18.72698   0.00000  2       52
siesta:     -4.68258  21.41544   0.00000  2       53
siesta:     -9.33934  18.72698   0.00000  2       54
siesta:     -9.33934  21.41544   0.00000  2       55
siesta:     -7.01096  22.75985   0.00000  2       56
siesta:     -7.01096  25.44831   0.00000  2       57
siesta:    -11.66772  22.75985   0.00000  2       58
siesta:    -11.66772  25.44831   0.00000  2       59
siesta:     -9.33934  26.79272   0.00000  2       60
siesta:     -9.33934  29.48119   0.00000  2       61
siesta:      4.63094  26.79272   0.00000  2       62
siesta:      4.63094  29.48119   0.00000  2       63
siesta:     -0.02582  29.48119   0.00000  2       64
siesta:     -4.68258  26.79272   0.00000  2       65
siesta:     -4.68258  29.48119   0.00000  2       66
siesta:      2.30256  30.82560   0.00000  2       67
siesta:     -2.35420  30.82560   0.00000  2       68
siesta:     -7.01096  30.82560   0.00000  2       69
siesta:     -7.01096  33.51406   0.00000  2       70
siesta:     -0.02582  42.92421   0.00000  2       71
siesta:     -0.02582  45.61267   0.00000  2       72

siesta: System type = slab      

initatomlists: Number of atoms, orbitals, and projectors:     72   936  1152

siesta: ******************** Simulation parameters ****************************
siesta:
siesta: The following are some of the parameters of the simulation.
siesta: A complete list of the parameters used, including default values,
siesta: can be found in file out.fdf
siesta:
redata: Non-Collinear-spin run           =     F
redata: SpinPolarized (Up/Down) run      =     F
redata: Number of spin components        =     1
redata: Long output                      =     F
redata: Number of Atomic Species         =        2
redata: Charge density info will appear in .RHO file
redata: Write Mulliken Pop.              =     NO
redata: Mesh Cutoff                      =   200.0000  Ry
redata: Net charge of the system         =     0.0000 |e|
redata: Max. number of SCF Iter          =      500
redata: SCF convergence failure will abort job
redata: Performing Pulay mixing using    =    10 iterations
redata: Mix DM in first SCF step ?       =     F
redata: Write Pulay info on disk?        =     F
redata: Discard 1st Pulay DM after  kick =     F
redata: New DM Mixing Weight             =     0.0500
redata: New DM Occupancy tolerance       = 0.000000000001
redata: No kicks to SCF
redata: DM Mixing Weight for Kicks       =     0.5000
redata: DM Tolerance for SCF             =     0.000100
redata: Require Energy convergence for SCF =     F
redata: DM Energy tolerance for SCF      =     0.000100 eV
redata: Require Harris convergence for SCF =     F
redata: DM Harris energy tolerance for SCF =     0.000100 eV
redata: Using Saved Data (generic)   =     F
redata: Use continuation files for DM    =     T
redata: Neglect nonoverlap interactions  =     F
redata: Method of Calculation            =     Diagonalization
redata: Divide and Conquer               =     T
redata: Electronic Temperature           =     0.0019  Ry
redata: Fix the spin of the system       =     F
redata: Dynamics option                  =     Verlet MD run
redata: Initial MD time step             =        1
redata:   Final MD time step             =        1
redata: Length of MD time step           =     1.0000  fs
redata: Initial Temperature of MD run    =     0.0000  K
redata: Perform a MD quench              =     F
redata: ***********************************************************************
Total number of electrons:   263.000000
Total ionic charge:   263.000000

* ProcessorY, Blocksize:    2  24

k-point displ. along   1 input, could be:     0.50    0.00
k-point displ. along   2 input, could be:     0.50    0.00
 Kpoints in:          231 . Kpoints trimmed:          231

siesta: k-grid: Number of k-points =   231
siesta: k-grid: Cutoff (effective) =     5.000 Ang
siesta: k-grid: Supercell and displacements
siesta: k-grid:   21   0   0      0.500
siesta: k-grid:    0  21   0      0.500
siesta: k-grid:    0   0   1      0.000
Naive supercell factors:     2    2    2

superc: Internal auxiliary supercell:     2 x     2 x     2  =       8
superc: Number of atoms, orbitals, and projectors:    576   7488   9216

* Maximum dynamic memory allocated =     4 MB

siesta:                 ==============================
                            Begin MD step =      1
                        ==============================

superc: Internal auxiliary supercell:     2 x     2 x     2  =       8
superc: Number of atoms, orbitals, and projectors:    576   7488   9216

outcell: Unit cell vectors (Ang):
       12.804619    7.392750    0.000000
        0.000000   14.785500    0.000000
        0.000000    0.000000   10.000000

outcell: Cell vector modules (Ang)   :   14.785500   14.785500   10.000000
outcell: Cell angles (23,13,12) (deg):     90.0000     90.0000     60.0000
outcell: Cell volume (Ang**3)        :   1893.2269
New_DM. Step:     1
Initializing Density Matrix...

InitMesh: MESH =   120 x   120 x    90 =     1296000
InitMesh: Mesh cutoff (required, used) =   200.000   223.865 Ry

* Maximum dynamic memory allocated =   237 MB

stepf: Fermi-Dirac step function

siesta: Program's energy decomposition (eV):
siesta: Ebs     =     -5351.673095
siesta: Eions   =     15201.593291
siesta: Ena     =      4104.572076
siesta: Ekin    =      5059.728642
siesta: Enl     =       860.672773
siesta: DEna    =        -0.000006
siesta: DUscf   =         0.000000
siesta: DUext   =         0.000000
siesta: Exc     =     -4184.835910
siesta: eta*DQ  =         0.000000
siesta: Emadel  =         0.000000
siesta: Emeta   =         0.000000
siesta: Emolmec =         0.000000
siesta: Ekinion =         0.000000
siesta: Eharris =     -9261.364741
siesta: Etot    =     -9361.455717
siesta: FreeEng =     -9361.455717

siesta: iscf   Eharris(eV)      E_KS(eV)   FreeEng(eV)   dDmax  Ef(eV)
siesta:    1    -9261.3647    -9361.4557    -9361.4557  8.6920 -8.5963
timer: Routine,Calls,Time,% = IterSCF        1    4525.973  99.74
elaps: Routine,Calls,Wall,% = IterSCF        1     566.442  99.74
siesta:    2   -18166.6381    -7800.9999    -7801.0224 14.5205-12.9972
siesta:    3    -9727.2158    -9120.8785    -9120.9262  2.7010 -4.6145
siesta:    4    -9437.2664    -9124.0701    -9124.1135  1.7259 -5.4497
siesta:    5    -9349.9886    -9118.8697    -9118.9048  1.3153 -5.3185
siesta:    6    -9337.0941    -9107.9996    -9108.0354  1.3185 -5.2313
siesta:    7    -9116.7296    -9019.6059    -9019.6420  0.9183 -5.3453
siesta:    8    -9114.6812    -9018.7533    -9018.8026  0.9091 -5.2906
siesta:    9    -9113.3573    -9018.9574    -9019.0188  0.8991 -5.3948
siesta:   10    -9104.2983    -9030.3513    -9030.3928  0.7588 -5.3882
siesta:   11    -9100.6294    -9039.4757    -9039.5050  0.7158 -5.2656
siesta:   12    -9099.7745    -9064.9589    -9065.0019  0.7157 -5.0961
siesta:   13    -9098.2409    -9069.9047    -9069.9800  0.6922 -5.0955
siesta:   14    -9098.1224    -9078.4367    -9078.5362  0.6040 -5.1141
siesta:   15    -9099.4322    -9097.2854    -9097.3303  0.2555 -5.5674
siesta:   16    -9098.4601    -9102.6746    -9102.7248  0.2694 -5.5539
siesta:   17    -9096.4033    -9099.9879    -9100.0298  0.3186 -5.4030
siesta:   18    -9096.1783    -9098.0022    -9098.0548  0.6251 -5.4039
siesta:   19    -9096.0588    -9097.2531    -9097.3455  0.2606 -5.3855
siesta:   20    -9095.7826    -9095.3655    -9095.4573  0.5027 -5.3708
siesta:   21    -9095.7444    -9092.6524    -9092.7421  0.8468 -5.3453
siesta:   22    -9095.5360    -9090.8921    -9090.9670  0.3055 -5.3251
siesta:   23    -9095.5150    -9090.5269    -9090.6321  0.3526 -5.3270
siesta:   24    -9095.4879    -9091.1413    -9091.2471  0.3558 -5.3388
siesta:   25    -9095.4795    -9090.9997    -9091.1067  0.3653 -5.3432
siesta:   26    -9095.4772    -9090.8602    -9090.9698  0.3611 -5.3435
siesta:   27    -9095.4648    -9090.8903    -9091.0004  0.1963 -5.3395
siesta:   28    -9095.4687    -9091.0339    -9091.1420  0.2825 -5.3365
siesta:   29    -9095.4648    -9091.0169    -9091.1249  0.2156 -5.3295
siesta:   30    -9095.4621    -9091.3630    -9091.4705  0.1918 -5.3281
siesta:   31    -9095.4585    -9092.1808    -9092.2888  0.1072 -5.3343
siesta:   32    -9095.4589    -9092.4753    -9092.5818  0.0928 -5.3342
siesta:   33    -9095.4587    -9093.9051    -9094.0110  0.0521 -5.3380
siesta:   34    -9095.4551    -9094.3829    -9094.4865  0.0550 -5.3339
siesta:   35    -9095.4547    -9094.8286    -9094.9330  0.0498 -5.3359
siesta:   36    -9095.4545    -9094.9091    -9095.0135  0.0469 -5.3356
siesta:   37    -9095.4546    -9095.0363    -9095.1406  0.0421 -5.3353
siesta:   38    -9095.4553    -9095.1880    -9095.2922  0.0264 -5.3343
siesta:   39    -9095.4556    -9095.3113    -9095.4146  0.0177 -5.3328
siesta:   40    -9095.4560    -9095.4583    -9095.5613  0.0035 -5.3307
siesta:   41    -9095.4562    -9095.5001    -9095.6026  0.0017 -5.3307
siesta:   42    -9095.4564    -9095.4881    -9095.5903  0.0045 -5.3311
siesta:   43    -9095.4558    -9095.4410    -9095.5429  0.0059 -5.3318
siesta:   44    -9095.4561    -9095.4906    -9095.5931  0.0015 -5.3315
siesta:   45    -9095.4561    -9095.4741    -9095.5764  0.0004 -5.3314
siesta:   46    -9095.4561    -9095.4712    -9095.5734  0.0003 -5.3314
siesta:   47    -9095.4561    -9095.4775    -9095.5798  0.0007 -5.3315
siesta:   48    -9095.4561    -9095.4765    -9095.5788  0.0002 -5.3315
siesta:   49    -9095.4561    -9095.4710    -9095.5732  0.0004 -5.3315
siesta:   50    -9095.4561    -9095.4670    -9095.5693  0.0001 -5.3314
siesta:   51    -9095.4561    -9095.4635    -9095.5657  0.0003 -5.3314
siesta:   52    -9095.4561    -9095.4627    -9095.5649  0.0001 -5.3313
siesta:   53    -9095.4561    -9095.4596    -9095.5618  0.0001 -5.3314
siesta:   54    -9095.4561    -9095.4569    -9095.5591  0.0002 -5.3314
siesta:   55    -9095.4561    -9095.4565    -9095.5587  0.0001 -5.3314
siesta:   56    -9095.4561    -9095.4572    -9095.5594  0.0001 -5.3314

siesta: E_KS(eV) =            -9095.4570

siesta: E_KS - E_eggbox =     -9095.4570

siesta: Atomic forces (eV/Ang):
----------------------------------------
   Tot   -0.245258   -0.168294    0.000000
----------------------------------------
   Max  557.870656
   Res  120.374587    sqrt( Sum f_i^2 / 3N )
----------------------------------------
   Max  557.870656    constrained

Stress-tensor-Voigt (kbar):     -587.11    -2205.56       -0.72       -0.29        0.00        0.00
(Free)E + p*V (eV/cell)    -7995.2912
Target enthalpy (eV/cell)    -9095.5592

siesta: Stress tensor (static) (eV/Ang**3):
        -0.366444   -0.000178    0.000000
        -0.000178   -1.376590    0.000000
         0.000000    0.000000   -0.000446

siesta: Pressure (static):        931.13125511  kBar

siesta: Stress tensor (total) (eV/Ang**3):
        -0.366444   -0.000178    0.000000
        -0.000178   -1.376590    0.000000
         0.000000    0.000000   -0.000446

siesta: Pressure (total):        931.13125511  kBar

siesta: Temp_ion =       0.000 K

* Maximum dynamic memory allocated =   255 MB
Computing bands...

siesta: Program's energy decomposition (eV):
siesta: Ebs     =     -4064.766491
siesta: Eions   =     15201.593291
siesta: Ena     =      4104.572076
siesta: Ekin    =      7651.061927
siesta: Enl     =      -750.548968
siesta: DEna    =      -657.450491
siesta: DUscf   =        86.883993
siesta: DUext   =         0.000000
siesta: Exc     =     -4328.382252
siesta: eta*DQ  =         0.000000
siesta: Emadel  =         0.000000
siesta: Emeta   =         0.000000
siesta: Emolmec =         0.000000
siesta: Ekinion =         0.000000
siesta: Eharris =     -9095.456076
siesta: Etot    =     -9095.457006
siesta: FreeEng =     -9095.559237

siesta: Final energy (eV):
siesta:  Band Struct. =   -4064.766491
siesta:       Kinetic =    7651.061927
siesta:       Hartree =   23767.083174
siesta:    Ext. field =       0.000000
siesta:   Exch.-corr. =   -4328.382252
siesta:  Ion-electron =  -54981.125838
siesta:       Ion-ion =   18795.905984
siesta:       Ekinion =       0.000000
siesta:         Total =   -9095.457006

siesta: Atomic forces (eV/Ang):
siesta:      1   -0.399295   99.163244    0.000000
siesta:      2    0.422336   99.266298    0.000000
siesta:      3   18.292316   -3.160009    0.000000
siesta:      4   21.135859 -288.132763    0.000000
siesta:      5  -18.306475   -3.126972    0.000000
siesta:      6  -21.122961 -288.183238    0.000000
siesta:      7    0.389322  -99.340639    0.000000
siesta:      8   21.076271  288.043900    0.000000
siesta:      9   18.367296    3.208525    0.000000
siesta:     10   -0.430455  -99.279453    0.000000
siesta:     11   -0.019098  287.656521    0.000000
siesta:     12    0.006762 -108.188501    0.000000
siesta:     13   15.939082  404.166826    0.000000
siesta:     14  -21.116764  288.138078    0.000000
siesta:     15  -18.357472    3.161719    0.000000
siesta:     16  -15.956749  404.292400    0.000000
siesta:     17    3.577297   -1.462901    0.000000
siesta:     18    3.706144   -1.284289    0.000000
siesta:     19   -3.836807   -2.845560    0.000000
siesta:     20   -3.693598    2.844524    0.000000
siesta:     21   -0.110384    4.426113    0.000000
siesta:     22   15.988635 -404.294658    0.000000
siesta:     23  -15.981590 -404.272462    0.000000
siesta:     24    0.032205  107.874445    0.000000
siesta:     25    0.022946 -287.349469    0.000000
siesta:     26   -0.186991  552.509990    0.000000
siesta:     27    0.081429 -125.709061    0.000000
siesta:     28  -12.704769 -401.550445    0.000000
siesta:     29   12.706922 -401.543889    0.000000
siesta:     30    2.655751    1.309839    0.000000
siesta:     31    0.471830    0.037022    0.000000
siesta:     32    2.547631    1.835324    0.000000
siesta:     33   -1.025780   -0.106164    0.000000
siesta:     34   12.799200  401.531901    0.000000
siesta:     35    0.446827   -0.098237    0.000000
siesta:     36    2.351887   -1.113268    0.000000
siesta:     37   -0.917827    0.019814    0.000000
siesta:     38    2.352228   -1.712054    0.000000
siesta:     39    0.149443    6.169327    0.000000
siesta:     40    0.111757   -6.235080    0.000000
siesta:     41  -12.856082  401.512724    0.000000
siesta:     42   22.483772   -4.473995    0.000000
siesta:     43   -1.158773    2.027542    0.000000
siesta:     44   -0.177617    0.119930    0.000000
siesta:     45    0.053002    0.834958    0.000000
siesta:     46   -0.141270   -0.548165    0.000000
siesta:     47  -22.504807   -4.745360    0.000000
siesta:     48    0.984811  557.134965    0.000000
siesta:     49    3.043973   -2.729753    0.000000
siesta:     50   -0.471378   -0.013796    0.000000
siesta:     51   -2.707036   -1.371632    0.000000
siesta:     52    1.022899    2.611193    0.000000
siesta:     53   -2.619562   -1.705956    0.000000
siesta:     54    1.057235    0.043516    0.000000
siesta:     55   -2.528737   -1.734906    0.000000
siesta:     56   -0.058542    0.454300    0.000000
siesta:     57   -0.081742   -0.468800    0.000000
siesta:     58   -0.171029    6.260739    0.000000
siesta:     59   -0.156383   -6.281833    0.000000
siesta:     60   -2.522779    1.714008    0.000000
siesta:     61    1.097671   -0.034658    0.000000
siesta:     62    2.930635    1.656330    0.000000
siesta:     63   -1.062016   -2.586296    0.000000
siesta:     64    0.200016 -557.870656    0.000000
siesta:     65   -2.611269    1.602255    0.000000
siesta:     66    1.129251   -2.473586    0.000000
siesta:     67   22.303304    4.679740    0.000000
siesta:     68  -22.393699    4.657078    0.000000
siesta:     69   -2.776098    1.390880    0.000000
siesta:     70   -0.479364   -0.003720    0.000000
siesta:     71    0.032860  125.961403    0.000000
siesta:     72   -0.570870 -552.453439    0.000000
siesta: ----------------------------------------
siesta:    Tot   -0.245258   -0.168294    0.000000

siesta: Stress tensor (static) (eV/Ang**3):
siesta:    -0.366444   -0.000178    0.000000
siesta:    -0.000178   -1.376590    0.000000
siesta:     0.000000    0.000000   -0.000446

siesta: Cell volume =       1893.226884 Ang**3

siesta: Pressure (static):
siesta:                Solid            Molecule  Units
siesta:           0.00632958          0.08946967  Ry/Bohr**3
siesta:           0.58116014          8.21480124  eV/Ang**3
siesta:         931.13125511      13161.70486351  kBar
(Free)E+ p_basis*V_orbitals  =       -9056.922785
(Free)Eharris+ p_basis*V_orbitals  =       -9056.921679

siesta: Electric dipole (a.u.)  =    0.000000    0.000000    0.000000
siesta: Electric dipole (Debye) =    0.000000    0.000000    0.000000

* Maximum dynamic memory allocated : Node    0 =   255 MB
* Maximum dynamic memory allocated : Node    1 =    90 MB
* Maximum dynamic memory allocated : Node    2 =    94 MB
* Maximum dynamic memory allocated : Node    3 =   242 MB
* Maximum dynamic memory allocated : Node    4 =   227 MB
* Maximum dynamic memory allocated : Node    5 =    83 MB
* Maximum dynamic memory allocated : Node    6 =    86 MB
* Maximum dynamic memory allocated : Node    7 =   209 MB

* Maximum memory occured during matrixMtoO                    

timer: CPU execution times:
timer:  Routine       Calls   Time/call    Tot.time        %
timer:  siesta            1  250005.758  250005.758   100.00
timer:  Setup             1       3.033       3.033     0.00
timer:  bands             3     268.923     806.769     0.32
timer:  writewave         1       0.019       0.019     0.00
timer:  KSV_init          1       0.000       0.000     0.00
timer:  IterMD            1  249190.089  249190.089    99.67
timer:  hsparse           1       0.391       0.391     0.00
timer:  overlap           1       7.796       7.796     0.00
timer:  IterSCF          56    4445.241  248933.482    99.57
timer:  kinefsm           2       4.040       8.079     0.00
timer:  nlefsm            2      22.156      44.312     0.02
timer:  DHSCF            57     138.221    7878.587     3.15
timer:  DHSCF1            1       0.999       0.999     0.00
timer:  DHSCF2            1      47.159      47.159     0.02
timer:  REORD           458       0.010       4.513     0.00
timer:  POISON           58       2.239     129.872     0.05
timer:  DHSCF3           57     136.518    7781.527     3.11
timer:  rhoofd           57      28.047    1598.685     0.64
timer:  cellXC           57       3.493     199.089     0.08
timer:  vmat             57      66.471    3788.848     1.52
timer:  MolMec            2       0.000       0.000     0.00
timer:  diagon           56    4305.763  241122.747    96.45
timer:  c-eigval      13057       6.673   87129.841    34.85
timer:  c-buildHS     13057       0.124    1613.213     0.65
timer:  cdiag         25993       6.904  179458.079    71.78
timer:  cdiag1        25993       0.429   11139.160     4.46
timer:  cdiag2        25993       1.907   49563.040    19.82
timer:  cdiag3        25993       3.939  102390.982    40.96
timer:  cdiag4        25993       0.223    5805.254     2.32
timer:  c-eigvec      12936       7.330   94816.993    37.93
timer:  c-buildD      12936       4.631   59910.074    23.96
timer:  DHSCF4            1      45.992      45.992     0.02
timer:  dfscf             1      43.266      43.266     0.02
timer:  overfsm           1       0.486       0.486     0.00
timer:  optical           1       5.111       5.111     0.00
  

elaps: ELAPSED times:
elaps:  Routine       Calls   Time/call    Tot.time        %
elaps:  siesta            1   31286.892   31286.892   100.00
elaps:  Setup             1       0.379       0.379     0.00
elaps:  bands             3      33.666     100.998     0.32
elaps:  writewave         1       0.002       0.002     0.00
elaps:  KSV_init          1       0.000       0.000     0.00
elaps:  IterMD            1   31184.839   31184.839    99.67
elaps:  hsparse           1       0.050       0.050     0.00
elaps:  overlap           1       0.976       0.976     0.00
elaps:  IterSCF          56     556.299   31152.742    99.57
elaps:  kinefsm           2       0.507       1.013     0.00
elaps:  nlefsm            2       2.725       5.451     0.02
elaps:  DHSCF            57      17.403     991.954     3.17
elaps:  DHSCF1            1       0.129       0.129     0.00
elaps:  DHSCF2            1       5.895       5.895     0.02
elaps:  REORD           458       0.001       0.606     0.00
elaps:  POISON           58       0.280      16.242     0.05
elaps:  DHSCF3           57      17.079     973.488     3.11
elaps:  rhoofd           57       7.921     451.512     1.44
elaps:  cellXC           57       0.436      24.853     0.08
elaps:  vmat             57       8.315     473.966     1.51
elaps:  MolMec            2       0.000       0.000     0.00
elaps:  diagon           56     538.876   30177.077    96.45
elaps:  c-eigval      13057       0.835   10901.347    34.84
elaps:  c-buildHS     13057       0.017     220.066     0.70
elaps:  cdiag         25993       0.849   22058.941    70.51
elaps:  cdiag1        25993       0.053    1379.306     4.41
elaps:  cdiag2        25993       0.239    6201.639    19.82
elaps:  cdiag3        25993       0.494   12828.292    41.00
elaps:  cdiag4        25993       0.028     730.135     2.33
elaps:  c-eigvec      12936       0.891   11531.331    36.86
elaps:  c-buildD      12936       0.606    7835.188    25.04
elaps:  DHSCF4            1      12.032      12.032     0.04
elaps:  dfscf             1      11.478      11.478     0.04
elaps:  overfsm           1       0.059       0.059     0.00
elaps:  optical           1       0.000       0.000     0.00
  
>> End of run:  21-APR-2016  17:33:06
