Siesta Version:                                        siesta-3.2-pl-3
Architecture  : x86_64-unknown-linux-gnu--unknown
Compiler flags: mpiifort -g -O2 -fPIC -xSSE4.1 -fp-model source -shared-intel 
PARALLEL version

* Running on   12 nodes in parallel
>> Start of run:   3-MAY-2016  14:57:56

                           ***********************       
                           *  WELCOME TO SIESTA  *       
                           ***********************       

reinit: Reading from standard input
************************** Dump of input data file ****************************
#(1) General system descriptors
SystemName            GRP_doping    # Descriptive name of the system
SystemLabel           GRP_doping    # Short name for naming files
%include STRUCT.fdf
%include KPT.fdf
%include BASIS.fdf
#%include TS.fdf # for transiesta calculation
#(4) DFT, Grid, SCF
XC.functional         GGA           # LDA or GGA (default = LDA)
XC.authors            PBE           # CA (Ceperley-Aldr) = PZ
                                    #    (Perdew-Zunger) - LDA - Default
                                    # PW92 (Perdew-Wang-92) - LDA
                                    # PBE (Perdew-Burke-Ernzerhof) - GGA
MeshCutoff            200.000000    Ry      # Default: 50.0 Ry ~ 0.444 Bohr
                                    #         100.0 Ry ~ 0.314 Bohr
MaxSCFIterations      500           # Default: 50
DM.MixingWeight       0.05          # Default: 0.25
DM.NumberPulay        10            # Default: 0
DM.PulayOnFile        F             # SystemLabel.P1, SystemLabel.P2
DM.Tolerance          1.d-4         # Default: 1.d-4
DM.UseSaveDM          .true.        # because of the bug
SCFMustConverge       .true.
NeglNonOverlapInt     F             # Default: F
#(5) Eigenvalue problem: order-N or diagonalization
SolutionMethod        Diagon        # or Transiesta
ElectronicTemperature 300.0 K       # Default: 300.0 K
#(6) Molecular dynamics and relaxations
#MD.TypeOfRun          CG            # Type of dynamics:
#MD.VariableCell       F
#MD.NumCGsteps         0           # 0 for single-point / 100 for gopt
#MD.MaxCGDispl         0.2 Bohr      # Default: 0.2 Bohr
#MD.MaxForceTol        0.02 eV/Ang   # Default: 0.04 eV/Ang
#MD.MaxStressTol       1.0 GPa       # Default: 1.0 GPa
# Geometry Constraints
#%block GeometryConstraints
#	position from 1 to 44
#%endblock GeometryConstraints
BandLinesScale   pi/a
%block BandLines
 1   0.00000000  0.00000000  0.00000000
50   0.00000000  0.07809418  0.00000000
50   0.04509075  0.07809242  0.00000000
20   0.00000000  0.00000000  0.00000000
%endblock BandLines
************************** End of input data file *****************************

reinit: -----------------------------------------------------------------------
reinit: System Name: GRP_doping
reinit: -----------------------------------------------------------------------
reinit: System Label: GRP_doping                                                  
reinit: -----------------------------------------------------------------------

initatom: Reading input for the pseudopotentials and atomic orbitals ----------
 Species number:            1  Label: B Atomic number:           5
 Species number:            2  Label: C Atomic number:           6
Ground state valence configuration:   2s02  2p01
Reading pseudopotential information in formatted form from B.psf

Valence configuration for pseudopotential generation:
2s( 2.00) rc: 1.74
2p( 1.00) rc: 1.74
3d( 0.00) rc: 1.74
4f( 0.00) rc: 1.74
Ground state valence configuration:   2s02  2p02
Reading pseudopotential information in formatted form from C.psf

Valence configuration for pseudopotential generation:
2s( 2.00) rc: 1.54
2p( 2.00) rc: 1.54
3d( 0.00) rc: 1.54
4f( 0.00) rc: 1.54
For B, standard SIESTA heuristics set lmxkb to 3
 (one more than the basis l, including polarization orbitals).
Use PS.lmax or PS.KBprojectors blocks to override.
For C, standard SIESTA heuristics set lmxkb to 3
 (one more than the basis l, including polarization orbitals).
Use PS.lmax or PS.KBprojectors blocks to override.

<basis_specs>
===============================================================================
B                    Z=   5    Mass=  10.810        Charge= 0.17977+309
Lmxo=1 Lmxkb= 3    BasisType=split      Semic=F
L=0  Nsemic=0  Cnfigmx=2
          n=1  nzeta=2  polorb=0
            splnorm:   0.15000    
               vcte:    0.0000    
               rinn:    0.0000    
                rcs:    0.0000      0.0000    
            lambdas:    1.0000      1.0000    
L=1  Nsemic=0  Cnfigmx=2
          n=1  nzeta=2  polorb=1
            splnorm:   0.15000    
               vcte:    0.0000    
               rinn:    0.0000    
                rcs:    0.0000      0.0000    
            lambdas:    1.0000      1.0000    
-------------------------------------------------------------------------------
L=0  Nkbl=1  erefs: 0.17977+309
L=1  Nkbl=1  erefs: 0.17977+309
L=2  Nkbl=1  erefs: 0.17977+309
L=3  Nkbl=1  erefs: 0.17977+309
===============================================================================
</basis_specs>

atom: Called for B                     (Z =   5)

read_vps: Pseudopotential generation method:
read_vps: ATM3      Troullier-Martins                       
Total valence charge:    3.00000

read_vps: Pseudopotential includes a core correction:
read_vps: Pseudo-core for xc-correction

xc_check: Exchange-correlation functional:
xc_check: GGA Perdew, Burke & Ernzerhof 1996
V l=0 = -2*Zval/r beyond r=  1.7165
V l=1 = -2*Zval/r beyond r=  1.7165
V l=2 = -2*Zval/r beyond r=  1.7165
V l=3 = -2*Zval/r beyond r=  1.6951
All V_l potentials equal beyond r=  1.7165
This should be close to max(r_c) in ps generation
All pots = -2*Zval/r beyond r=  1.7165

VLOCAL1: 99.0% of the norm of Vloc inside     14.733 Ry
VLOCAL1: 99.9% of the norm of Vloc inside     33.577 Ry
atom: Maximum radius for 4*pi*r*r*local-pseudopot. charge    2.04484
atom: Maximum radius for r*vlocal+2*Zval:    1.75994
GHOST: No ghost state for L =  0
GHOST: No ghost state for L =  1
GHOST: No ghost state for L =  2
GHOST: No ghost state for L =  3

KBgen: Kleinman-Bylander projectors: 
   l= 0   rc=  1.897051   el= -0.693730   Ekb=  4.595746   kbcos=  0.286105
   l= 1   rc=  1.920920   el= -0.265236   Ekb= -2.350715   kbcos= -0.315747
   l= 2   rc=  2.044840   el=  0.002055   Ekb= -0.690767   kbcos= -0.013822
   l= 3   rc=  2.149707   el=  0.003188   Ekb= -0.315358   kbcos= -0.002055

KBgen: Total number of  Kleinman-Bylander projectors:   16
atom: -------------------------------------------------------------------------

atom: SANKEY-TYPE ORBITALS:
atom: Selected multiple-zeta basis: split     

SPLIT: Orbitals with angular momentum L= 0

SPLIT: Basis orbitals for state 2s

SPLIT: PAO cut-off radius determined from an
SPLIT: energy shift=  0.007350 Ry

   izeta = 1
                 lambda =    1.000000
                     rc =    5.422032
                 energy =   -0.686029
                kinetic =    0.576707
    potential(screened) =   -1.262736
       potential(ionic) =   -3.271094

   izeta = 2
                 rmatch =    4.222573
              splitnorm =    0.150000
                 energy =   -0.602132
                kinetic =    0.858975
    potential(screened) =   -1.461107
       potential(ionic) =   -3.582536

SPLIT: Orbitals with angular momentum L= 1

SPLIT: Basis orbitals for state 2p

SPLIT: PAO cut-off radius determined from an
SPLIT: energy shift=  0.007350 Ry

   izeta = 1
                 lambda =    1.000000
                     rc =    6.790259
                 energy =   -0.258578
                kinetic =    1.481412
    potential(screened) =   -1.739989
       potential(ionic) =   -3.657461

   izeta = 2
                 rmatch =    4.608740
              splitnorm =    0.150000
                 energy =   -0.173757
                kinetic =    2.186690
    potential(screened) =   -2.360447
       potential(ionic) =   -4.464260

POLgen: Perturbative polarization orbital with L=  2

POLgen: Polarization orbital for state 2p

   izeta = 1
                     rc =    6.790259
                 energy =    0.684082
                kinetic =    1.471481
    potential(screened) =   -0.787399
       potential(ionic) =   -2.406985
atom: Total number of Sankey-type orbitals: 13

atm_pop: Valence configuration (for local Pseudopot. screening):
 2s( 2.00)                                                            
 2p( 1.00)                                                            
Vna: chval, zval:    3.00000   3.00000

Vna:  Cut-off radius for the neutral-atom potential:   6.790259
comcore: Pseudo-core radius Rcore=  2.122997

atom: _________________________________________________________________________

<basis_specs>
===============================================================================
C                    Z=   6    Mass=  12.010        Charge= 0.17977+309
Lmxo=1 Lmxkb= 3    BasisType=split      Semic=F
L=0  Nsemic=0  Cnfigmx=2
          n=1  nzeta=2  polorb=0
            splnorm:   0.15000    
               vcte:    0.0000    
               rinn:    0.0000    
                rcs:    0.0000      0.0000    
            lambdas:    1.0000      1.0000    
L=1  Nsemic=0  Cnfigmx=2
          n=1  nzeta=2  polorb=1
            splnorm:   0.15000    
               vcte:    0.0000    
               rinn:    0.0000    
                rcs:    0.0000      0.0000    
            lambdas:    1.0000      1.0000    
-------------------------------------------------------------------------------
L=0  Nkbl=1  erefs: 0.17977+309
L=1  Nkbl=1  erefs: 0.17977+309
L=2  Nkbl=1  erefs: 0.17977+309
L=3  Nkbl=1  erefs: 0.17977+309
===============================================================================
</basis_specs>

atom: Called for C                     (Z =   6)

read_vps: Pseudopotential generation method:
read_vps: ATM3      Troullier-Martins                       
Total valence charge:    4.00000

read_vps: Pseudopotential includes a core correction:
read_vps: Pseudo-core for xc-correction

xc_check: Exchange-correlation functional:
xc_check: GGA Perdew, Burke & Ernzerhof 1996
V l=0 = -2*Zval/r beyond r=  1.5227
V l=1 = -2*Zval/r beyond r=  1.5227
V l=2 = -2*Zval/r beyond r=  1.5227
V l=3 = -2*Zval/r beyond r=  1.5038
All V_l potentials equal beyond r=  1.5227
This should be close to max(r_c) in ps generation
All pots = -2*Zval/r beyond r=  1.5227

VLOCAL1: 99.0% of the norm of Vloc inside     18.722 Ry
VLOCAL1: 99.9% of the norm of Vloc inside     42.668 Ry
atom: Maximum radius for 4*pi*r*r*local-pseudopot. charge    1.83678
atom: Maximum radius for r*vlocal+2*Zval:    1.58088
GHOST: No ghost state for L =  0
GHOST: No ghost state for L =  1
GHOST: No ghost state for L =  2
GHOST: No ghost state for L =  3

KBgen: Kleinman-Bylander projectors: 
   l= 0   rc=  1.704034   el= -1.009801   Ekb=  5.335044   kbcos=  0.316824
   l= 1   rc=  1.704034   el= -0.388707   Ekb= -3.785862   kbcos= -0.366464
   l= 2   rc=  1.791422   el=  0.001971   Ekb= -0.970471   kbcos= -0.009212
   l= 3   rc=  1.859892   el=  0.003065   Ekb= -0.399525   kbcos= -0.001223

KBgen: Total number of  Kleinman-Bylander projectors:   16
atom: -------------------------------------------------------------------------

atom: SANKEY-TYPE ORBITALS:
atom: Selected multiple-zeta basis: split     

SPLIT: Orbitals with angular momentum L= 0

SPLIT: Basis orbitals for state 2s

SPLIT: PAO cut-off radius determined from an
SPLIT: energy shift=  0.007350 Ry

   izeta = 1
                 lambda =    1.000000
                     rc =    4.632753
                 energy =   -1.002270
                kinetic =    0.855760
    potential(screened) =   -1.858031
       potential(ionic) =   -5.417575

   izeta = 2
                 rmatch =    3.431921
              splitnorm =    0.150000
                 energy =   -0.867111
                kinetic =    1.300804
    potential(screened) =   -2.167915
       potential(ionic) =   -5.962684

SPLIT: Orbitals with angular momentum L= 1

SPLIT: Basis orbitals for state 2p

SPLIT: PAO cut-off radius determined from an
SPLIT: energy shift=  0.007350 Ry

   izeta = 1
                 lambda =    1.000000
                     rc =    5.658549
                 energy =   -0.381140
                kinetic =    2.399701
    potential(screened) =   -2.780841
       potential(ionic) =   -6.206085

   izeta = 2
                 rmatch =    3.653288
              splitnorm =    0.150000
                 energy =   -0.249149
                kinetic =    3.542762
    potential(screened) =   -3.791911
       potential(ionic) =   -7.581078

POLgen: Perturbative polarization orbital with L=  2

POLgen: Polarization orbital for state 2p

   izeta = 1
                     rc =    5.658549
                 energy =    1.109913
                kinetic =    2.304789
    potential(screened) =   -1.194876
       potential(ionic) =   -4.013592
atom: Total number of Sankey-type orbitals: 13

atm_pop: Valence configuration (for local Pseudopot. screening):
 2s( 2.00)                                                            
 2p( 2.00)                                                            
Vna: chval, zval:    4.00000   4.00000

Vna:  Cut-off radius for the neutral-atom potential:   5.658549
comcore: Pseudo-core radius Rcore=  1.791422

atom: _________________________________________________________________________

prinput: Basis input ----------------------------------------------------------

PAO.BasisType split     

%block ChemicalSpeciesLabel
    1    5 B                       # Species index, atomic number, species label
    2    6 C                       # Species index, atomic number, species label
%endblock ChemicalSpeciesLabel

%block PAO.Basis                 # Define Basis set
B                     2                    # Species label, number of l-shells
 n=2   0   2                         # n, l, Nzeta 
   5.422      4.223   
   1.000      1.000   
 n=2   1   2 P   1                   # n, l, Nzeta, Polarization, NzetaPol
   6.790      4.609   
   1.000      1.000   
C                     2                    # Species label, number of l-shells
 n=2   0   2                         # n, l, Nzeta 
   4.633      3.432   
   1.000      1.000   
 n=2   1   2 P   1                   # n, l, Nzeta, Polarization, NzetaPol
   5.659      3.653   
   1.000      1.000   
%endblock PAO.Basis

prinput: ----------------------------------------------------------------------

coor:   Atomic-coordinates input format  =     Fractional

siesta: Atomic coordinates (Bohr) and species
siesta:      4.63094  13.34970   0.00000  1        1
siesta:      6.95932  17.38257   0.00000  1        2
siesta:     -0.02582  13.34970   0.00000  1        3
siesta:      2.30256  14.69411   0.00000  1        4
siesta:      4.63094  18.72698   0.00000  1        5
siesta:      4.63094  21.41544   0.00000  1        6
siesta:      6.95932  25.44831   0.00000  1        7
siesta:     -2.35420  14.69411   0.00000  1        8
siesta:     -2.35420  17.38257   0.00000  1        9
siesta:     -7.01096  25.44831   0.00000  1       10
siesta:      4.63094  26.79272   0.00000  1       11
siesta:      4.63094  29.48119   0.00000  1       12
siesta:     -0.02582  29.48119   0.00000  1       13
siesta:     -4.68258  26.79272   0.00000  1       14
siesta:      2.30256  30.82560   0.00000  1       15
siesta:     -0.02582   2.59549   0.00000  2       16
siesta:     -0.02582   5.28395   0.00000  2       17
siesta:     -2.35420  38.89134   0.00000  2       18
siesta:     -2.35420  41.57980   0.00000  2       19
siesta:      2.30256  38.89134   0.00000  2       20
siesta:      2.30256  41.57980   0.00000  2       21
siesta:      4.63094  34.85847   0.00000  2       22
siesta:      4.63094  37.54693   0.00000  2       23
siesta:      6.95932  30.82560   0.00000  2       24
siesta:      6.95932  33.51406   0.00000  2       25
siesta:      9.28770  26.79272   0.00000  2       26
siesta:      9.28770  29.48119   0.00000  2       27
siesta:     -4.68258  34.85847   0.00000  2       28
siesta:     -4.68258  37.54693   0.00000  2       29
siesta:      2.30256   6.62836   0.00000  2       30
siesta:      2.30256   9.31683   0.00000  2       31
siesta:      4.63094  10.66124   0.00000  2       32
siesta:      6.95932  14.69411   0.00000  2       33
siesta:      9.28770  18.72698   0.00000  2       34
siesta:      9.28770  21.41544   0.00000  2       35
siesta:     11.61608  22.75985   0.00000  2       36
siesta:     11.61608  25.44831   0.00000  2       37
siesta:     -2.35420   6.62836   0.00000  2       38
siesta:     -2.35420   9.31683   0.00000  2       39
siesta:     -0.02582  10.66124   0.00000  2       40
siesta:      2.30256  17.38257   0.00000  2       41
siesta:      6.95932  22.75985   0.00000  2       42
siesta:     -4.68258  10.66124   0.00000  2       43
siesta:     -4.68258  13.34970   0.00000  2       44
siesta:     -0.02582  18.72698   0.00000  2       45
siesta:     -0.02582  21.41544   0.00000  2       46
siesta:      2.30256  22.75985   0.00000  2       47
siesta:      2.30256  25.44831   0.00000  2       48
siesta:     -7.01096  14.69411   0.00000  2       49
siesta:     -7.01096  17.38257   0.00000  2       50
siesta:     -4.68258  18.72698   0.00000  2       51
siesta:     -4.68258  21.41544   0.00000  2       52
siesta:     -2.35420  22.75985   0.00000  2       53
siesta:     -2.35420  25.44831   0.00000  2       54
siesta:     -9.33934  18.72698   0.00000  2       55
siesta:     -9.33934  21.41544   0.00000  2       56
siesta:     -7.01096  22.75985   0.00000  2       57
siesta:    -11.66772  22.75985   0.00000  2       58
siesta:    -11.66772  25.44831   0.00000  2       59
siesta:     -9.33934  26.79272   0.00000  2       60
siesta:     -9.33934  29.48119   0.00000  2       61
siesta:     -0.02582  26.79272   0.00000  2       62
siesta:     -4.68258  29.48119   0.00000  2       63
siesta:      2.30256  33.51406   0.00000  2       64
siesta:     -2.35420  30.82560   0.00000  2       65
siesta:     -2.35420  33.51406   0.00000  2       66
siesta:     -7.01096  30.82560   0.00000  2       67
siesta:     -7.01096  33.51406   0.00000  2       68
siesta:     -0.02582  34.85847   0.00000  2       69
siesta:     -0.02582  37.54693   0.00000  2       70
siesta:     -0.02582  42.92421   0.00000  2       71
siesta:     -0.02582  45.61267   0.00000  2       72

siesta: System type = slab      

initatomlists: Number of atoms, orbitals, and projectors:     72   936  1152

siesta: ******************** Simulation parameters ****************************
siesta:
siesta: The following are some of the parameters of the simulation.
siesta: A complete list of the parameters used, including default values,
siesta: can be found in file out.fdf
siesta:
redata: Non-Collinear-spin run           =     F
redata: SpinPolarized (Up/Down) run      =     F
redata: Number of spin components        =     1
redata: Long output                      =     F
redata: Number of Atomic Species         =        2
redata: Charge density info will appear in .RHO file
redata: Write Mulliken Pop.              =     NO
redata: Mesh Cutoff                      =   200.0000  Ry
redata: Net charge of the system         =     0.0000 |e|
redata: Max. number of SCF Iter          =      500
redata: SCF convergence failure will abort job
redata: Performing Pulay mixing using    =    10 iterations
redata: Mix DM in first SCF step ?       =     F
redata: Write Pulay info on disk?        =     F
redata: Discard 1st Pulay DM after  kick =     F
redata: New DM Mixing Weight             =     0.0500
redata: New DM Occupancy tolerance       = 0.000000000001
redata: No kicks to SCF
redata: DM Mixing Weight for Kicks       =     0.5000
redata: DM Tolerance for SCF             =     0.000100
redata: Require Energy convergence for SCF =     F
redata: DM Energy tolerance for SCF      =     0.000100 eV
redata: Require Harris convergence for SCF =     F
redata: DM Harris energy tolerance for SCF =     0.000100 eV
redata: Using Saved Data (generic)   =     F
redata: Use continuation files for DM    =     T
redata: Neglect nonoverlap interactions  =     F
redata: Method of Calculation            =     Diagonalization
redata: Divide and Conquer               =     T
redata: Electronic Temperature           =     0.0019  Ry
redata: Fix the spin of the system       =     F
redata: Dynamics option                  =     Verlet MD run
redata: Initial MD time step             =        1
redata:   Final MD time step             =        1
redata: Length of MD time step           =     1.0000  fs
redata: Initial Temperature of MD run    =     0.0000  K
redata: Perform a MD quench              =     F
redata: ***********************************************************************
Total number of electrons:   273.000000
Total ionic charge:   273.000000

* ProcessorY, Blocksize:    3  24

k-point displ. along   1 input, could be:     0.50    0.00
k-point displ. along   2 input, could be:     0.50    0.00
 Kpoints in:          231 . Kpoints trimmed:          231

siesta: k-grid: Number of k-points =   231
siesta: k-grid: Cutoff (effective) =     5.000 Ang
siesta: k-grid: Supercell and displacements
siesta: k-grid:   21   0   0      0.500
siesta: k-grid:    0  21   0      0.500
siesta: k-grid:    0   0   1      0.000
Naive supercell factors:     2    2    2

superc: Internal auxiliary supercell:     2 x     2 x     2  =       8
superc: Number of atoms, orbitals, and projectors:    576   7488   9216

* Maximum dynamic memory allocated =     4 MB

siesta:                 ==============================
                            Begin MD step =      1
                        ==============================

superc: Internal auxiliary supercell:     2 x     2 x     2  =       8
superc: Number of atoms, orbitals, and projectors:    576   7488   9216

outcell: Unit cell vectors (Ang):
       12.804619    7.392750    0.000000
        0.000000   14.785500    0.000000
        0.000000    0.000000   10.000000

outcell: Cell vector modules (Ang)   :   14.785500   14.785500   10.000000
outcell: Cell angles (23,13,12) (deg):     90.0000     90.0000     60.0000
outcell: Cell volume (Ang**3)        :   1893.2269
New_DM. Step:     1
Initializing Density Matrix...

InitMesh: MESH =   120 x   120 x    90 =     1296000
InitMesh: Mesh cutoff (required, used) =   200.000   223.865 Ry

* Maximum dynamic memory allocated =   155 MB

stepf: Fermi-Dirac step function

siesta: Program's energy decomposition (eV):
siesta: Ebs     =     -5628.419599
siesta: Eions   =     16482.160403
siesta: Ena     =      4356.602831
siesta: Ekin    =      5587.107004
siesta: Enl     =       762.081185
siesta: DEna    =        -0.000010
siesta: DUscf   =         0.000000
siesta: DUext   =         0.000000
siesta: Exc     =     -4190.455256
siesta: eta*DQ  =         0.000000
siesta: Emadel  =         0.000000
siesta: Emeta   =         0.000000
siesta: Emolmec =         0.000000
siesta: Ekinion =         0.000000
siesta: Eharris =     -9712.095417
siesta: Etot    =     -9966.824649
siesta: FreeEng =     -9966.824649

siesta: iscf   Eharris(eV)      E_KS(eV)   FreeEng(eV)   dDmax  Ef(eV)
siesta:    1    -9712.0954    -9966.8246    -9966.8246  6.4511 -8.2791
timer: Routine,Calls,Time,% = IterSCF        1    5393.947  99.76
elaps: Routine,Calls,Wall,% = IterSCF        1     470.216  99.77
siesta:    2   -13862.4343    -9022.5823    -9022.6218 16.1117 -2.6222
siesta:    3    -9661.2078    -9818.4729    -9818.5199  2.9805 -6.8475
siesta:    4    -9630.5500    -9707.4963    -9707.5440  1.4136 -6.0086
siesta:    5    -9587.5737    -9607.8385    -9607.8837  1.2536 -5.4023
siesta:    6    -9574.7823    -9587.7574    -9587.7877  1.1250 -5.1599
siesta:    7    -9567.7193    -9577.2131    -9577.2615  0.7937 -5.1574
siesta:    8    -9565.2773    -9572.6838    -9572.7308  0.7547 -5.1850
siesta:    9    -9563.4949    -9559.2116    -9559.2567  0.5694 -5.0908
siesta:   10    -9563.4417    -9550.7047    -9550.7534  0.4454 -5.0419
siesta:   11    -9563.3164    -9543.5298    -9543.5604  0.3063 -4.9884
siesta:   12    -9562.8236    -9539.2983    -9539.3598  0.1881 -5.0145
siesta:   13    -9562.3587    -9537.6148    -9537.6548  0.1625 -5.0273
siesta:   14    -9561.4911    -9542.2651    -9542.3088  0.1183 -5.0871
siesta:   15    -9561.1981    -9545.5095    -9545.5620  0.0856 -5.0714
siesta:   16    -9561.1008    -9549.8451    -9549.8907  0.0745 -5.0747
siesta:   17    -9561.0715    -9551.5008    -9551.5539  0.1191 -5.0901
siesta:   18    -9561.0315    -9553.9383    -9553.9802  0.0496 -5.1075
siesta:   19    -9561.0240    -9556.6399    -9556.6856  0.0380 -5.1290
siesta:   20    -9561.0026    -9557.8367    -9557.8846  0.0359 -5.1363
siesta:   21    -9560.9920    -9559.2179    -9559.2654  0.0237 -5.1429
siesta:   22    -9560.9899    -9560.1666    -9560.2152  0.0161 -5.1387
siesta:   23    -9560.9869    -9560.9386    -9560.9868  0.0092 -5.1324
siesta:   24    -9560.9856    -9561.2499    -9561.2997  0.0050 -5.1276
siesta:   25    -9560.9859    -9561.3131    -9561.3625  0.0030 -5.1261
siesta:   26    -9560.9857    -9561.2378    -9561.2866  0.0021 -5.1258
siesta:   27    -9560.9854    -9561.2025    -9561.2512  0.0014 -5.1262
siesta:   28    -9560.9854    -9561.1703    -9561.2192  0.0010 -5.1266
siesta:   29    -9560.9853    -9561.1629    -9561.2118  0.0006 -5.1269
siesta:   30    -9560.9854    -9561.1065    -9561.1555  0.0004 -5.1267
siesta:   31    -9560.9854    -9561.0482    -9561.0971  0.0003 -5.1264
siesta:   32    -9560.9854    -9561.0264    -9561.0753  0.0004 -5.1263
siesta:   33    -9560.9854    -9561.0116    -9561.0604  0.0002 -5.1264
siesta:   34    -9560.9854    -9561.0081    -9561.0569  0.0001 -5.1265
siesta:   35    -9560.9854    -9561.0023    -9561.0511  0.0001 -5.1264

siesta: E_KS(eV) =            -9560.9987

siesta: E_KS - E_eggbox =     -9560.9987

siesta: Atomic forces (eV/Ang):
----------------------------------------
   Tot   -0.115626    0.052555    0.000000
----------------------------------------
   Max  557.820412
   Res  148.613381    sqrt( Sum f_i^2 / 3N )
----------------------------------------
   Max  557.820412    constrained

Stress-tensor-Voigt (kbar):     -766.18    -2676.82       -0.55       -5.97        0.00        0.00
(Free)E + p*V (eV/cell)    -8204.6927
Target enthalpy (eV/cell)    -9561.0475

siesta: Stress tensor (static) (eV/Ang**3):
        -0.478208   -0.003723    0.000000
        -0.003724   -1.670721    0.000000
         0.000000    0.000000   -0.000346

siesta: Pressure (static):       1147.85161489  kBar

siesta: Stress tensor (total) (eV/Ang**3):
        -0.478208   -0.003723    0.000000
        -0.003724   -1.670721    0.000000
         0.000000    0.000000   -0.000346

siesta: Pressure (total):       1147.85161489  kBar

siesta: Temp_ion =       0.000 K

* Maximum dynamic memory allocated =   167 MB
Computing bands...

siesta: Program's energy decomposition (eV):
siesta: Ebs     =     -4261.889152
siesta: Eions   =     16482.160403
siesta: Ena     =      4356.602831
siesta: Ekin    =      8461.838162
siesta: Enl     =      -856.107778
siesta: DEna    =      -784.950710
siesta: DUscf   =       104.869642
siesta: DUext   =         0.000000
siesta: Exc     =     -4361.090406
siesta: eta*DQ  =         0.000000
siesta: Emadel  =         0.000000
siesta: Emeta   =         0.000000
siesta: Emolmec =         0.000000
siesta: Ekinion =         0.000000
siesta: Eharris =     -9560.985384
siesta: Etot    =     -9560.998663
siesta: FreeEng =     -9561.047527

siesta: Final energy (eV):
siesta:  Band Struct. =   -4261.889152
siesta:       Kinetic =    8461.838162
siesta:       Hartree =   27470.338153
siesta:    Ext. field =       0.000000
siesta:   Exch.-corr. =   -4361.090406
siesta:  Ion-electron =  -63098.869939
siesta:       Ion-ion =   21966.785368
siesta:       Ekinion =       0.000000
siesta:         Total =   -9560.998663

siesta: Atomic forces (eV/Ang):
siesta:      1   21.709133   -0.815694    0.000000
siesta:      2    8.608102   -5.103001    0.000000
siesta:      3    0.320147 -101.497318    0.000000
siesta:      4   16.380002  400.736785    0.000000
siesta:      5   -6.447953   -2.620103    0.000000
siesta:      6    0.855079    4.454235    0.000000
siesta:      7    3.467792   -3.109274    0.000000
siesta:      8  -18.152743  397.105579    0.000000
siesta:      9  -20.126249   -2.021234    0.000000
siesta:     10   -3.084082   -2.879333    0.000000
siesta:     11   -4.946188   -2.206833    0.000000
siesta:     12    2.508712    3.687591    0.000000
siesta:     13   -0.317458 -413.304147    0.000000
siesta:     14    3.335791    1.789443    0.000000
siesta:     15   16.202452    2.878932    0.000000
siesta:     16   -2.062622  405.748626    0.000000
siesta:     17    3.659481 -128.165329    0.000000
siesta:     18    1.187599  125.473772    0.000000
siesta:     19  -16.051675 -406.740344    0.000000
siesta:     20    0.024008  126.068404    0.000000
siesta:     21   17.009146 -402.187272    0.000000
siesta:     22   26.917613    4.468407    0.000000
siesta:     23   35.723949 -556.176441    0.000000
siesta:     24    6.362532    2.310191    0.000000
siesta:     25   -3.124227    1.965819    0.000000
siesta:     26    6.686609    4.256487    0.000000
siesta:     27   -1.575695    0.088070    0.000000
siesta:     28  -27.266644    4.811592    0.000000
siesta:     29  -34.028696 -551.945134    0.000000
siesta:     30   18.092401  553.296843    0.000000
siesta:     31   -0.503872 -124.358699    0.000000
siesta:     32   27.866951  549.896750    0.000000
siesta:     33   -1.355558   -2.160405    0.000000
siesta:     34    1.309056    3.519085    0.000000
siesta:     35    3.502375   -2.454280    0.000000
siesta:     36    0.413350    6.778867    0.000000
siesta:     37   -0.418248   -7.064508    0.000000
siesta:     38  -16.106769  549.523209    0.000000
siesta:     39   -0.220689 -124.961847    0.000000
siesta:     40    1.217572  539.425245    0.000000
siesta:     41   20.942864   -5.162593    0.000000
siesta:     42    1.526127   -0.346234    0.000000
siesta:     43  -29.280949  551.114307    0.000000
siesta:     44  -25.414771    0.445847    0.000000
siesta:     45   -0.942643  557.820412    0.000000
siesta:     46    0.327295    2.039228    0.000000
siesta:     47   -4.027960    0.598638    0.000000
siesta:     48   -3.774164   -0.660550    0.000000
siesta:     49    2.086342   -2.069842    0.000000
siesta:     50   -2.794311    0.097876    0.000000
siesta:     51    0.277719    2.200208    0.000000
siesta:     52   -1.262743    0.053931    0.000000
siesta:     53    0.676425   -0.580792    0.000000
siesta:     54    3.113368   -1.229875    0.000000
siesta:     55    1.269152   -0.905000    0.000000
siesta:     56   -2.846075   -1.870147    0.000000
siesta:     57    0.704015   -2.268177    0.000000
siesta:     58    0.192844    5.968784    0.000000
siesta:     59    0.444474   -6.700288    0.000000
siesta:     60   -5.785949    4.446809    0.000000
siesta:     61    1.396939   -0.428387    0.000000
siesta:     62   -0.054897   -3.716731    0.000000
siesta:     63    1.883217    2.060309    0.000000
siesta:     64   21.910434 -555.912544    0.000000
siesta:     65  -23.618507    3.201462    0.000000
siesta:     66  -24.596417 -557.274827    0.000000
siesta:     67   -2.586438    1.353908    0.000000
siesta:     68    2.889598    1.571514    0.000000
siesta:     69    0.756636  125.597586    0.000000
siesta:     70    0.825051 -550.833153    0.000000
siesta:     71   -3.244769  132.065914    0.000000
siesta:     72    1.321983 -549.137773    0.000000
siesta: ----------------------------------------
siesta:    Tot   -0.115626    0.052555    0.000000

siesta: Stress tensor (static) (eV/Ang**3):
siesta:    -0.478208   -0.003723    0.000000
siesta:    -0.003724   -1.670721    0.000000
siesta:     0.000000    0.000000   -0.000346

siesta: Cell volume =       1893.226884 Ang**3

siesta: Pressure (static):
siesta:                Solid            Molecule  Units
siesta:           0.00780278          0.11402282  Ry/Bohr**3
siesta:           0.71642488         10.46918747  eV/Ang**3
siesta:        1147.85161489      16773.66884385  kBar
(Free)E+ p_basis*V_orbitals  =       -9525.570608
(Free)Eharris+ p_basis*V_orbitals  =       -9525.553725

siesta: Electric dipole (a.u.)  =    0.000000    0.000000    0.000000
siesta: Electric dipole (Debye) =    0.000000    0.000000    0.000000

* Maximum dynamic memory allocated : Node    0 =   167 MB
* Maximum dynamic memory allocated : Node    1 =    66 MB
* Maximum dynamic memory allocated : Node    2 =    67 MB
* Maximum dynamic memory allocated : Node    3 =   153 MB
* Maximum dynamic memory allocated : Node    4 =   166 MB
* Maximum dynamic memory allocated : Node    5 =    61 MB
* Maximum dynamic memory allocated : Node    6 =    62 MB
* Maximum dynamic memory allocated : Node    7 =   155 MB
* Maximum dynamic memory allocated : Node    8 =   151 MB
* Maximum dynamic memory allocated : Node    9 =    60 MB
* Maximum dynamic memory allocated : Node   10 =    61 MB
* Maximum dynamic memory allocated : Node   11 =   144 MB

* Maximum memory occured during matrixMtoO                    

timer: CPU execution times:
timer:  Routine       Calls   Time/call    Tot.time        %
timer:  siesta            1  183905.091  183905.091   100.00
timer:  Setup             1       3.234       3.234     0.00
timer:  bands             3     417.346    1252.038     0.68
timer:  writewave         1       0.022       0.022     0.00
timer:  KSV_init          1       0.005       0.005     0.00
timer:  IterMD            1  182643.091  182643.091    99.31
timer:  hsparse           1       0.274       0.274     0.00
timer:  overlap           1       7.200       7.200     0.00
timer:  IterSCF          35    5213.851  182484.784    99.23
timer:  kinefsm           2       3.673       7.346     0.00
timer:  nlefsm            2      20.088      40.176     0.02
timer:  DHSCF            36      83.247    2996.883     1.63
timer:  DHSCF1            1       1.196       1.196     0.00
timer:  DHSCF2            1      39.872      39.872     0.02
timer:  REORD           290       0.003       0.731     0.00
timer:  POISON           37       0.608      22.485     0.01
timer:  DHSCF3           36      81.321    2927.563     1.59
timer:  rhoofd           36      16.957     610.439     0.33
timer:  cellXC           36       2.853     102.707     0.06
timer:  vmat             36      38.556    1388.009     0.75
timer:  MolMec            2       0.000       0.000     0.00
timer:  diagon           35    5128.698  179504.422    97.61
timer:  c-eigval       8206      10.331   84774.893    46.10
timer:  c-buildHS      8206       0.036     292.377     0.16
timer:  cdiag         16291      10.525  171470.246    93.24
timer:  cdiag1        16291       0.480    7814.377     4.25
timer:  cdiag2        16291       3.373   54956.948    29.88
timer:  cdiag3        16291       6.301  102644.056    55.81
timer:  cdiag4        16291       0.159    2587.223     1.41
timer:  c-eigvec       8085      10.789   87227.896    47.43
timer:  c-buildD       8085       1.077    8709.033     4.74
timer:  DHSCF4            1      27.995      27.995     0.02
timer:  dfscf             1      25.905      25.905     0.01
timer:  overfsm           1       0.329       0.329     0.00
timer:  optical           1       6.099       6.099     0.00
  

elaps: ELAPSED times:
elaps:  Routine       Calls   Time/call    Tot.time        %
elaps:  siesta            1   16029.244   16029.244   100.00
elaps:  Setup             1       0.281       0.281     0.00
elaps:  bands             3      36.392     109.177     0.68
elaps:  writewave         1       0.002       0.002     0.00
elaps:  KSV_init          1       0.000       0.000     0.00
elaps:  IterMD            1   15919.246   15919.246    99.31
elaps:  hsparse           1       0.027       0.027     0.00
elaps:  overlap           1       0.715       0.715     0.00
elaps:  IterSCF          35     454.443   15905.517    99.23
elaps:  kinefsm           2       0.431       0.862     0.01
elaps:  nlefsm            2       1.819       3.638     0.02
elaps:  DHSCF            36       7.311     263.183     1.64
elaps:  DHSCF1            1       0.101       0.101     0.00
elaps:  DHSCF2            1       3.487       3.487     0.02
elaps:  REORD           290       0.000       0.088     0.00
elaps:  POISON           37       0.053       1.944     0.01
elaps:  DHSCF3           36       7.088     255.164     1.59
elaps:  rhoofd           36       2.919     105.089     0.66
elaps:  cellXC           36       0.248       8.940     0.06
elaps:  vmat             36       3.361     120.999     0.75
elaps:  MolMec            2       0.000       0.000     0.00
elaps:  diagon           35     447.032   15646.135    97.61
elaps:  c-eigval       8206       0.900    7389.019    46.10
elaps:  c-buildHS      8206       0.004      31.011     0.19
elaps:  cdiag         16291       0.910   14820.775    92.46
elaps:  cdiag1        16291       0.042     679.289     4.24
elaps:  cdiag2        16291       0.294    4793.040    29.90
elaps:  cdiag3        16291       0.550    8954.384    55.86
elaps:  cdiag4        16291       0.013     217.201     1.36
elaps:  c-eigvec       8085       0.926    7489.418    46.72
elaps:  c-buildD       8085       0.108     872.693     5.44
elaps:  DHSCF4            1       4.395       4.395     0.03
elaps:  dfscf             1       4.139       4.139     0.03
elaps:  overfsm           1       0.034       0.034     0.00
elaps:  optical           1       0.000       0.000     0.00
  
>> End of run:   3-MAY-2016  19:25:05
