Siesta Version:                                        siesta-3.2-pl-3
Architecture  : x86_64-unknown-linux-gnu--unknown
Compiler flags: mpiifort -g -O2 -fPIC -xSSE4.1 -fp-model source -shared-intel 
PARALLEL version

* Running on   12 nodes in parallel
>> Start of run:   6-MAY-2016   2:14:14

                           ***********************       
                           *  WELCOME TO SIESTA  *       
                           ***********************       

reinit: Reading from standard input
************************** Dump of input data file ****************************
#(1) General system descriptors
SystemName            GRP_doping    # Descriptive name of the system
SystemLabel           GRP_doping    # Short name for naming files
%include STRUCT.fdf
%include KPT.fdf
%include BASIS.fdf
#%include TS.fdf # for transiesta calculation
#(4) DFT, Grid, SCF
XC.functional         GGA           # LDA or GGA (default = LDA)
XC.authors            PBE           # CA (Ceperley-Aldr) = PZ
                                    #    (Perdew-Zunger) - LDA - Default
                                    # PW92 (Perdew-Wang-92) - LDA
                                    # PBE (Perdew-Burke-Ernzerhof) - GGA
MeshCutoff            200.000000    Ry      # Default: 50.0 Ry ~ 0.444 Bohr
                                    #         100.0 Ry ~ 0.314 Bohr
MaxSCFIterations      500           # Default: 50
DM.MixingWeight       0.05          # Default: 0.25
DM.NumberPulay        10            # Default: 0
DM.PulayOnFile        F             # SystemLabel.P1, SystemLabel.P2
DM.Tolerance          1.d-4         # Default: 1.d-4
DM.UseSaveDM          .true.        # because of the bug
SCFMustConverge       .true.
NeglNonOverlapInt     F             # Default: F
#(5) Eigenvalue problem: order-N or diagonalization
SolutionMethod        Diagon        # or Transiesta
ElectronicTemperature 300.0 K       # Default: 300.0 K
#(6) Molecular dynamics and relaxations
#MD.TypeOfRun          CG            # Type of dynamics:
#MD.VariableCell       F
#MD.NumCGsteps         0           # 0 for single-point / 100 for gopt
#MD.MaxCGDispl         0.2 Bohr      # Default: 0.2 Bohr
#MD.MaxForceTol        0.02 eV/Ang   # Default: 0.04 eV/Ang
#MD.MaxStressTol       1.0 GPa       # Default: 1.0 GPa
# Geometry Constraints
#%block GeometryConstraints
#	position from 1 to 44
#%endblock GeometryConstraints
BandLinesScale   pi/a
%block BandLines
 1   0.00000000  0.00000000  0.00000000
50   0.00000000  0.07809418  0.00000000
50   0.04509075  0.07809242  0.00000000
20   0.00000000  0.00000000  0.00000000
%endblock BandLines
************************** End of input data file *****************************

reinit: -----------------------------------------------------------------------
reinit: System Name: GRP_doping
reinit: -----------------------------------------------------------------------
reinit: System Label: GRP_doping                                                  
reinit: -----------------------------------------------------------------------

initatom: Reading input for the pseudopotentials and atomic orbitals ----------
 Species number:            1  Label: N Atomic number:           7
 Species number:            2  Label: C Atomic number:           6
Ground state valence configuration:   2s02  2p03
Reading pseudopotential information in formatted form from N.psf

Valence configuration for pseudopotential generation:
2s( 2.00) rc: 1.48
2p( 3.00) rc: 1.48
3d( 0.00) rc: 1.48
4f( 0.00) rc: 1.48
Ground state valence configuration:   2s02  2p02
Reading pseudopotential information in formatted form from C.psf

Valence configuration for pseudopotential generation:
2s( 2.00) rc: 1.54
2p( 2.00) rc: 1.54
3d( 0.00) rc: 1.54
4f( 0.00) rc: 1.54
For N, standard SIESTA heuristics set lmxkb to 3
 (one more than the basis l, including polarization orbitals).
Use PS.lmax or PS.KBprojectors blocks to override.
For C, standard SIESTA heuristics set lmxkb to 3
 (one more than the basis l, including polarization orbitals).
Use PS.lmax or PS.KBprojectors blocks to override.

<basis_specs>
===============================================================================
N                    Z=   7    Mass=  14.010        Charge= 0.17977+309
Lmxo=1 Lmxkb= 3    BasisType=split      Semic=F
L=0  Nsemic=0  Cnfigmx=2
          n=1  nzeta=2  polorb=0
            splnorm:   0.15000    
               vcte:    0.0000    
               rinn:    0.0000    
                rcs:    0.0000      0.0000    
            lambdas:    1.0000      1.0000    
L=1  Nsemic=0  Cnfigmx=2
          n=1  nzeta=2  polorb=1
            splnorm:   0.15000    
               vcte:    0.0000    
               rinn:    0.0000    
                rcs:    0.0000      0.0000    
            lambdas:    1.0000      1.0000    
-------------------------------------------------------------------------------
L=0  Nkbl=1  erefs: 0.17977+309
L=1  Nkbl=1  erefs: 0.17977+309
L=2  Nkbl=1  erefs: 0.17977+309
L=3  Nkbl=1  erefs: 0.17977+309
===============================================================================
</basis_specs>

atom: Called for N                     (Z =   7)

read_vps: Pseudopotential generation method:
read_vps: ATM3      Troullier-Martins                       
Total valence charge:    5.00000

read_vps: Pseudopotential includes a core correction:
read_vps: Pseudo-core for xc-correction

xc_check: Exchange-correlation functional:
xc_check: GGA Perdew, Burke & Ernzerhof 1996
V l=0 = -2*Zval/r beyond r=  1.4606
V l=1 = -2*Zval/r beyond r=  1.4606
V l=2 = -2*Zval/r beyond r=  1.4606
V l=3 = -2*Zval/r beyond r=  1.4606
All V_l potentials equal beyond r=  1.4606
This should be close to max(r_c) in ps generation
All pots = -2*Zval/r beyond r=  1.4606

VLOCAL1: 99.0% of the norm of Vloc inside     20.347 Ry
VLOCAL1: 99.9% of the norm of Vloc inside     46.372 Ry
atom: Maximum radius for 4*pi*r*r*local-pseudopot. charge    1.76189
atom: Maximum radius for r*vlocal+2*Zval:    1.53550
GHOST: No ghost state for L =  0
GHOST: No ghost state for L =  1
GHOST: No ghost state for L =  2
GHOST: No ghost state for L =  3

KBgen: Kleinman-Bylander projectors: 
   l= 0   rc=  1.634559   el= -1.363963   Ekb=  5.296955   kbcos=  0.335621
   l= 1   rc=  1.614250   el= -0.521451   Ekb= -5.259161   kbcos= -0.433408
   l= 2   rc=  1.718383   el=  0.001991   Ekb= -1.271464   kbcos= -0.007566
   l= 3   rc=  1.761893   el=  0.003093   Ekb= -0.494769   kbcos= -0.001015

KBgen: Total number of  Kleinman-Bylander projectors:   16
atom: -------------------------------------------------------------------------

atom: SANKEY-TYPE ORBITALS:
atom: Selected multiple-zeta basis: split     

SPLIT: Orbitals with angular momentum L= 0

SPLIT: Basis orbitals for state 2s

SPLIT: PAO cut-off radius determined from an
SPLIT: energy shift=  0.007350 Ry

   izeta = 1
                 lambda =    1.000000
                     rc =    4.071465
                 energy =   -1.356470
                kinetic =    1.176977
    potential(screened) =   -2.533447
       potential(ionic) =   -8.057990

   izeta = 2
                 rmatch =    2.905100
              splitnorm =    0.150000
                 energy =   -1.158343
                kinetic =    1.813009
    potential(screened) =   -2.971352
       potential(ionic) =   -8.901931

SPLIT: Orbitals with angular momentum L= 1

SPLIT: Basis orbitals for state 2p

SPLIT: PAO cut-off radius determined from an
SPLIT: energy shift=  0.007350 Ry

   izeta = 1
                 lambda =    1.000000
                     rc =    4.972977
                 energy =   -0.513884
                kinetic =    3.441732
    potential(screened) =   -3.955616
       potential(ionic) =   -9.287901

   izeta = 2
                 rmatch =    3.054066
              splitnorm =    0.150000
                 energy =   -0.318226
                kinetic =    5.125348
    potential(screened) =   -5.443573
       potential(ionic) =  -11.380999

POLgen: Perturbative polarization orbital with L=  2

POLgen: Polarization orbital for state 2p

   izeta = 1
                     rc =    4.972977
                 energy =    1.607437
                kinetic =    3.268125
    potential(screened) =   -1.660688
       potential(ionic) =   -5.973652
atom: Total number of Sankey-type orbitals: 13

atm_pop: Valence configuration (for local Pseudopot. screening):
 2s( 2.00)                                                            
 2p( 3.00)                                                            
Vna: chval, zval:    5.00000   5.00000

Vna:  Cut-off radius for the neutral-atom potential:   4.972977
comcore: Pseudo-core radius Rcore=  1.554824

atom: _________________________________________________________________________

<basis_specs>
===============================================================================
C                    Z=   6    Mass=  12.010        Charge= 0.17977+309
Lmxo=1 Lmxkb= 3    BasisType=split      Semic=F
L=0  Nsemic=0  Cnfigmx=2
          n=1  nzeta=2  polorb=0
            splnorm:   0.15000    
               vcte:    0.0000    
               rinn:    0.0000    
                rcs:    0.0000      0.0000    
            lambdas:    1.0000      1.0000    
L=1  Nsemic=0  Cnfigmx=2
          n=1  nzeta=2  polorb=1
            splnorm:   0.15000    
               vcte:    0.0000    
               rinn:    0.0000    
                rcs:    0.0000      0.0000    
            lambdas:    1.0000      1.0000    
-------------------------------------------------------------------------------
L=0  Nkbl=1  erefs: 0.17977+309
L=1  Nkbl=1  erefs: 0.17977+309
L=2  Nkbl=1  erefs: 0.17977+309
L=3  Nkbl=1  erefs: 0.17977+309
===============================================================================
</basis_specs>

atom: Called for C                     (Z =   6)

read_vps: Pseudopotential generation method:
read_vps: ATM3      Troullier-Martins                       
Total valence charge:    4.00000

read_vps: Pseudopotential includes a core correction:
read_vps: Pseudo-core for xc-correction

xc_check: Exchange-correlation functional:
xc_check: GGA Perdew, Burke & Ernzerhof 1996
V l=0 = -2*Zval/r beyond r=  1.5227
V l=1 = -2*Zval/r beyond r=  1.5227
V l=2 = -2*Zval/r beyond r=  1.5227
V l=3 = -2*Zval/r beyond r=  1.5038
All V_l potentials equal beyond r=  1.5227
This should be close to max(r_c) in ps generation
All pots = -2*Zval/r beyond r=  1.5227

VLOCAL1: 99.0% of the norm of Vloc inside     18.722 Ry
VLOCAL1: 99.9% of the norm of Vloc inside     42.668 Ry
atom: Maximum radius for 4*pi*r*r*local-pseudopot. charge    1.83678
atom: Maximum radius for r*vlocal+2*Zval:    1.58088
GHOST: No ghost state for L =  0
GHOST: No ghost state for L =  1
GHOST: No ghost state for L =  2
GHOST: No ghost state for L =  3

KBgen: Kleinman-Bylander projectors: 
   l= 0   rc=  1.704034   el= -1.009801   Ekb=  5.335044   kbcos=  0.316824
   l= 1   rc=  1.704034   el= -0.388707   Ekb= -3.785862   kbcos= -0.366464
   l= 2   rc=  1.791422   el=  0.001971   Ekb= -0.970471   kbcos= -0.009212
   l= 3   rc=  1.859892   el=  0.003065   Ekb= -0.399525   kbcos= -0.001223

KBgen: Total number of  Kleinman-Bylander projectors:   16
atom: -------------------------------------------------------------------------

atom: SANKEY-TYPE ORBITALS:
atom: Selected multiple-zeta basis: split     

SPLIT: Orbitals with angular momentum L= 0

SPLIT: Basis orbitals for state 2s

SPLIT: PAO cut-off radius determined from an
SPLIT: energy shift=  0.007350 Ry

   izeta = 1
                 lambda =    1.000000
                     rc =    4.632753
                 energy =   -1.002270
                kinetic =    0.855760
    potential(screened) =   -1.858031
       potential(ionic) =   -5.417575

   izeta = 2
                 rmatch =    3.431921
              splitnorm =    0.150000
                 energy =   -0.867111
                kinetic =    1.300804
    potential(screened) =   -2.167915
       potential(ionic) =   -5.962684

SPLIT: Orbitals with angular momentum L= 1

SPLIT: Basis orbitals for state 2p

SPLIT: PAO cut-off radius determined from an
SPLIT: energy shift=  0.007350 Ry

   izeta = 1
                 lambda =    1.000000
                     rc =    5.658549
                 energy =   -0.381140
                kinetic =    2.399701
    potential(screened) =   -2.780841
       potential(ionic) =   -6.206085

   izeta = 2
                 rmatch =    3.653288
              splitnorm =    0.150000
                 energy =   -0.249149
                kinetic =    3.542762
    potential(screened) =   -3.791911
       potential(ionic) =   -7.581078

POLgen: Perturbative polarization orbital with L=  2

POLgen: Polarization orbital for state 2p

   izeta = 1
                     rc =    5.658549
                 energy =    1.109913
                kinetic =    2.304789
    potential(screened) =   -1.194876
       potential(ionic) =   -4.013592
atom: Total number of Sankey-type orbitals: 13

atm_pop: Valence configuration (for local Pseudopot. screening):
 2s( 2.00)                                                            
 2p( 2.00)                                                            
Vna: chval, zval:    4.00000   4.00000

Vna:  Cut-off radius for the neutral-atom potential:   5.658549
comcore: Pseudo-core radius Rcore=  1.791422

atom: _________________________________________________________________________

prinput: Basis input ----------------------------------------------------------

PAO.BasisType split     

%block ChemicalSpeciesLabel
    1    7 N                       # Species index, atomic number, species label
    2    6 C                       # Species index, atomic number, species label
%endblock ChemicalSpeciesLabel

%block PAO.Basis                 # Define Basis set
N                     2                    # Species label, number of l-shells
 n=2   0   2                         # n, l, Nzeta 
   4.071      2.905   
   1.000      1.000   
 n=2   1   2 P   1                   # n, l, Nzeta, Polarization, NzetaPol
   4.973      3.054   
   1.000      1.000   
C                     2                    # Species label, number of l-shells
 n=2   0   2                         # n, l, Nzeta 
   4.633      3.432   
   1.000      1.000   
 n=2   1   2 P   1                   # n, l, Nzeta, Polarization, NzetaPol
   5.659      3.653   
   1.000      1.000   
%endblock PAO.Basis

prinput: ----------------------------------------------------------------------

coor:   Atomic-coordinates input format  =     Fractional

siesta: Atomic coordinates (Bohr) and species
siesta:      4.63094  13.34970   0.00000  1        1
siesta:      6.95932  17.38257   0.00000  1        2
siesta:     -0.02582  13.34970   0.00000  1        3
siesta:      2.30256  14.69411   0.00000  1        4
siesta:      4.63094  18.72698   0.00000  1        5
siesta:      4.63094  21.41544   0.00000  1        6
siesta:      6.95932  25.44831   0.00000  1        7
siesta:     -2.35420  14.69411   0.00000  1        8
siesta:     -2.35420  17.38257   0.00000  1        9
siesta:     -7.01096  25.44831   0.00000  1       10
siesta:      4.63094  26.79272   0.00000  1       11
siesta:      4.63094  29.48119   0.00000  1       12
siesta:     -0.02582  29.48119   0.00000  1       13
siesta:     -4.68258  26.79272   0.00000  1       14
siesta:      2.30256  30.82560   0.00000  1       15
siesta:     -0.02582   2.59549   0.00000  2       16
siesta:     -0.02582   5.28395   0.00000  2       17
siesta:     -2.35420  38.89134   0.00000  2       18
siesta:     -2.35420  41.57980   0.00000  2       19
siesta:      2.30256  38.89134   0.00000  2       20
siesta:      2.30256  41.57980   0.00000  2       21
siesta:      4.63094  34.85847   0.00000  2       22
siesta:      4.63094  37.54693   0.00000  2       23
siesta:      6.95932  30.82560   0.00000  2       24
siesta:      6.95932  33.51406   0.00000  2       25
siesta:      9.28770  26.79272   0.00000  2       26
siesta:      9.28770  29.48119   0.00000  2       27
siesta:     -4.68258  34.85847   0.00000  2       28
siesta:     -4.68258  37.54693   0.00000  2       29
siesta:      2.30256   6.62836   0.00000  2       30
siesta:      2.30256   9.31683   0.00000  2       31
siesta:      4.63094  10.66124   0.00000  2       32
siesta:      6.95932  14.69411   0.00000  2       33
siesta:      9.28770  18.72698   0.00000  2       34
siesta:      9.28770  21.41544   0.00000  2       35
siesta:     11.61608  22.75985   0.00000  2       36
siesta:     11.61608  25.44831   0.00000  2       37
siesta:     -2.35420   6.62836   0.00000  2       38
siesta:     -2.35420   9.31683   0.00000  2       39
siesta:     -0.02582  10.66124   0.00000  2       40
siesta:      2.30256  17.38257   0.00000  2       41
siesta:      6.95932  22.75985   0.00000  2       42
siesta:     -4.68258  10.66124   0.00000  2       43
siesta:     -4.68258  13.34970   0.00000  2       44
siesta:     -0.02582  18.72698   0.00000  2       45
siesta:     -0.02582  21.41544   0.00000  2       46
siesta:      2.30256  22.75985   0.00000  2       47
siesta:      2.30256  25.44831   0.00000  2       48
siesta:     -7.01096  14.69411   0.00000  2       49
siesta:     -7.01096  17.38257   0.00000  2       50
siesta:     -4.68258  18.72698   0.00000  2       51
siesta:     -4.68258  21.41544   0.00000  2       52
siesta:     -2.35420  22.75985   0.00000  2       53
siesta:     -2.35420  25.44831   0.00000  2       54
siesta:     -9.33934  18.72698   0.00000  2       55
siesta:     -9.33934  21.41544   0.00000  2       56
siesta:     -7.01096  22.75985   0.00000  2       57
siesta:    -11.66772  22.75985   0.00000  2       58
siesta:    -11.66772  25.44831   0.00000  2       59
siesta:     -9.33934  26.79272   0.00000  2       60
siesta:     -9.33934  29.48119   0.00000  2       61
siesta:     -0.02582  26.79272   0.00000  2       62
siesta:     -4.68258  29.48119   0.00000  2       63
siesta:      2.30256  33.51406   0.00000  2       64
siesta:     -2.35420  30.82560   0.00000  2       65
siesta:     -2.35420  33.51406   0.00000  2       66
siesta:     -7.01096  30.82560   0.00000  2       67
siesta:     -7.01096  33.51406   0.00000  2       68
siesta:     -0.02582  34.85847   0.00000  2       69
siesta:     -0.02582  37.54693   0.00000  2       70
siesta:     -0.02582  42.92421   0.00000  2       71
siesta:     -0.02582  45.61267   0.00000  2       72

siesta: System type = slab      

initatomlists: Number of atoms, orbitals, and projectors:     72   936  1152

siesta: ******************** Simulation parameters ****************************
siesta:
siesta: The following are some of the parameters of the simulation.
siesta: A complete list of the parameters used, including default values,
siesta: can be found in file out.fdf
siesta:
redata: Non-Collinear-spin run           =     F
redata: SpinPolarized (Up/Down) run      =     F
redata: Number of spin components        =     1
redata: Long output                      =     F
redata: Number of Atomic Species         =        2
redata: Charge density info will appear in .RHO file
redata: Write Mulliken Pop.              =     NO
redata: Mesh Cutoff                      =   200.0000  Ry
redata: Net charge of the system         =     0.0000 |e|
redata: Max. number of SCF Iter          =      500
redata: SCF convergence failure will abort job
redata: Performing Pulay mixing using    =    10 iterations
redata: Mix DM in first SCF step ?       =     F
redata: Write Pulay info on disk?        =     F
redata: Discard 1st Pulay DM after  kick =     F
redata: New DM Mixing Weight             =     0.0500
redata: New DM Occupancy tolerance       = 0.000000000001
redata: No kicks to SCF
redata: DM Mixing Weight for Kicks       =     0.5000
redata: DM Tolerance for SCF             =     0.000100
redata: Require Energy convergence for SCF =     F
redata: DM Energy tolerance for SCF      =     0.000100 eV
redata: Require Harris convergence for SCF =     F
redata: DM Harris energy tolerance for SCF =     0.000100 eV
redata: Using Saved Data (generic)   =     F
redata: Use continuation files for DM    =     T
redata: Neglect nonoverlap interactions  =     F
redata: Method of Calculation            =     Diagonalization
redata: Divide and Conquer               =     T
redata: Electronic Temperature           =     0.0019  Ry
redata: Fix the spin of the system       =     F
redata: Dynamics option                  =     Verlet MD run
redata: Initial MD time step             =        1
redata:   Final MD time step             =        1
redata: Length of MD time step           =     1.0000  fs
redata: Initial Temperature of MD run    =     0.0000  K
redata: Perform a MD quench              =     F
redata: ***********************************************************************
Total number of electrons:   303.000000
Total ionic charge:   303.000000

* ProcessorY, Blocksize:    3  24

k-point displ. along   1 input, could be:     0.50    0.00
k-point displ. along   2 input, could be:     0.50    0.00
 Kpoints in:          231 . Kpoints trimmed:          231

siesta: k-grid: Number of k-points =   231
siesta: k-grid: Cutoff (effective) =     5.000 Ang
siesta: k-grid: Supercell and displacements
siesta: k-grid:   21   0   0      0.500
siesta: k-grid:    0  21   0      0.500
siesta: k-grid:    0   0   1      0.000
Naive supercell factors:     2    2    2

superc: Internal auxiliary supercell:     2 x     2 x     2  =       8
superc: Number of atoms, orbitals, and projectors:    576   7488   9216

* Maximum dynamic memory allocated =     4 MB

siesta:                 ==============================
                            Begin MD step =      1
                        ==============================

superc: Internal auxiliary supercell:     2 x     2 x     2  =       8
superc: Number of atoms, orbitals, and projectors:    576   7488   9216

outcell: Unit cell vectors (Ang):
       12.804619    7.392750    0.000000
        0.000000   14.785500    0.000000
        0.000000    0.000000   10.000000

outcell: Cell vector modules (Ang)   :   14.785500   14.785500   10.000000
outcell: Cell angles (23,13,12) (deg):     90.0000     90.0000     60.0000
outcell: Cell volume (Ang**3)        :   1893.2269
New_DM. Step:     1
Initializing Density Matrix...

InitMesh: MESH =   120 x   120 x    90 =     1296000
InitMesh: Mesh cutoff (required, used) =   200.000   223.865 Ry

* Maximum dynamic memory allocated =   135 MB

stepf: Fermi-Dirac step function

siesta: Program's energy decomposition (eV):
siesta: Ebs     =     -6169.129498
siesta: Eions   =     20814.213734
siesta: Ena     =      4878.603922
siesta: Ekin    =      7637.016727
siesta: Enl     =       194.598458
siesta: DEna    =        -0.000015
siesta: DUscf   =         0.000000
siesta: DUext   =         0.000000
siesta: Exc     =     -4544.696186
siesta: eta*DQ  =         0.000000
siesta: Emadel  =         0.000000
siesta: Emeta   =         0.000000
siesta: Emolmec =         0.000000
siesta: Ekinion =         0.000000
siesta: Eharris =    -12294.973572
siesta: Etot    =    -12648.690828
siesta: FreeEng =    -12648.690828

siesta: iscf   Eharris(eV)      E_KS(eV)   FreeEng(eV)   dDmax  Ef(eV)
siesta:    1   -12294.9736   -12648.6908   -12648.6908  5.6465 -6.9826
timer: Routine,Calls,Time,% = IterSCF        1    3016.075  99.59
elaps: Routine,Calls,Wall,% = IterSCF        1     251.937  99.60
siesta:    2   -16941.3427   -11605.1308   -11605.1877 14.3600 -4.4896
siesta:    3   -12283.8770   -12397.7740   -12397.8258  1.5412 -4.3166
siesta:    4   -12193.7313   -12320.4116   -12320.4588  1.3273 -4.0859
siesta:    5   -12161.1227   -12259.3064   -12259.3499  0.9247 -3.8838
siesta:    6   -12151.0307   -12229.3772   -12229.4322  0.8616 -3.7272
siesta:    7   -12143.8264   -12217.1421   -12217.1896  0.8153 -3.7790
siesta:    8   -12132.6343   -12188.7793   -12188.8650  0.5780 -3.8432
siesta:    9   -12130.8612   -12179.5444   -12179.5831  0.4918 -3.8663
siesta:   10   -12130.1526   -12173.2812   -12173.3489  0.4542 -3.8816
siesta:   11   -12129.8319   -12159.8994   -12159.9646  0.3125 -3.8837
siesta:   12   -12129.7436   -12137.2540   -12137.3413  0.3657 -3.7911
siesta:   13   -12129.7174   -12129.9917   -12130.0795  0.3691 -3.7513
siesta:   14   -12129.6559   -12130.5669   -12130.6298  0.2829 -3.7610
siesta:   15   -12129.3250   -12130.2278   -12130.2933  0.1603 -3.7703
siesta:   16   -12129.0044   -12129.5729   -12129.6340  0.1053 -3.7754
siesta:   17   -12128.8243   -12129.4634   -12129.5452  0.0783 -3.7770
siesta:   18   -12128.7789   -12129.0984   -12129.1868  0.0662 -3.7839
siesta:   19   -12128.7507   -12128.5798   -12128.6610  0.0323 -3.7810
siesta:   20   -12128.7352   -12127.7114   -12127.7883  0.0262 -3.7697
siesta:   21   -12128.7318   -12126.6917   -12126.7739  0.0359 -3.7681
siesta:   22   -12128.7296   -12126.4751   -12126.5572  0.0293 -3.7679
siesta:   23   -12128.7274   -12125.8180   -12125.8972  0.0332 -3.7661
siesta:   24   -12128.7192   -12125.3547   -12125.4362  0.0161 -3.7629
siesta:   25   -12128.7171   -12125.9839   -12126.0673  0.0096 -3.7670
siesta:   26   -12128.7155   -12126.2216   -12126.3042  0.0085 -3.7676
siesta:   27   -12128.7145   -12126.9493   -12127.0324  0.0069 -3.7697
siesta:   28   -12128.7149   -12127.6705   -12127.7538  0.0050 -3.7725
siesta:   29   -12128.7145   -12127.9226   -12128.0047  0.0039 -3.7728
siesta:   30   -12128.7141   -12128.2498   -12128.3322  0.0019 -3.7737
siesta:   31   -12128.7141   -12128.4487   -12128.5315  0.0009 -3.7739
siesta:   32   -12128.7141   -12128.5390   -12128.6217  0.0007 -3.7735
siesta:   33   -12128.7141   -12128.5986   -12128.6812  0.0007 -3.7731
siesta:   34   -12128.7141   -12128.6478   -12128.7305  0.0004 -3.7727
siesta:   35   -12128.7141   -12128.6746   -12128.7573  0.0003 -3.7726
siesta:   36   -12128.7141   -12128.6982   -12128.7809  0.0002 -3.7725
siesta:   37   -12128.7141   -12128.7027   -12128.7854  0.0002 -3.7724
siesta:   38   -12128.7141   -12128.6992   -12128.7818  0.0001 -3.7724
siesta:   39   -12128.7141   -12128.7004   -12128.7831  0.0001 -3.7724

siesta: E_KS(eV) =           -12128.7043

siesta: E_KS - E_eggbox =    -12128.7043

siesta: Atomic forces (eV/Ang):
----------------------------------------
   Tot   -0.013717   -0.257947    0.000000
----------------------------------------
   Max  688.058273
   Res  173.165174    sqrt( Sum f_i^2 / 3N )
----------------------------------------
   Max  688.058273    constrained

Stress-tensor-Voigt (kbar):     -700.65    -3067.57       -0.07       -5.16        0.00        0.00
(Free)E + p*V (eV/cell)   -10644.5221
Target enthalpy (eV/cell)   -12128.7870

siesta: Stress tensor (static) (eV/Ang**3):
        -0.437308   -0.003221    0.000000
        -0.003221   -1.914606    0.000000
         0.000000    0.000000   -0.000046

siesta: Pressure (static):       1256.09888680  kBar

siesta: Stress tensor (total) (eV/Ang**3):
        -0.437308   -0.003221    0.000000
        -0.003221   -1.914606    0.000000
         0.000000    0.000000   -0.000046

siesta: Pressure (total):       1256.09888680  kBar

siesta: Temp_ion =       0.000 K

* Maximum dynamic memory allocated =   148 MB
Computing bands...

siesta: Program's energy decomposition (eV):
siesta: Ebs     =     -4901.076015
siesta: Eions   =     20814.213734
siesta: Ena     =      4878.603922
siesta: Ekin    =     10705.075061
siesta: Enl     =     -1485.976887
siesta: DEna    =      -802.661342
siesta: DUscf   =       110.397435
siesta: DUext   =         0.000000
siesta: Exc     =     -4719.928751
siesta: eta*DQ  =         0.000000
siesta: Emadel  =         0.000000
siesta: Emeta   =         0.000000
siesta: Emolmec =         0.000000
siesta: Ekinion =         0.000000
siesta: Eharris =    -12128.714073
siesta: Etot    =    -12128.704296
siesta: FreeEng =    -12128.786953

siesta: Final energy (eV):
siesta:  Band Struct. =   -4901.076015
siesta:       Kinetic =   10705.075061
siesta:       Hartree =   34771.798171
siesta:    Ext. field =       0.000000
siesta:   Exch.-corr. =   -4719.928751
siesta:  Ion-electron =  -79785.365230
siesta:       Ion-ion =   26899.716453
siesta:       Ekinion =       0.000000
siesta:         Total =  -12128.704296

siesta: Atomic forces (eV/Ang):
siesta:      1   32.188808  -11.150189    0.000000
siesta:      2    2.542585   -2.013326    0.000000
siesta:      3    0.078680 -119.696514    0.000000
siesta:      4    4.672774  688.058273    0.000000
siesta:      5   -2.499020    2.705044    0.000000
siesta:      6    0.354439    1.714642    0.000000
siesta:      7   -0.122000   -2.997134    0.000000
siesta:      8  -10.154140  672.870569    0.000000
siesta:      9  -25.294548   -0.266824    0.000000
siesta:     10   -0.137482   -1.731120    0.000000
siesta:     11   -1.592874   -1.009367    0.000000
siesta:     12    2.314639   -2.770035    0.000000
siesta:     13  -18.323661 -684.251963    0.000000
siesta:     14    0.159805    0.287215    0.000000
siesta:     15   35.879746   14.370393    0.000000
siesta:     16   10.318740  647.597232    0.000000
siesta:     17    1.377978 -120.280007    0.000000
siesta:     18    0.893932  117.647989    0.000000
siesta:     19   -9.844230 -656.397817    0.000000
siesta:     20    1.071947  112.252066    0.000000
siesta:     21   17.719946 -651.936743    0.000000
siesta:     22   25.891075    6.838529    0.000000
siesta:     23   35.726216 -550.008317    0.000000
siesta:     24    1.746933    0.524937    0.000000
siesta:     25   -2.899359    0.093804    0.000000
siesta:     26    1.485586    2.613495    0.000000
siesta:     27   -0.966227   -0.410594    0.000000
siesta:     28  -25.927577    6.171732    0.000000
siesta:     29  -34.863965 -548.732008    0.000000
siesta:     30   20.656748  552.574772    0.000000
siesta:     31   -0.802748 -126.112371    0.000000
siesta:     32   26.842320  549.292700    0.000000
siesta:     33   -1.101988    1.867312    0.000000
siesta:     34   -1.150499   -1.401866    0.000000
siesta:     35    0.163912   -2.065631    0.000000
siesta:     36    0.029225    6.682964    0.000000
siesta:     37   -0.607786   -6.437186    0.000000
siesta:     38  -14.627589  547.825519    0.000000
siesta:     39    3.299301 -126.845246    0.000000
siesta:     40   -4.090696  537.603991    0.000000
siesta:     41   23.088818   -6.066394    0.000000
siesta:     42   -0.813503    1.425078    0.000000
siesta:     43  -33.343736  548.816949    0.000000
siesta:     44  -27.411212   -9.099626    0.000000
siesta:     45   16.109916  579.459907    0.000000
siesta:     46    1.171114    0.786095    0.000000
siesta:     47    0.594196   -1.721310    0.000000
siesta:     48    2.527000    1.670732    0.000000
siesta:     49    1.949517   -1.708566    0.000000
siesta:     50   -0.948081   -0.330568    0.000000
siesta:     51    0.476914    3.209371    0.000000
siesta:     52   -0.142313   -0.588540    0.000000
siesta:     53    0.283832    0.817913    0.000000
siesta:     54   -1.586829   -0.269766    0.000000
siesta:     55    1.234860    0.011431    0.000000
siesta:     56   -1.515509   -2.365701    0.000000
siesta:     57    0.552679    1.498541    0.000000
siesta:     58    0.051273    6.891964    0.000000
siesta:     59    0.577223   -6.108469    0.000000
siesta:     60   -0.811390    1.817313    0.000000
siesta:     61    0.802839   -0.052516    0.000000
siesta:     62   -0.042056    1.241553    0.000000
siesta:     63    0.985186   -2.987343    0.000000
siesta:     64   12.079199 -561.952787    0.000000
siesta:     65  -26.962778    9.255675    0.000000
siesta:     66  -23.891876 -561.228596    0.000000
siesta:     67   -1.548608   -0.390501    0.000000
siesta:     68    3.212679    2.206158    0.000000
siesta:     69    1.310791  128.246776    0.000000
siesta:     70   -0.533380 -550.156916    0.000000
siesta:     71    1.344453  116.802400    0.000000
siesta:     72  -19.223882 -552.467128    0.000000
siesta: ----------------------------------------
siesta:    Tot   -0.013717   -0.257947    0.000000

siesta: Stress tensor (static) (eV/Ang**3):
siesta:    -0.437308   -0.003221    0.000000
siesta:    -0.003221   -1.914606    0.000000
siesta:     0.000000    0.000000   -0.000046

siesta: Cell volume =       1893.226884 Ang**3

siesta: Pressure (static):
siesta:                Solid            Molecule  Units
siesta:           0.00853862          0.13624332  Ry/Bohr**3
siesta:           0.78398679         12.50939847  eV/Ang**3
siesta:        1256.09888680      20042.48257374  kBar
(Free)E+ p_basis*V_orbitals  =      -12100.193789
(Free)Eharris+ p_basis*V_orbitals  =      -12100.207426

siesta: Electric dipole (a.u.)  =    0.000000    0.000000    0.000000
siesta: Electric dipole (Debye) =    0.000000    0.000000    0.000000

* Maximum dynamic memory allocated : Node    0 =   148 MB
* Maximum dynamic memory allocated : Node    1 =    59 MB
* Maximum dynamic memory allocated : Node    2 =    60 MB
* Maximum dynamic memory allocated : Node    3 =   135 MB
* Maximum dynamic memory allocated : Node    4 =   144 MB
* Maximum dynamic memory allocated : Node    5 =    52 MB
* Maximum dynamic memory allocated : Node    6 =    53 MB
* Maximum dynamic memory allocated : Node    7 =   134 MB
* Maximum dynamic memory allocated : Node    8 =   128 MB
* Maximum dynamic memory allocated : Node    9 =    53 MB
* Maximum dynamic memory allocated : Node   10 =    54 MB
* Maximum dynamic memory allocated : Node   11 =   123 MB

* Maximum memory occured during matrixMtoO                    

timer: CPU execution times:
timer:  Routine       Calls   Time/call    Tot.time        %
timer:  siesta            1  114976.229  114976.229   100.00
timer:  Setup             1       3.389       3.389     0.00
timer:  bands             3     226.658     679.974     0.59
timer:  writewave         1       0.023       0.023     0.00
timer:  KSV_init          1       0.004       0.004     0.00
timer:  IterMD            1  114285.953  114285.953    99.40
timer:  hsparse           1       0.162       0.162     0.00
timer:  overlap           1       7.153       7.153     0.01
timer:  IterSCF          39    2927.310  114165.071    99.29
timer:  kinefsm           2       3.626       7.251     0.01
timer:  nlefsm            2      18.311      36.622     0.03
timer:  DHSCF            40      62.053    2482.120     2.16
timer:  DHSCF1            1       0.903       0.903     0.00
timer:  DHSCF2            1      24.299      24.299     0.02
timer:  REORD           322       0.002       0.741     0.00
timer:  POISON           41       0.450      18.454     0.02
timer:  DHSCF3           40      60.893    2435.717     2.12
timer:  rhoofd           40      12.360     494.384     0.43
timer:  cellXC           40       2.389      95.543     0.08
timer:  vmat             40      29.760    1190.388     1.04
timer:  MolMec            2       0.000       0.000     0.00
timer:  diagon           39    2864.040  111697.555    97.15
timer:  c-eigval       9130       5.592   51056.012    44.41
timer:  c-buildHS      9130       0.033     300.214     0.26
timer:  cdiag         18139       5.689  103191.001    89.75
timer:  cdiag1        18139       0.261    4743.024     4.13
timer:  cdiag2        18139       1.843   33425.000    29.07
timer:  cdiag3        18139       3.378   61278.555    53.30
timer:  cdiag4        18139       0.089    1622.291     1.41
timer:  c-eigvec       9009       5.848   52680.864    45.82
timer:  c-buildD       9009       0.954    8590.538     7.47
timer:  DHSCF4            1      20.951      20.951     0.02
timer:  dfscf             1      19.531      19.531     0.02
timer:  overfsm           1       0.280       0.280     0.00
timer:  optical           1       6.313       6.313     0.01
  

elaps: ELAPSED times:
elaps:  Routine       Calls   Time/call    Tot.time        %
elaps:  siesta            1    9603.922    9603.922   100.00
elaps:  Setup             1       0.282       0.282     0.00
elaps:  bands             3      18.948      56.844     0.59
elaps:  writewave         1       0.002       0.002     0.00
elaps:  KSV_init          1       0.000       0.000     0.00
elaps:  IterMD            1    9546.265    9546.265    99.40
elaps:  hsparse           1       0.016       0.016     0.00
elaps:  overlap           1       0.710       0.710     0.01
elaps:  IterSCF          39     244.517    9536.169    99.29
elaps:  kinefsm           2       0.362       0.724     0.01
elaps:  nlefsm            2       1.543       3.085     0.03
elaps:  DHSCF            40       5.229     209.148     2.18
elaps:  DHSCF1            1       0.077       0.077     0.00
elaps:  DHSCF2            1       2.029       2.029     0.02
elaps:  REORD           322       0.000       0.097     0.00
elaps:  POISON           41       0.038       1.550     0.02
elaps:  DHSCF3           40       5.088     203.503     2.12
elaps:  rhoofd           40       2.233      89.327     0.93
elaps:  cellXC           40       0.199       7.963     0.08
elaps:  vmat             40       2.487      99.477     1.04
elaps:  MolMec            2       0.000       0.000     0.00
elaps:  diagon           39     239.238    9330.285    97.15
elaps:  c-eigval       9130       0.467    4264.641    44.41
elaps:  c-buildHS      9130       0.004      32.390     0.34
elaps:  cdiag         18139       0.471    8537.654    88.90
elaps:  cdiag1        18139       0.021     386.162     4.02
elaps:  cdiag2        18139       0.154    2794.560    29.10
elaps:  cdiag3        18139       0.283    5126.280    53.38
elaps:  cdiag4        18139       0.007     130.034     1.35
elaps:  c-eigvec       9009       0.481    4332.932    45.12
elaps:  c-buildD       9009       0.087     784.823     8.17
elaps:  DHSCF4            1       3.501       3.501     0.04
elaps:  dfscf             1       3.311       3.311     0.03
elaps:  overfsm           1       0.030       0.030     0.00
elaps:  optical           1       0.000       0.000     0.00
  
>> End of run:   6-MAY-2016   4:54:18
