Siesta Version:                                        siesta-3.2-pl-3
Architecture  : x86_64-unknown-linux-gnu--unknown
Compiler flags: mpiifort -g -O2 -fPIC -xSSE4.1 -fp-model source -shared-intel 
PARALLEL version

* Running on    8 nodes in parallel
>> Start of run:  27-APR-2016  19:48:04

                           ***********************       
                           *  WELCOME TO SIESTA  *       
                           ***********************       

reinit: Reading from standard input
************************** Dump of input data file ****************************
#(1) General system descriptors
SystemName            GRP_doping    # Descriptive name of the system
SystemLabel           GRP_doping    # Short name for naming files
%include STRUCT.fdf
%include KPT.fdf
%include BASIS.fdf
#%include TS.fdf # for transiesta calculation
#(4) DFT, Grid, SCF
XC.functional         GGA           # LDA or GGA (default = LDA)
XC.authors            PBE           # CA (Ceperley-Aldr) = PZ
                                    #    (Perdew-Zunger) - LDA - Default
                                    # PW92 (Perdew-Wang-92) - LDA
                                    # PBE (Perdew-Burke-Ernzerhof) - GGA
MeshCutoff            200.000000    Ry      # Default: 50.0 Ry ~ 0.444 Bohr
                                    #         100.0 Ry ~ 0.314 Bohr
MaxSCFIterations      500           # Default: 50
DM.MixingWeight       0.05          # Default: 0.25
DM.NumberPulay        10            # Default: 0
DM.PulayOnFile        F             # SystemLabel.P1, SystemLabel.P2
DM.Tolerance          1.d-4         # Default: 1.d-4
DM.UseSaveDM          .true.        # because of the bug
SCFMustConverge       .true.
NeglNonOverlapInt     F             # Default: F
#(5) Eigenvalue problem: order-N or diagonalization
SolutionMethod        Diagon        # or Transiesta
ElectronicTemperature 300.0 K       # Default: 300.0 K
#(6) Molecular dynamics and relaxations
#MD.TypeOfRun          CG            # Type of dynamics:
#MD.VariableCell       F
#MD.NumCGsteps         0           # 0 for single-point / 100 for gopt
#MD.MaxCGDispl         0.2 Bohr      # Default: 0.2 Bohr
#MD.MaxForceTol        0.02 eV/Ang   # Default: 0.04 eV/Ang
#MD.MaxStressTol       1.0 GPa       # Default: 1.0 GPa
# Geometry Constraints
#%block GeometryConstraints
#	position from 1 to 44
#%endblock GeometryConstraints
BandLinesScale   pi/a
%block BandLines
 1   0.00000000  0.00000000  0.00000000
50   0.00000000  0.07809418  0.00000000
50   0.04509075  0.07809242  0.00000000
20   0.00000000  0.00000000  0.00000000
%endblock BandLines
************************** End of input data file *****************************

reinit: -----------------------------------------------------------------------
reinit: System Name: GRP_doping
reinit: -----------------------------------------------------------------------
reinit: System Label: GRP_doping                                                  
reinit: -----------------------------------------------------------------------

initatom: Reading input for the pseudopotentials and atomic orbitals ----------
 Species number:            1  Label: B Atomic number:           5
 Species number:            2  Label: C Atomic number:           6
Ground state valence configuration:   2s02  2p01
Reading pseudopotential information in formatted form from B.psf

Valence configuration for pseudopotential generation:
2s( 2.00) rc: 1.74
2p( 1.00) rc: 1.74
3d( 0.00) rc: 1.74
4f( 0.00) rc: 1.74
Ground state valence configuration:   2s02  2p02
Reading pseudopotential information in formatted form from C.psf

Valence configuration for pseudopotential generation:
2s( 2.00) rc: 1.54
2p( 2.00) rc: 1.54
3d( 0.00) rc: 1.54
4f( 0.00) rc: 1.54
For B, standard SIESTA heuristics set lmxkb to 3
 (one more than the basis l, including polarization orbitals).
Use PS.lmax or PS.KBprojectors blocks to override.
For C, standard SIESTA heuristics set lmxkb to 3
 (one more than the basis l, including polarization orbitals).
Use PS.lmax or PS.KBprojectors blocks to override.

<basis_specs>
===============================================================================
B                    Z=   5    Mass=  10.810        Charge= 0.17977+309
Lmxo=1 Lmxkb= 3    BasisType=split      Semic=F
L=0  Nsemic=0  Cnfigmx=2
          n=1  nzeta=2  polorb=0
            splnorm:   0.15000    
               vcte:    0.0000    
               rinn:    0.0000    
                rcs:    0.0000      0.0000    
            lambdas:    1.0000      1.0000    
L=1  Nsemic=0  Cnfigmx=2
          n=1  nzeta=2  polorb=1
            splnorm:   0.15000    
               vcte:    0.0000    
               rinn:    0.0000    
                rcs:    0.0000      0.0000    
            lambdas:    1.0000      1.0000    
-------------------------------------------------------------------------------
L=0  Nkbl=1  erefs: 0.17977+309
L=1  Nkbl=1  erefs: 0.17977+309
L=2  Nkbl=1  erefs: 0.17977+309
L=3  Nkbl=1  erefs: 0.17977+309
===============================================================================
</basis_specs>

atom: Called for B                     (Z =   5)

read_vps: Pseudopotential generation method:
read_vps: ATM3      Troullier-Martins                       
Total valence charge:    3.00000

read_vps: Pseudopotential includes a core correction:
read_vps: Pseudo-core for xc-correction

xc_check: Exchange-correlation functional:
xc_check: GGA Perdew, Burke & Ernzerhof 1996
V l=0 = -2*Zval/r beyond r=  1.7165
V l=1 = -2*Zval/r beyond r=  1.7165
V l=2 = -2*Zval/r beyond r=  1.7165
V l=3 = -2*Zval/r beyond r=  1.6951
All V_l potentials equal beyond r=  1.7165
This should be close to max(r_c) in ps generation
All pots = -2*Zval/r beyond r=  1.7165

VLOCAL1: 99.0% of the norm of Vloc inside     14.733 Ry
VLOCAL1: 99.9% of the norm of Vloc inside     33.577 Ry
atom: Maximum radius for 4*pi*r*r*local-pseudopot. charge    2.04484
atom: Maximum radius for r*vlocal+2*Zval:    1.75994
GHOST: No ghost state for L =  0
GHOST: No ghost state for L =  1
GHOST: No ghost state for L =  2
GHOST: No ghost state for L =  3

KBgen: Kleinman-Bylander projectors: 
   l= 0   rc=  1.897051   el= -0.693730   Ekb=  4.595746   kbcos=  0.286105
   l= 1   rc=  1.920920   el= -0.265236   Ekb= -2.350715   kbcos= -0.315747
   l= 2   rc=  2.044840   el=  0.002055   Ekb= -0.690767   kbcos= -0.013822
   l= 3   rc=  2.149707   el=  0.003188   Ekb= -0.315358   kbcos= -0.002055

KBgen: Total number of  Kleinman-Bylander projectors:   16
atom: -------------------------------------------------------------------------

atom: SANKEY-TYPE ORBITALS:
atom: Selected multiple-zeta basis: split     

SPLIT: Orbitals with angular momentum L= 0

SPLIT: Basis orbitals for state 2s

SPLIT: PAO cut-off radius determined from an
SPLIT: energy shift=  0.007350 Ry

   izeta = 1
                 lambda =    1.000000
                     rc =    5.422032
                 energy =   -0.686029
                kinetic =    0.576707
    potential(screened) =   -1.262736
       potential(ionic) =   -3.271094

   izeta = 2
                 rmatch =    4.222573
              splitnorm =    0.150000
                 energy =   -0.602132
                kinetic =    0.858975
    potential(screened) =   -1.461107
       potential(ionic) =   -3.582536

SPLIT: Orbitals with angular momentum L= 1

SPLIT: Basis orbitals for state 2p

SPLIT: PAO cut-off radius determined from an
SPLIT: energy shift=  0.007350 Ry

   izeta = 1
                 lambda =    1.000000
                     rc =    6.790259
                 energy =   -0.258578
                kinetic =    1.481412
    potential(screened) =   -1.739989
       potential(ionic) =   -3.657461

   izeta = 2
                 rmatch =    4.608740
              splitnorm =    0.150000
                 energy =   -0.173757
                kinetic =    2.186690
    potential(screened) =   -2.360447
       potential(ionic) =   -4.464260

POLgen: Perturbative polarization orbital with L=  2

POLgen: Polarization orbital for state 2p

   izeta = 1
                     rc =    6.790259
                 energy =    0.684082
                kinetic =    1.471481
    potential(screened) =   -0.787399
       potential(ionic) =   -2.406985
atom: Total number of Sankey-type orbitals: 13

atm_pop: Valence configuration (for local Pseudopot. screening):
 2s( 2.00)                                                            
 2p( 1.00)                                                            
Vna: chval, zval:    3.00000   3.00000

Vna:  Cut-off radius for the neutral-atom potential:   6.790259
comcore: Pseudo-core radius Rcore=  2.122997

atom: _________________________________________________________________________

<basis_specs>
===============================================================================
C                    Z=   6    Mass=  12.010        Charge= 0.17977+309
Lmxo=1 Lmxkb= 3    BasisType=split      Semic=F
L=0  Nsemic=0  Cnfigmx=2
          n=1  nzeta=2  polorb=0
            splnorm:   0.15000    
               vcte:    0.0000    
               rinn:    0.0000    
                rcs:    0.0000      0.0000    
            lambdas:    1.0000      1.0000    
L=1  Nsemic=0  Cnfigmx=2
          n=1  nzeta=2  polorb=1
            splnorm:   0.15000    
               vcte:    0.0000    
               rinn:    0.0000    
                rcs:    0.0000      0.0000    
            lambdas:    1.0000      1.0000    
-------------------------------------------------------------------------------
L=0  Nkbl=1  erefs: 0.17977+309
L=1  Nkbl=1  erefs: 0.17977+309
L=2  Nkbl=1  erefs: 0.17977+309
L=3  Nkbl=1  erefs: 0.17977+309
===============================================================================
</basis_specs>

atom: Called for C                     (Z =   6)

read_vps: Pseudopotential generation method:
read_vps: ATM3      Troullier-Martins                       
Total valence charge:    4.00000

read_vps: Pseudopotential includes a core correction:
read_vps: Pseudo-core for xc-correction

xc_check: Exchange-correlation functional:
xc_check: GGA Perdew, Burke & Ernzerhof 1996
V l=0 = -2*Zval/r beyond r=  1.5227
V l=1 = -2*Zval/r beyond r=  1.5227
V l=2 = -2*Zval/r beyond r=  1.5227
V l=3 = -2*Zval/r beyond r=  1.5038
All V_l potentials equal beyond r=  1.5227
This should be close to max(r_c) in ps generation
All pots = -2*Zval/r beyond r=  1.5227

VLOCAL1: 99.0% of the norm of Vloc inside     18.722 Ry
VLOCAL1: 99.9% of the norm of Vloc inside     42.668 Ry
atom: Maximum radius for 4*pi*r*r*local-pseudopot. charge    1.83678
atom: Maximum radius for r*vlocal+2*Zval:    1.58088
GHOST: No ghost state for L =  0
GHOST: No ghost state for L =  1
GHOST: No ghost state for L =  2
GHOST: No ghost state for L =  3

KBgen: Kleinman-Bylander projectors: 
   l= 0   rc=  1.704034   el= -1.009801   Ekb=  5.335044   kbcos=  0.316824
   l= 1   rc=  1.704034   el= -0.388707   Ekb= -3.785862   kbcos= -0.366464
   l= 2   rc=  1.791422   el=  0.001971   Ekb= -0.970471   kbcos= -0.009212
   l= 3   rc=  1.859892   el=  0.003065   Ekb= -0.399525   kbcos= -0.001223

KBgen: Total number of  Kleinman-Bylander projectors:   16
atom: -------------------------------------------------------------------------

atom: SANKEY-TYPE ORBITALS:
atom: Selected multiple-zeta basis: split     

SPLIT: Orbitals with angular momentum L= 0

SPLIT: Basis orbitals for state 2s

SPLIT: PAO cut-off radius determined from an
SPLIT: energy shift=  0.007350 Ry

   izeta = 1
                 lambda =    1.000000
                     rc =    4.632753
                 energy =   -1.002270
                kinetic =    0.855760
    potential(screened) =   -1.858031
       potential(ionic) =   -5.417575

   izeta = 2
                 rmatch =    3.431921
              splitnorm =    0.150000
                 energy =   -0.867111
                kinetic =    1.300804
    potential(screened) =   -2.167915
       potential(ionic) =   -5.962684

SPLIT: Orbitals with angular momentum L= 1

SPLIT: Basis orbitals for state 2p

SPLIT: PAO cut-off radius determined from an
SPLIT: energy shift=  0.007350 Ry

   izeta = 1
                 lambda =    1.000000
                     rc =    5.658549
                 energy =   -0.381140
                kinetic =    2.399701
    potential(screened) =   -2.780841
       potential(ionic) =   -6.206085

   izeta = 2
                 rmatch =    3.653288
              splitnorm =    0.150000
                 energy =   -0.249149
                kinetic =    3.542762
    potential(screened) =   -3.791911
       potential(ionic) =   -7.581078

POLgen: Perturbative polarization orbital with L=  2

POLgen: Polarization orbital for state 2p

   izeta = 1
                     rc =    5.658549
                 energy =    1.109913
                kinetic =    2.304789
    potential(screened) =   -1.194876
       potential(ionic) =   -4.013592
atom: Total number of Sankey-type orbitals: 13

atm_pop: Valence configuration (for local Pseudopot. screening):
 2s( 2.00)                                                            
 2p( 2.00)                                                            
Vna: chval, zval:    4.00000   4.00000

Vna:  Cut-off radius for the neutral-atom potential:   5.658549
comcore: Pseudo-core radius Rcore=  1.791422

atom: _________________________________________________________________________

prinput: Basis input ----------------------------------------------------------

PAO.BasisType split     

%block ChemicalSpeciesLabel
    1    5 B                       # Species index, atomic number, species label
    2    6 C                       # Species index, atomic number, species label
%endblock ChemicalSpeciesLabel

%block PAO.Basis                 # Define Basis set
B                     2                    # Species label, number of l-shells
 n=2   0   2                         # n, l, Nzeta 
   5.422      4.223   
   1.000      1.000   
 n=2   1   2 P   1                   # n, l, Nzeta, Polarization, NzetaPol
   6.790      4.609   
   1.000      1.000   
C                     2                    # Species label, number of l-shells
 n=2   0   2                         # n, l, Nzeta 
   4.633      3.432   
   1.000      1.000   
 n=2   1   2 P   1                   # n, l, Nzeta, Polarization, NzetaPol
   5.659      3.653   
   1.000      1.000   
%endblock PAO.Basis

prinput: ----------------------------------------------------------------------

coor:   Atomic-coordinates input format  =     Fractional

siesta: Atomic coordinates (Bohr) and species
siesta:      2.30256   9.31683   0.00000  1        1
siesta:     -0.02582  10.66124   0.00000  1        2
siesta:     -0.02582  13.34970   0.00000  1        3
siesta:      2.30256  14.69411   0.00000  1        4
siesta:      4.63094  21.41544   0.00000  1        5
siesta:      6.95932  25.44831   0.00000  1        6
siesta:     -2.35420  14.69411   0.00000  1        7
siesta:     -0.02582  21.41544   0.00000  1        8
siesta:      2.30256  22.75985   0.00000  1        9
siesta:      2.30256  25.44831   0.00000  1       10
siesta:     -4.68258  21.41544   0.00000  1       11
siesta:     -2.35420  22.75985   0.00000  1       12
siesta:     -2.35420  25.44831   0.00000  1       13
siesta:     -7.01096  22.75985   0.00000  1       14
siesta:     -7.01096  25.44831   0.00000  1       15
siesta:      4.63094  26.79272   0.00000  1       16
siesta:     -0.02582  26.79272   0.00000  1       17
siesta:     -4.68258  26.79272   0.00000  1       18
siesta:     -4.68258  29.48119   0.00000  1       19
siesta:     -7.01096  30.82560   0.00000  1       20
siesta:     -7.01096  33.51406   0.00000  1       21
siesta:     -0.02582   2.59549   0.00000  2       22
siesta:     -0.02582   5.28395   0.00000  2       23
siesta:     -2.35420  38.89134   0.00000  2       24
siesta:     -2.35420  41.57980   0.00000  2       25
siesta:      2.30256  38.89134   0.00000  2       26
siesta:      2.30256  41.57980   0.00000  2       27
siesta:      4.63094  34.85847   0.00000  2       28
siesta:      4.63094  37.54693   0.00000  2       29
siesta:      6.95932  30.82560   0.00000  2       30
siesta:      6.95932  33.51406   0.00000  2       31
siesta:      9.28770  26.79272   0.00000  2       32
siesta:      9.28770  29.48119   0.00000  2       33
siesta:     -4.68258  34.85847   0.00000  2       34
siesta:     -4.68258  37.54693   0.00000  2       35
siesta:      2.30256   6.62836   0.00000  2       36
siesta:      4.63094  10.66124   0.00000  2       37
siesta:      4.63094  13.34970   0.00000  2       38
siesta:      6.95932  14.69411   0.00000  2       39
siesta:      6.95932  17.38257   0.00000  2       40
siesta:      9.28770  18.72698   0.00000  2       41
siesta:      9.28770  21.41544   0.00000  2       42
siesta:     11.61608  22.75985   0.00000  2       43
siesta:     11.61608  25.44831   0.00000  2       44
siesta:     -2.35420   6.62836   0.00000  2       45
siesta:     -2.35420   9.31683   0.00000  2       46
siesta:      2.30256  17.38257   0.00000  2       47
siesta:      4.63094  18.72698   0.00000  2       48
siesta:      6.95932  22.75985   0.00000  2       49
siesta:     -4.68258  10.66124   0.00000  2       50
siesta:     -4.68258  13.34970   0.00000  2       51
siesta:     -2.35420  17.38257   0.00000  2       52
siesta:     -0.02582  18.72698   0.00000  2       53
siesta:     -7.01096  14.69411   0.00000  2       54
siesta:     -7.01096  17.38257   0.00000  2       55
siesta:     -4.68258  18.72698   0.00000  2       56
siesta:     -9.33934  18.72698   0.00000  2       57
siesta:     -9.33934  21.41544   0.00000  2       58
siesta:    -11.66772  22.75985   0.00000  2       59
siesta:    -11.66772  25.44831   0.00000  2       60
siesta:     -9.33934  26.79272   0.00000  2       61
siesta:     -9.33934  29.48119   0.00000  2       62
siesta:      4.63094  29.48119   0.00000  2       63
siesta:     -0.02582  29.48119   0.00000  2       64
siesta:      2.30256  30.82560   0.00000  2       65
siesta:      2.30256  33.51406   0.00000  2       66
siesta:     -2.35420  30.82560   0.00000  2       67
siesta:     -2.35420  33.51406   0.00000  2       68
siesta:     -0.02582  34.85847   0.00000  2       69
siesta:     -0.02582  37.54693   0.00000  2       70
siesta:     -0.02582  42.92421   0.00000  2       71
siesta:     -0.02582  45.61267   0.00000  2       72

siesta: System type = slab      

initatomlists: Number of atoms, orbitals, and projectors:     72   936  1152

siesta: ******************** Simulation parameters ****************************
siesta:
siesta: The following are some of the parameters of the simulation.
siesta: A complete list of the parameters used, including default values,
siesta: can be found in file out.fdf
siesta:
redata: Non-Collinear-spin run           =     F
redata: SpinPolarized (Up/Down) run      =     F
redata: Number of spin components        =     1
redata: Long output                      =     F
redata: Number of Atomic Species         =        2
redata: Charge density info will appear in .RHO file
redata: Write Mulliken Pop.              =     NO
redata: Mesh Cutoff                      =   200.0000  Ry
redata: Net charge of the system         =     0.0000 |e|
redata: Max. number of SCF Iter          =      500
redata: SCF convergence failure will abort job
redata: Performing Pulay mixing using    =    10 iterations
redata: Mix DM in first SCF step ?       =     F
redata: Write Pulay info on disk?        =     F
redata: Discard 1st Pulay DM after  kick =     F
redata: New DM Mixing Weight             =     0.0500
redata: New DM Occupancy tolerance       = 0.000000000001
redata: No kicks to SCF
redata: DM Mixing Weight for Kicks       =     0.5000
redata: DM Tolerance for SCF             =     0.000100
redata: Require Energy convergence for SCF =     F
redata: DM Energy tolerance for SCF      =     0.000100 eV
redata: Require Harris convergence for SCF =     F
redata: DM Harris energy tolerance for SCF =     0.000100 eV
redata: Using Saved Data (generic)   =     F
redata: Use continuation files for DM    =     T
redata: Neglect nonoverlap interactions  =     F
redata: Method of Calculation            =     Diagonalization
redata: Divide and Conquer               =     T
redata: Electronic Temperature           =     0.0019  Ry
redata: Fix the spin of the system       =     F
redata: Dynamics option                  =     Verlet MD run
redata: Initial MD time step             =        1
redata:   Final MD time step             =        1
redata: Length of MD time step           =     1.0000  fs
redata: Initial Temperature of MD run    =     0.0000  K
redata: Perform a MD quench              =     F
redata: ***********************************************************************
Total number of electrons:   267.000000
Total ionic charge:   267.000000

* ProcessorY, Blocksize:    2  24

k-point displ. along   1 input, could be:     0.50    0.00
k-point displ. along   2 input, could be:     0.50    0.00
 Kpoints in:          231 . Kpoints trimmed:          231

siesta: k-grid: Number of k-points =   231
siesta: k-grid: Cutoff (effective) =     5.000 Ang
siesta: k-grid: Supercell and displacements
siesta: k-grid:   21   0   0      0.500
siesta: k-grid:    0  21   0      0.500
siesta: k-grid:    0   0   1      0.000
Naive supercell factors:     2    2    2

superc: Internal auxiliary supercell:     2 x     2 x     2  =       8
superc: Number of atoms, orbitals, and projectors:    576   7488   9216

* Maximum dynamic memory allocated =     4 MB

siesta:                 ==============================
                            Begin MD step =      1
                        ==============================

superc: Internal auxiliary supercell:     2 x     2 x     2  =       8
superc: Number of atoms, orbitals, and projectors:    576   7488   9216

outcell: Unit cell vectors (Ang):
       12.804619    7.392750    0.000000
        0.000000   14.785500    0.000000
        0.000000    0.000000   10.000000

outcell: Cell vector modules (Ang)   :   14.785500   14.785500   10.000000
outcell: Cell angles (23,13,12) (deg):     90.0000     90.0000     60.0000
outcell: Cell volume (Ang**3)        :   1893.2269
New_DM. Step:     1
Initializing Density Matrix...

InitMesh: MESH =   120 x   120 x    90 =     1296000
InitMesh: Mesh cutoff (required, used) =   200.000   223.865 Ry

* Maximum dynamic memory allocated =   223 MB

stepf: Fermi-Dirac step function

siesta: Program's energy decomposition (eV):
siesta: Ebs     =     -5521.406294
siesta: Eions   =     15713.820136
siesta: Ena     =      4223.597396
siesta: Ekin    =      5270.679987
siesta: Enl     =       818.920803
siesta: DEna    =        -0.000008
siesta: DUscf   =         0.000000
siesta: DUext   =         0.000000
siesta: Exc     =     -4203.939106
siesta: eta*DQ  =         0.000000
siesta: Emadel  =         0.000000
siesta: Emeta   =         0.000000
siesta: Emolmec =         0.000000
siesta: Ekinion =         0.000000
siesta: Eharris =     -9349.258414
siesta: Etot    =     -9604.561065
siesta: FreeEng =     -9604.561065

siesta: iscf   Eharris(eV)      E_KS(eV)   FreeEng(eV)   dDmax  Ef(eV)
siesta:    1    -9349.2584    -9604.5611    -9604.5611  7.1217 -8.4639
timer: Routine,Calls,Time,% = IterSCF        1    4467.339  99.72
elaps: Routine,Calls,Wall,% = IterSCF        1     559.173  99.72
siesta:    2   -14865.4127    -8488.7200    -8488.7455 20.6554 -3.9046
siesta:    3    -9292.7471    -9480.3775    -9480.4262  3.8171 -7.0779
siesta:    4    -9269.2926    -9359.6656    -9359.7130  1.9643 -6.0172
siesta:    5    -9222.6639    -9272.0938    -9272.1463  1.1330 -5.4851
siesta:    6    -9201.2346    -9219.2442    -9219.2750  1.0834 -5.3532
siesta:    7    -9194.5835    -9193.8285    -9193.8823  0.9837 -5.2481
siesta:    8    -9190.4697    -9176.8466    -9176.8864  0.7582 -5.2657
siesta:    9    -9189.7376    -9174.9523    -9175.0000  0.7268 -5.2946
siesta:   10    -9188.4432    -9166.3615    -9166.4067  0.4879 -5.2640
siesta:   11    -9187.7205    -9162.1541    -9162.2118  0.5003 -5.2477
siesta:   12    -9188.4134    -9154.8632    -9154.9363  0.3849 -5.2131
siesta:   13    -9187.6496    -9154.9053    -9154.9653  0.3155 -5.2426
siesta:   14    -9187.2065    -9158.6011    -9158.6496  0.2369 -5.2640
siesta:   15    -9186.5888    -9166.5656    -9166.6206  0.1565 -5.2633
siesta:   16    -9186.4494    -9172.3017    -9172.3680  0.1670 -5.2850
siesta:   17    -9186.4170    -9175.5839    -9175.6455  0.2390 -5.2622
siesta:   18    -9186.3621    -9177.0960    -9177.1640  0.1100 -5.2752
siesta:   19    -9186.3509    -9178.0448    -9178.1145  0.0414 -5.2870
siesta:   20    -9186.3379    -9179.8597    -9179.9261  0.0669 -5.2859
siesta:   21    -9186.3440    -9182.5946    -9182.6627  0.1141 -5.3063
siesta:   22    -9186.3339    -9184.4370    -9184.4973  0.0542 -5.3033
siesta:   23    -9186.3314    -9184.9663    -9185.0308  0.0316 -5.3007
siesta:   24    -9186.3288    -9185.7465    -9185.8120  0.0330 -5.2953
siesta:   25    -9186.3269    -9186.1061    -9186.1719  0.0062 -5.2897
siesta:   26    -9186.3268    -9186.1300    -9186.1971  0.0032 -5.2892
siesta:   27    -9186.3268    -9186.1441    -9186.2110  0.0021 -5.2888
siesta:   28    -9186.3268    -9186.2852    -9186.3521  0.0016 -5.2888
siesta:   29    -9186.3268    -9186.2952    -9186.3620  0.0006 -5.2890
siesta:   30    -9186.3268    -9186.3222    -9186.3890  0.0015 -5.2889
siesta:   31    -9186.3268    -9186.3131    -9186.3799  0.0002 -5.2893
siesta:   32    -9186.3268    -9186.3377    -9186.4046  0.0002 -5.2894
siesta:   33    -9186.3268    -9186.3392    -9186.4060  0.0002 -5.2894
siesta:   34    -9186.3268    -9186.3314    -9186.3982  0.0001 -5.2894
siesta:   35    -9186.3268    -9186.3262    -9186.3931  0.0001 -5.2895
siesta:   36    -9186.3268    -9186.3286    -9186.3954  0.0001 -5.2894
siesta:   37    -9186.3268    -9186.3288    -9186.3956  0.0001 -5.2894
siesta:   38    -9186.3268    -9186.3267    -9186.3935  0.0000 -5.2894

siesta: E_KS(eV) =            -9186.3273

siesta: E_KS - E_eggbox =     -9186.3273

siesta: Atomic forces (eV/Ang):
----------------------------------------
   Tot   -0.081162   -0.161571    0.000000
----------------------------------------
   Max  562.746875
   Res  148.355523    sqrt( Sum f_i^2 / 3N )
----------------------------------------
   Max  562.746875    constrained

Stress-tensor-Voigt (kbar):     -777.54    -2718.44       -0.66       -3.73        0.00        0.00
(Free)E + p*V (eV/cell)    -7809.1280
Target enthalpy (eV/cell)    -9186.3941

siesta: Stress tensor (static) (eV/Ang**3):
        -0.485300   -0.002325    0.000000
        -0.002325   -1.696696    0.000000
         0.000000    0.000000   -0.000414

siesta: Pressure (static):       1165.54832991  kBar

siesta: Stress tensor (total) (eV/Ang**3):
        -0.485300   -0.002325    0.000000
        -0.002325   -1.696696    0.000000
         0.000000    0.000000   -0.000414

siesta: Pressure (total):       1165.54832991  kBar

siesta: Temp_ion =       0.000 K

* Maximum dynamic memory allocated =   240 MB
Computing bands...

siesta: Program's energy decomposition (eV):
siesta: Ebs     =     -4159.249853
siesta: Eions   =     15713.820136
siesta: Ena     =      4223.597396
siesta: Ekin    =      8141.444448
siesta: Enl     =      -793.657816
siesta: DEna    =      -776.600584
siesta: DUscf   =       103.551808
siesta: DUext   =         0.000000
siesta: Exc     =     -4370.842375
siesta: eta*DQ  =         0.000000
siesta: Emadel  =         0.000000
siesta: Emeta   =         0.000000
siesta: Emolmec =         0.000000
siesta: Ekinion =         0.000000
siesta: Eharris =     -9186.326798
siesta: Etot    =     -9186.327259
siesta: FreeEng =     -9186.394093

siesta: Final energy (eV):
siesta:  Band Struct. =   -4159.249853
siesta:       Kinetic =    8141.444448
siesta:       Hartree =   26405.896794
siesta:    Ext. field =       0.000000
siesta:   Exch.-corr. =   -4370.842375
siesta:  Ion-electron =  -60686.893804
siesta:       Ion-ion =   21324.067679
siesta:       Ekinion =       0.000000
siesta:         Total =   -9186.327259

siesta: Atomic forces (eV/Ang):
siesta:      1   -7.696880 -105.498790    0.000000
siesta:      2    5.121522  383.066676    0.000000
siesta:      3   -1.387608 -102.790890    0.000000
siesta:      4   19.010970  402.967866    0.000000
siesta:      5    3.833514   -1.890678    0.000000
siesta:      6    3.237102   -2.941692    0.000000
siesta:      7  -17.939847  398.037051    0.000000
siesta:      8    0.190469   -4.157043    0.000000
siesta:      9   -1.222913    0.156629    0.000000
siesta:     10   -0.443836   -0.552338    0.000000
siesta:     11    0.500419   -4.432795    0.000000
siesta:     12    0.052716    0.211633    0.000000
siesta:     13    0.000334    0.678493    0.000000
siesta:     14   -2.450205   -2.700512    0.000000
siesta:     15   -2.687492    2.762987    0.000000
siesta:     16   -0.574014    4.661914    0.000000
siesta:     17    0.510781    4.247284    0.000000
siesta:     18    1.026370   -1.346018    0.000000
siesta:     19    5.240651    3.041069    0.000000
siesta:     20   -9.042826   -0.575407    0.000000
siesta:     21    0.987205    5.799725    0.000000
siesta:     22    1.629134  552.613572    0.000000
siesta:     23    0.366543 -126.654288    0.000000
siesta:     24    1.081264  123.497089    0.000000
siesta:     25  -17.353088 -400.552011    0.000000
siesta:     26    2.335082  125.089838    0.000000
siesta:     27   16.076734 -407.244507    0.000000
siesta:     28   24.600111    5.025175    0.000000
siesta:     29   37.216266 -549.445784    0.000000
siesta:     30    2.554886    1.113235    0.000000
siesta:     31   -2.840094    2.171434    0.000000
siesta:     32    6.444696    4.161793    0.000000
siesta:     33   -1.373340    0.263024    0.000000
siesta:     34  -23.058683    7.038187    0.000000
siesta:     35  -35.999466 -550.866315    0.000000
siesta:     36   11.902973  545.363053    0.000000
siesta:     37   23.140032  544.825567    0.000000
siesta:     38   24.601291    0.038704    0.000000
siesta:     39   -1.959486   -2.350218    0.000000
siesta:     40    2.342991   -0.303735    0.000000
siesta:     41   -1.145546   -0.861034    0.000000
siesta:     42    2.206891   -1.373858    0.000000
siesta:     43    0.896927    4.947866    0.000000
siesta:     44   -0.909286   -5.654886    0.000000
siesta:     45  -11.870442  548.865271    0.000000
siesta:     46    7.294746 -115.766880    0.000000
siesta:     47   22.536503   -4.825669    0.000000
siesta:     48   -1.848741   -2.043913    0.000000
siesta:     49    2.476710   -1.414057    0.000000
siesta:     50  -29.976689  549.629337    0.000000
siesta:     51  -25.136710    0.286746    0.000000
siesta:     52  -22.356664   -4.986132    0.000000
siesta:     53   -0.013558  558.740351    0.000000
siesta:     54    2.273236   -2.011976    0.000000
siesta:     55   -1.896468   -1.029460    0.000000
siesta:     56    1.414868   -1.584140    0.000000
siesta:     57    1.556811    0.110633    0.000000
siesta:     58   -6.789169   -3.744924    0.000000
siesta:     59    0.379198    5.808308    0.000000
siesta:     60    0.689418   -5.509598    0.000000
siesta:     61   -8.300828    3.480554    0.000000
siesta:     62    0.257134   -2.067387    0.000000
siesta:     63   -1.794826    2.246450    0.000000
siesta:     64   -0.505235 -562.746875    0.000000
siesta:     65   22.137579    5.950180    0.000000
siesta:     66   26.507972 -562.268287    0.000000
siesta:     67  -19.993154    5.746819    0.000000
siesta:     68  -27.512656 -558.715695    0.000000
siesta:     69    2.501715  125.603496    0.000000
siesta:     70   -1.701910 -402.311585    0.000000
siesta:     71    0.518851  128.109275    0.000000
siesta:     72    0.047886 -553.299478    0.000000
siesta: ----------------------------------------
siesta:    Tot   -0.081162   -0.161571    0.000000

siesta: Stress tensor (static) (eV/Ang**3):
siesta:    -0.485300   -0.002325    0.000000
siesta:    -0.002325   -1.696696    0.000000
siesta:     0.000000    0.000000   -0.000414

siesta: Cell volume =       1893.226884 Ang**3

siesta: Pressure (static):
siesta:                Solid            Molecule  Units
siesta:           0.00792308          0.11415957  Ry/Bohr**3
siesta:           0.72747018         10.48174321  eV/Ang**3
siesta:        1165.54832991      16793.78557243  kBar
(Free)E+ p_basis*V_orbitals  =       -9149.021454
(Free)Eharris+ p_basis*V_orbitals  =       -9149.021601

siesta: Electric dipole (a.u.)  =    0.000000    0.000000    0.000000
siesta: Electric dipole (Debye) =    0.000000    0.000000    0.000000

* Maximum dynamic memory allocated : Node    0 =   240 MB
* Maximum dynamic memory allocated : Node    1 =    83 MB
* Maximum dynamic memory allocated : Node    2 =    86 MB
* Maximum dynamic memory allocated : Node    3 =   228 MB
* Maximum dynamic memory allocated : Node    4 =   230 MB
* Maximum dynamic memory allocated : Node    5 =    83 MB
* Maximum dynamic memory allocated : Node    6 =    85 MB
* Maximum dynamic memory allocated : Node    7 =   209 MB

* Maximum memory occured during matrixMtoO                    

timer: CPU execution times:
timer:  Routine       Calls   Time/call    Tot.time        %
timer:  siesta            1  167139.979  167139.979   100.00
timer:  Setup             1       3.812       3.812     0.00
timer:  bands             3     269.347     808.040     0.48
timer:  writewave         1       0.041       0.041     0.00
timer:  KSV_init          1       0.008       0.008     0.00
timer:  IterMD            1  166322.447  166322.447    99.51
timer:  hsparse           1       0.391       0.391     0.00
timer:  overlap           1       7.797       7.797     0.00
timer:  IterSCF          38    4370.819  166091.124    99.37
timer:  kinefsm           2       4.074       8.148     0.00
timer:  nlefsm            2      21.243      42.487     0.03
timer:  DHSCF            39     126.901    4949.128     2.96
timer:  DHSCF1            1       0.994       0.994     0.00
timer:  DHSCF2            1      44.877      44.877     0.03
timer:  REORD           314       0.010       3.115     0.00
timer:  POISON           40       2.244      89.742     0.05
timer:  DHSCF3           39     124.538    4856.996     2.91
timer:  rhoofd           39      26.716    1041.929     0.62
timer:  cellXC           39       3.501     136.543     0.08
timer:  vmat             39      59.010    2301.396     1.38
timer:  MolMec            2       0.000       0.000     0.00
timer:  diagon           38    4242.162  161202.147    96.45
timer:  c-eigval       8899       6.682   59459.864    35.57
timer:  c-buildHS      8899       0.121    1079.854     0.65
timer:  cdiag         17677       6.916  122245.720    73.14
timer:  cdiag1        17677       0.426    7524.380     4.50
timer:  cdiag2        17677       1.914   33837.165    20.24
timer:  cdiag3        17677       3.941   69661.062    41.68
timer:  cdiag4        17677       0.225    3978.471     2.38
timer:  c-eigvec       8778       7.334   64380.079    38.52
timer:  c-buildD       8778       4.343   38122.434    22.81
timer:  DHSCF4            1      44.164      44.164     0.03
timer:  dfscf             1      41.445      41.445     0.02
timer:  overfsm           1       0.484       0.484     0.00
timer:  optical           1       4.982       4.982     0.00
  

elaps: ELAPSED times:
elaps:  Routine       Calls   Time/call    Tot.time        %
elaps:  siesta            1   20916.721   20916.721   100.00
elaps:  Setup             1       0.492       0.492     0.00
elaps:  bands             3      33.721     101.163     0.48
elaps:  writewave         1       0.005       0.005     0.00
elaps:  KSV_init          1       0.001       0.001     0.00
elaps:  IterMD            1   20814.407   20814.407    99.51
elaps:  hsparse           1       0.050       0.050     0.00
elaps:  overlap           1       0.975       0.975     0.00
elaps:  IterSCF          38     546.990   20785.603    99.37
elaps:  kinefsm           2       0.506       1.011     0.00
elaps:  nlefsm            2       2.681       5.362     0.03
elaps:  DHSCF            39      16.014     624.531     2.99
elaps:  DHSCF1            1       0.126       0.126     0.00
elaps:  DHSCF2            1       5.609       5.609     0.03
elaps:  REORD           314       0.001       0.424     0.00
elaps:  POISON           40       0.281      11.227     0.05
elaps:  DHSCF3           39      15.580     607.628     2.90
elaps:  rhoofd           39       7.423     289.511     1.38
elaps:  cellXC           39       0.437      17.055     0.08
elaps:  vmat             39       7.382     287.899     1.38
elaps:  MolMec            2       0.000       0.000     0.00
elaps:  diagon           38     530.901   20174.245    96.45
elaps:  c-eigval       8899       0.836    7439.688    35.57
elaps:  c-buildHS      8899       0.017     147.753     0.71
elaps:  cdiag         17677       0.855   15111.203    72.24
elaps:  cdiag1        17677       0.054     946.750     4.53
elaps:  cdiag2        17677       0.240    4233.923    20.24
elaps:  cdiag3        17677       0.494    8727.767    41.73
elaps:  cdiag4        17677       0.028     501.112     2.40
elaps:  c-eigvec       8778       0.901    7909.280    37.81
elaps:  c-buildD       8778       0.560    4919.571    23.52
elaps:  DHSCF4            1      10.885      10.885     0.05
elaps:  dfscf             1      10.335      10.335     0.05
elaps:  overfsm           1       0.061       0.061     0.00
elaps:  optical           1       0.001       0.001     0.00
  
>> End of run:  28-APR-2016   1:36:41
