Siesta Version:                                        siesta-3.2-pl-3
Architecture  : x86_64-unknown-linux-gnu--unknown
Compiler flags: mpiifort -g -O2 -fPIC -xSSE4.1 -fp-model source -shared-intel 
PARALLEL version

* Running on   12 nodes in parallel
>> Start of run:   6-APR-2016  13:35:52

                           ***********************       
                           *  WELCOME TO SIESTA  *       
                           ***********************       

reinit: Reading from standard input
************************** Dump of input data file ****************************
#(1) General system descriptors
SystemName            GRP_doping    # Descriptive name of the system
SystemLabel           GRP_doping    # Short name for naming files
%include STRUCT.fdf
%include KPT.fdf
%include BASIS.fdf
#%include TS.fdf # for transiesta calculation
#(4) DFT, Grid, SCF
XC.functional         GGA           # LDA or GGA (default = LDA)
XC.authors            PBE           # CA (Ceperley-Aldr) = PZ
                                    #    (Perdew-Zunger) - LDA - Default
                                    # PW92 (Perdew-Wang-92) - LDA
                                    # PBE (Perdew-Burke-Ernzerhof) - GGA
MeshCutoff            200.000000    Ry      # Default: 50.0 Ry ~ 0.444 Bohr
                                    #         100.0 Ry ~ 0.314 Bohr
MaxSCFIterations      500           # Default: 50
DM.MixingWeight       0.05          # Default: 0.25
DM.NumberPulay        10            # Default: 0
DM.PulayOnFile        F             # SystemLabel.P1, SystemLabel.P2
DM.Tolerance          1.d-4         # Default: 1.d-4
DM.UseSaveDM          .true.        # because of the bug
SCFMustConverge       .true.
NeglNonOverlapInt     F             # Default: F
Diag.ParallelOverK    .true.
#(5) Eigenvalue problem: order-N or diagonalization
SolutionMethod        Diagon        # or Transiesta
ElectronicTemperature 300.0 K       # Default: 300.0 K
#(6) Molecular dynamics and relaxations
#MD.TypeOfRun          CG            # Type of dynamics:
#MD.VariableCell       F
#MD.NumCGsteps         0           # 0 for single-point / 100 for gopt
#MD.MaxCGDispl         0.2 Bohr      # Default: 0.2 Bohr
#MD.MaxForceTol        0.02 eV/Ang   # Default: 0.04 eV/Ang
#MD.MaxStressTol       1.0 GPa       # Default: 1.0 GPa
************************** End of input data file *****************************

reinit: -----------------------------------------------------------------------
reinit: System Name: GRP_doping
reinit: -----------------------------------------------------------------------
reinit: System Label: GRP_doping                                                  
reinit: -----------------------------------------------------------------------

initatom: Reading input for the pseudopotentials and atomic orbitals ----------
 Species number:            1  Label: B Atomic number:           5
 Species number:            2  Label: C Atomic number:           6
Ground state valence configuration:   2s02  2p01
Reading pseudopotential information in formatted form from B.psf

Valence configuration for pseudopotential generation:
2s( 2.00) rc: 1.74
2p( 1.00) rc: 1.74
3d( 0.00) rc: 1.74
4f( 0.00) rc: 1.74
Ground state valence configuration:   2s02  2p02
Reading pseudopotential information in formatted form from C.psf

Valence configuration for pseudopotential generation:
2s( 2.00) rc: 1.54
2p( 2.00) rc: 1.54
3d( 0.00) rc: 1.54
4f( 0.00) rc: 1.54
For B, standard SIESTA heuristics set lmxkb to 3
 (one more than the basis l, including polarization orbitals).
Use PS.lmax or PS.KBprojectors blocks to override.
For C, standard SIESTA heuristics set lmxkb to 3
 (one more than the basis l, including polarization orbitals).
Use PS.lmax or PS.KBprojectors blocks to override.

<basis_specs>
===============================================================================
B                    Z=   5    Mass=  10.810        Charge= 0.17977+309
Lmxo=1 Lmxkb= 3    BasisType=split      Semic=F
L=0  Nsemic=0  Cnfigmx=2
          n=1  nzeta=2  polorb=0
            splnorm:   0.15000    
               vcte:    0.0000    
               rinn:    0.0000    
                rcs:    0.0000      0.0000    
            lambdas:    1.0000      1.0000    
L=1  Nsemic=0  Cnfigmx=2
          n=1  nzeta=2  polorb=1
            splnorm:   0.15000    
               vcte:    0.0000    
               rinn:    0.0000    
                rcs:    0.0000      0.0000    
            lambdas:    1.0000      1.0000    
-------------------------------------------------------------------------------
L=0  Nkbl=1  erefs: 0.17977+309
L=1  Nkbl=1  erefs: 0.17977+309
L=2  Nkbl=1  erefs: 0.17977+309
L=3  Nkbl=1  erefs: 0.17977+309
===============================================================================
</basis_specs>

atom: Called for B                     (Z =   5)

read_vps: Pseudopotential generation method:
read_vps: ATM3      Troullier-Martins                       
Total valence charge:    3.00000

read_vps: Pseudopotential includes a core correction:
read_vps: Pseudo-core for xc-correction

xc_check: Exchange-correlation functional:
xc_check: GGA Perdew, Burke & Ernzerhof 1996
V l=0 = -2*Zval/r beyond r=  1.7165
V l=1 = -2*Zval/r beyond r=  1.7165
V l=2 = -2*Zval/r beyond r=  1.7165
V l=3 = -2*Zval/r beyond r=  1.6951
All V_l potentials equal beyond r=  1.7165
This should be close to max(r_c) in ps generation
All pots = -2*Zval/r beyond r=  1.7165

VLOCAL1: 99.0% of the norm of Vloc inside     14.733 Ry
VLOCAL1: 99.9% of the norm of Vloc inside     33.577 Ry
atom: Maximum radius for 4*pi*r*r*local-pseudopot. charge    2.04484
atom: Maximum radius for r*vlocal+2*Zval:    1.75994
GHOST: No ghost state for L =  0
GHOST: No ghost state for L =  1
GHOST: No ghost state for L =  2
GHOST: No ghost state for L =  3

KBgen: Kleinman-Bylander projectors: 
   l= 0   rc=  1.897051   el= -0.693730   Ekb=  4.595746   kbcos=  0.286105
   l= 1   rc=  1.920920   el= -0.265236   Ekb= -2.350715   kbcos= -0.315747
   l= 2   rc=  2.044840   el=  0.002055   Ekb= -0.690767   kbcos= -0.013822
   l= 3   rc=  2.149707   el=  0.003188   Ekb= -0.315358   kbcos= -0.002055

KBgen: Total number of  Kleinman-Bylander projectors:   16
atom: -------------------------------------------------------------------------

atom: SANKEY-TYPE ORBITALS:
atom: Selected multiple-zeta basis: split     

SPLIT: Orbitals with angular momentum L= 0

SPLIT: Basis orbitals for state 2s

SPLIT: PAO cut-off radius determined from an
SPLIT: energy shift=  0.007350 Ry

   izeta = 1
                 lambda =    1.000000
                     rc =    5.422032
                 energy =   -0.686029
                kinetic =    0.576707
    potential(screened) =   -1.262736
       potential(ionic) =   -3.271094

   izeta = 2
                 rmatch =    4.222573
              splitnorm =    0.150000
                 energy =   -0.602132
                kinetic =    0.858975
    potential(screened) =   -1.461107
       potential(ionic) =   -3.582536

SPLIT: Orbitals with angular momentum L= 1

SPLIT: Basis orbitals for state 2p

SPLIT: PAO cut-off radius determined from an
SPLIT: energy shift=  0.007350 Ry

   izeta = 1
                 lambda =    1.000000
                     rc =    6.790259
                 energy =   -0.258578
                kinetic =    1.481412
    potential(screened) =   -1.739989
       potential(ionic) =   -3.657461

   izeta = 2
                 rmatch =    4.608740
              splitnorm =    0.150000
                 energy =   -0.173757
                kinetic =    2.186690
    potential(screened) =   -2.360447
       potential(ionic) =   -4.464260

POLgen: Perturbative polarization orbital with L=  2

POLgen: Polarization orbital for state 2p

   izeta = 1
                     rc =    6.790259
                 energy =    0.684082
                kinetic =    1.471481
    potential(screened) =   -0.787399
       potential(ionic) =   -2.406985
atom: Total number of Sankey-type orbitals: 13

atm_pop: Valence configuration (for local Pseudopot. screening):
 2s( 2.00)                                                            
 2p( 1.00)                                                            
Vna: chval, zval:    3.00000   3.00000

Vna:  Cut-off radius for the neutral-atom potential:   6.790259
comcore: Pseudo-core radius Rcore=  2.122997

atom: _________________________________________________________________________

<basis_specs>
===============================================================================
C                    Z=   6    Mass=  12.010        Charge= 0.17977+309
Lmxo=1 Lmxkb= 3    BasisType=split      Semic=F
L=0  Nsemic=0  Cnfigmx=2
          n=1  nzeta=2  polorb=0
            splnorm:   0.15000    
               vcte:    0.0000    
               rinn:    0.0000    
                rcs:    0.0000      0.0000    
            lambdas:    1.0000      1.0000    
L=1  Nsemic=0  Cnfigmx=2
          n=1  nzeta=2  polorb=1
            splnorm:   0.15000    
               vcte:    0.0000    
               rinn:    0.0000    
                rcs:    0.0000      0.0000    
            lambdas:    1.0000      1.0000    
-------------------------------------------------------------------------------
L=0  Nkbl=1  erefs: 0.17977+309
L=1  Nkbl=1  erefs: 0.17977+309
L=2  Nkbl=1  erefs: 0.17977+309
L=3  Nkbl=1  erefs: 0.17977+309
===============================================================================
</basis_specs>

atom: Called for C                     (Z =   6)

read_vps: Pseudopotential generation method:
read_vps: ATM3      Troullier-Martins                       
Total valence charge:    4.00000

read_vps: Pseudopotential includes a core correction:
read_vps: Pseudo-core for xc-correction

xc_check: Exchange-correlation functional:
xc_check: GGA Perdew, Burke & Ernzerhof 1996
V l=0 = -2*Zval/r beyond r=  1.5227
V l=1 = -2*Zval/r beyond r=  1.5227
V l=2 = -2*Zval/r beyond r=  1.5227
V l=3 = -2*Zval/r beyond r=  1.5038
All V_l potentials equal beyond r=  1.5227
This should be close to max(r_c) in ps generation
All pots = -2*Zval/r beyond r=  1.5227

VLOCAL1: 99.0% of the norm of Vloc inside     18.722 Ry
VLOCAL1: 99.9% of the norm of Vloc inside     42.668 Ry
atom: Maximum radius for 4*pi*r*r*local-pseudopot. charge    1.83678
atom: Maximum radius for r*vlocal+2*Zval:    1.58088
GHOST: No ghost state for L =  0
GHOST: No ghost state for L =  1
GHOST: No ghost state for L =  2
GHOST: No ghost state for L =  3

KBgen: Kleinman-Bylander projectors: 
   l= 0   rc=  1.704034   el= -1.009801   Ekb=  5.335044   kbcos=  0.316824
   l= 1   rc=  1.704034   el= -0.388707   Ekb= -3.785862   kbcos= -0.366464
   l= 2   rc=  1.791422   el=  0.001971   Ekb= -0.970471   kbcos= -0.009212
   l= 3   rc=  1.859892   el=  0.003065   Ekb= -0.399525   kbcos= -0.001223

KBgen: Total number of  Kleinman-Bylander projectors:   16
atom: -------------------------------------------------------------------------

atom: SANKEY-TYPE ORBITALS:
atom: Selected multiple-zeta basis: split     

SPLIT: Orbitals with angular momentum L= 0

SPLIT: Basis orbitals for state 2s

SPLIT: PAO cut-off radius determined from an
SPLIT: energy shift=  0.007350 Ry

   izeta = 1
                 lambda =    1.000000
                     rc =    4.632753
                 energy =   -1.002270
                kinetic =    0.855760
    potential(screened) =   -1.858031
       potential(ionic) =   -5.417575

   izeta = 2
                 rmatch =    3.431921
              splitnorm =    0.150000
                 energy =   -0.867111
                kinetic =    1.300804
    potential(screened) =   -2.167915
       potential(ionic) =   -5.962684

SPLIT: Orbitals with angular momentum L= 1

SPLIT: Basis orbitals for state 2p

SPLIT: PAO cut-off radius determined from an
SPLIT: energy shift=  0.007350 Ry

   izeta = 1
                 lambda =    1.000000
                     rc =    5.658549
                 energy =   -0.381140
                kinetic =    2.399701
    potential(screened) =   -2.780841
       potential(ionic) =   -6.206085

   izeta = 2
                 rmatch =    3.653288
              splitnorm =    0.150000
                 energy =   -0.249149
                kinetic =    3.542762
    potential(screened) =   -3.791911
       potential(ionic) =   -7.581078

POLgen: Perturbative polarization orbital with L=  2

POLgen: Polarization orbital for state 2p

   izeta = 1
                     rc =    5.658549
                 energy =    1.109913
                kinetic =    2.304789
    potential(screened) =   -1.194876
       potential(ionic) =   -4.013592
atom: Total number of Sankey-type orbitals: 13

atm_pop: Valence configuration (for local Pseudopot. screening):
 2s( 2.00)                                                            
 2p( 2.00)                                                            
Vna: chval, zval:    4.00000   4.00000

Vna:  Cut-off radius for the neutral-atom potential:   5.658549
comcore: Pseudo-core radius Rcore=  1.791422

atom: _________________________________________________________________________

prinput: Basis input ----------------------------------------------------------

PAO.BasisType split     

%block ChemicalSpeciesLabel
    1    5 B                       # Species index, atomic number, species label
    2    6 C                       # Species index, atomic number, species label
%endblock ChemicalSpeciesLabel

%block PAO.Basis                 # Define Basis set
B                     2                    # Species label, number of l-shells
 n=2   0   2                         # n, l, Nzeta 
   5.422      4.223   
   1.000      1.000   
 n=2   1   2 P   1                   # n, l, Nzeta, Polarization, NzetaPol
   6.790      4.609   
   1.000      1.000   
C                     2                    # Species label, number of l-shells
 n=2   0   2                         # n, l, Nzeta 
   4.633      3.432   
   1.000      1.000   
 n=2   1   2 P   1                   # n, l, Nzeta, Polarization, NzetaPol
   5.659      3.653   
   1.000      1.000   
%endblock PAO.Basis

prinput: ----------------------------------------------------------------------

coor:   Atomic-coordinates input format  =     Cartesian coordinates
coor:                                          (in Angstroms)

siesta: Atomic coordinates (Bohr) and species
siesta:      2.23549   1.32088   0.00000  1        1
siesta:      9.21971   2.66443   0.00000  1        2
siesta:      4.56357   2.66443   0.00000  2        3
siesta:     32.50244  21.48363   0.00000  2        4
siesta:     34.83052  22.82718   0.00000  2        5
siesta:     34.83048  17.45108   0.00000  2        6
siesta:     37.15856  18.79463   0.00000  2        7
siesta:     32.50239  13.41853   0.00000  2        8
siesta:     34.83046  14.76208   0.00000  2        9
siesta:     30.17428   9.38598   0.00000  2       10
siesta:     32.50237  10.72953   0.00000  2       11
siesta:     27.84618   5.35343   0.00000  2       12
siesta:     30.17426   6.69698   0.00000  2       13
siesta:     27.84630  21.48363   0.00000  2       14
siesta:     30.17438  22.82718   0.00000  2       15
siesta:      6.89163   1.32088   0.00000  2       16
siesta:     11.54777   1.32088   0.00000  2       17
siesta:     13.87585   2.66443   0.00000  2       18
siesta:     16.20391   1.32088   0.00000  2       19
siesta:     18.53199   2.66443   0.00000  2       20
siesta:     20.86194   1.32088   0.00000  2       21
siesta:     23.19002   2.66443   0.00000  2       22
siesta:     25.51808   1.32088   0.00000  2       23
siesta:     27.84616   2.66443   0.00000  2       24
siesta:      4.56359   5.35343   0.00000  2       25
siesta:      6.89167   6.69698   0.00000  2       26
siesta:      9.21973   5.35343   0.00000  2       27
siesta:     11.54781   6.69698   0.00000  2       28
siesta:     13.87587   5.35343   0.00000  2       29
siesta:     16.20395   6.69698   0.00000  2       30
siesta:     18.53390   5.35343   0.00000  2       31
siesta:     20.86198   6.69698   0.00000  2       32
siesta:     23.19004   5.35343   0.00000  2       33
siesta:     25.51812   6.69698   0.00000  2       34
siesta:      6.89169   9.38598   0.00000  2       35
siesta:      9.21977  10.72953   0.00000  2       36
siesta:     11.54783   9.38598   0.00000  2       37
siesta:     13.87591  10.72953   0.00000  2       38
siesta:     16.20397   9.38598   0.00000  2       39
siesta:     18.53205  10.72953   0.00000  2       40
siesta:     20.86200   9.38598   0.00000  2       41
siesta:     23.19008  10.72953   0.00000  2       42
siesta:      9.21979  13.41853   0.00000  2       43
siesta:     11.54787  14.76208   0.00000  2       44
siesta:     13.87593  13.41853   0.00000  2       45
siesta:     16.20401  14.76208   0.00000  2       46
siesta:     18.53396  13.41853   0.00000  2       47
siesta:     20.86204  14.76208   0.00000  2       48
siesta:     11.54789  17.45108   0.00000  2       49
siesta:     13.87597  18.79463   0.00000  2       50
siesta:     16.20403  17.45108   0.00000  2       51
siesta:     18.53211  18.79463   0.00000  2       52
siesta:     13.87599  21.48363   0.00000  2       53
siesta:     16.20407  22.82718   0.00000  2       54
siesta:     18.53402  21.48363   0.00000  2       55
siesta:     20.86210  22.82718   0.00000  2       56
siesta:     25.51814   9.38598   0.00000  2       57
siesta:     27.84622  10.72953   0.00000  2       58
siesta:     23.19010  13.41853   0.00000  2       59
siesta:     25.51818  14.76208   0.00000  2       60
siesta:     20.86206  17.45108   0.00000  2       61
siesta:     23.19014  18.79463   0.00000  2       62
siesta:     27.84624  13.41853   0.00000  2       63
siesta:     30.17432  14.76208   0.00000  2       64
siesta:     25.51820  17.45108   0.00000  2       65
siesta:     27.84628  18.79463   0.00000  2       66
siesta:     23.19016  21.48363   0.00000  2       67
siesta:     25.51824  22.82718   0.00000  2       68
siesta:     30.17434  17.45108   0.00000  2       69
siesta:     32.50243  18.79463   0.00000  2       70
siesta:     37.16048  21.48363   0.00000  2       71
siesta:     39.48855  22.82718   0.00000  2       72

siesta: System type = slab      

initatomlists: Number of atoms, orbitals, and projectors:     72   936  1152

siesta: ******************** Simulation parameters ****************************
siesta:
siesta: The following are some of the parameters of the simulation.
siesta: A complete list of the parameters used, including default values,
siesta: can be found in file out.fdf
siesta:
redata: Non-Collinear-spin run           =     F
redata: SpinPolarized (Up/Down) run      =     F
redata: Number of spin components        =     1
redata: Long output                      =     F
redata: Number of Atomic Species         =        2
redata: Charge density info will appear in .RHO file
redata: Write Mulliken Pop.              =     NO
redata: Mesh Cutoff                      =   200.0000  Ry
redata: Net charge of the system         =     0.0000 |e|
redata: Max. number of SCF Iter          =      500
redata: SCF convergence failure will abort job
redata: Performing Pulay mixing using    =    10 iterations
redata: Mix DM in first SCF step ?       =     F
redata: Write Pulay info on disk?        =     F
redata: Discard 1st Pulay DM after  kick =     F
redata: New DM Mixing Weight             =     0.0500
redata: New DM Occupancy tolerance       = 0.000000000001
redata: No kicks to SCF
redata: DM Mixing Weight for Kicks       =     0.5000
redata: DM Tolerance for SCF             =     0.000100
redata: Require Energy convergence for SCF =     F
redata: DM Energy tolerance for SCF      =     0.000100 eV
redata: Require Harris convergence for SCF =     F
redata: DM Harris energy tolerance for SCF =     0.000100 eV
redata: Using Saved Data (generic)   =     F
redata: Use continuation files for DM    =     T
redata: Neglect nonoverlap interactions  =     F
redata: Method of Calculation            =     Diagonalization
redata: Divide and Conquer               =     T
redata: Electronic Temperature           =     0.0019  Ry
redata: Fix the spin of the system       =     F
redata: Dynamics option                  =     Verlet MD run
redata: Initial MD time step             =        1
redata:   Final MD time step             =        1
redata: Length of MD time step           =     1.0000  fs
redata: Initial Temperature of MD run    =     0.0000  K
redata: Perform a MD quench              =     F
redata: ***********************************************************************
Total number of electrons:   286.000000
Total ionic charge:   286.000000

* ProcessorY, Blocksize:    3  24

k-point displ. along   1 input, could be:     0.50    0.00
k-point displ. along   2 input, could be:     0.50    0.00
 Kpoints in:          231 . Kpoints trimmed:          231

siesta: k-grid: Number of k-points =   231
siesta: k-grid: Cutoff (effective) =     5.000 Ang
siesta: k-grid: Supercell and displacements
siesta: k-grid:   21   0   0      0.500
siesta: k-grid:    0  21   0      0.500
siesta: k-grid:    0   0   1      0.000
Naive supercell factors:     2    2    2

superc: Internal auxiliary supercell:     2 x     2 x     2  =       8
superc: Number of atoms, orbitals, and projectors:    576   7488   9216

* Maximum dynamic memory allocated =     4 MB

siesta:                 ==============================
                            Begin MD step =      1
                        ==============================

superc: Internal auxiliary supercell:     2 x     2 x     2  =       8
superc: Number of atoms, orbitals, and projectors:    576   7488   9216

outcell: Unit cell vectors (Ang):
       14.785000    0.000000    0.000000
        7.392500   12.804185    0.000000
        0.000000    0.000000   10.000000

outcell: Cell vector modules (Ang)   :   14.785000   14.785000   10.000000
outcell: Cell angles (23,13,12) (deg):     90.0000     90.0000     60.0000
outcell: Cell volume (Ang**3)        :   1893.0988
New_DM. Step:     1
Initializing Density Matrix...

iodm: Reading Density Matrix from files

InitMesh: MESH =   120 x   120 x    90 =     1296000
InitMesh: Mesh cutoff (required, used) =   200.000   223.865 Ry

* Maximum dynamic memory allocated =   145 MB

stepf: Fermi-Dirac step function

siesta: Program's energy decomposition (eV):
siesta: Ebs     =     -3883.322119
siesta: Eions   =     18146.897649
siesta: Ena     =      3930.161044
siesta: Ekin    =      7736.620981
siesta: Enl     =      -770.284320
siesta: DEna    =      -298.110833
siesta: DUscf   =        27.566460
siesta: DUext   =         0.000000
siesta: Exc     =     -4046.523771
siesta: eta*DQ  =         0.000000
siesta: Emadel  =         0.000000
siesta: Emeta   =         0.000000
siesta: Emolmec =         0.000000
siesta: Ekinion =         0.000000
siesta: Eharris =    -11567.468038
siesta: Etot    =    -11567.468087
siesta: FreeEng =    -11567.468087

siesta: iscf   Eharris(eV)      E_KS(eV)   FreeEng(eV)   dDmax  Ef(eV)
siesta:    1   -11567.4680   -11567.4681   -11567.4681  0.0000 -5.2936
timer: Routine,Calls,Time,% = IterSCF        1    1182.185  98.94
elaps: Routine,Calls,Wall,% = IterSCF        1      98.757  98.94

siesta: E_KS(eV) =           -11567.4680

siesta: E_KS - E_eggbox =    -11567.4680

siesta: Atomic forces (eV/Ang):
----------------------------------------
   Tot    0.195365   -0.284473    0.000000
----------------------------------------
   Max    3.484314
   Res    0.583999    sqrt( Sum f_i^2 / 3N )
----------------------------------------
   Max    3.484314    constrained

Stress-tensor-Voigt (kbar):      -54.11      -53.73       -0.05       -0.62        0.00        0.00
(Free)E + p*V (eV/cell)   -11524.9851
Target enthalpy (eV/cell)   -11567.4805

siesta: Stress tensor (static) (eV/Ang**3):
        -0.033772   -0.000388    0.000000
        -0.000388   -0.033538    0.000000
         0.000000    0.000000   -0.000032

siesta: Pressure (static):         35.96530510  kBar

siesta: Stress tensor (total) (eV/Ang**3):
        -0.033772   -0.000388    0.000000
        -0.000388   -0.033538    0.000000
         0.000000    0.000000   -0.000032

siesta: Pressure (total):         35.96530510  kBar

siesta: Temp_ion =       0.000 K

* Maximum dynamic memory allocated =   240 MB

siesta: Program's energy decomposition (eV):
siesta: Ebs     =     -3883.322119
siesta: Eions   =     18146.897649
siesta: Ena     =      3930.161044
siesta: Ekin    =      7736.624013
siesta: Enl     =      -770.285057
siesta: DEna    =      -298.111986
siesta: DUscf   =        27.565845
siesta: DUext   =         0.000000
siesta: Exc     =     -4046.524247
siesta: eta*DQ  =         0.000000
siesta: Emadel  =         0.000000
siesta: Emeta   =         0.000000
siesta: Emolmec =         0.000000
siesta: Ekinion =         0.000000
siesta: Eharris =    -11567.468038
siesta: Etot    =    -11567.468037
siesta: FreeEng =    -11567.480538

siesta: Final energy (eV):
siesta:  Band Struct. =   -3883.322119
siesta:       Kinetic =    7736.624013
siesta:       Hartree =   22794.187147
siesta:    Ext. field =       0.000000
siesta:   Exch.-corr. =   -4046.524247
siesta:  Ion-electron =  -52706.164620
siesta:       Ion-ion =   14654.409671
siesta:       Ekinion =       0.000000
siesta:         Total =  -11567.468037

siesta: Atomic forces (eV/Ang):
siesta:      1   -0.055639    0.077637    0.000000
siesta:      2    0.050794   -0.089185    0.000000
siesta:      3    2.892815    1.197496    0.000000
siesta:      4    0.066216    0.020688    0.000000
siesta:      5   -0.077421    0.036968    0.000000
siesta:      6    0.074985    0.015056    0.000000
siesta:      7   -0.020596   -0.123225    0.000000
siesta:      8   -0.024677   -0.093046    0.000000
siesta:      9    0.053887   -0.003498    0.000000
siesta:     10   -0.027556   -0.165273    0.000000
siesta:     11    0.074218    0.152242    0.000000
siesta:     12   -0.656600   -0.353546    0.000000
siesta:     13    0.321375    0.178920    0.000000
siesta:     14   -0.118763   -0.117682    0.000000
siesta:     15   -0.031398    0.067012    0.000000
siesta:     16   -2.888720   -1.234349    0.000000
siesta:     17    3.082321   -1.744862    0.000000
siesta:     18    0.005508   -0.620437    0.000000
siesta:     19    0.121859    0.100880    0.000000
siesta:     20    0.078075   -0.062887    0.000000
siesta:     21   -0.068997    0.029070    0.000000
siesta:     22   -0.112190   -0.135053    0.000000
siesta:     23    0.008805    0.583752    0.000000
siesta:     24   -3.057270    1.702232    0.000000
siesta:     25    0.228552   -0.135807    0.000000
siesta:     26    0.463375    0.508642    0.000000
siesta:     27    0.030540    3.484314    0.000000
siesta:     28   -0.568185    0.284744    0.000000
siesta:     29    0.337310    0.162988    0.000000
siesta:     30   -0.243680   -0.174489    0.000000
siesta:     31    0.078493   -0.020648    0.000000
siesta:     32   -0.060352   -0.024289    0.000000
siesta:     33    0.028528   -0.050022    0.000000
siesta:     34    0.123616    0.113057    0.000000
siesta:     35   -0.110519    0.004366    0.000000
siesta:     36   -0.013117   -0.025574    0.000000
siesta:     37    0.181913    0.025412    0.000000
siesta:     38   -0.012807    0.062907    0.000000
siesta:     39    0.052284    0.111360    0.000000
siesta:     40   -0.028741   -0.030172    0.000000
siesta:     41   -0.005489   -0.007266    0.000000
siesta:     42    0.029277   -0.001088    0.000000
siesta:     43   -0.006890    0.020876    0.000000
siesta:     44   -0.050464    0.019434    0.000000
siesta:     45    0.059628   -0.026703    0.000000
siesta:     46    0.028744   -0.032206    0.000000
siesta:     47   -0.073648   -0.002888    0.000000
siesta:     48    0.029924    0.083218    0.000000
siesta:     49    0.006265   -0.067975    0.000000
siesta:     50   -0.177811   -0.034181    0.000000
siesta:     51    0.017303    0.013026    0.000000
siesta:     52    0.141011   -0.014449    0.000000
siesta:     53    0.592458   -0.293250    0.000000
siesta:     54    0.002834   -3.464926    0.000000
siesta:     55   -0.498088   -0.504142    0.000000
siesta:     56   -0.245012    0.152026    0.000000
siesta:     57   -0.091060    0.031910    0.000000
siesta:     58   -0.000253    0.060458    0.000000
siesta:     59    0.008856   -0.014373    0.000000
siesta:     60   -0.018841    0.049022    0.000000
siesta:     61   -0.083848   -0.157758    0.000000
siesta:     62    0.028665    0.155035    0.000000
siesta:     63    0.023763   -0.058017    0.000000
siesta:     64   -0.003093    0.006159    0.000000
siesta:     65    0.005313   -0.069643    0.000000
siesta:     66    0.095323   -0.041709    0.000000
siesta:     67   -0.303121   -0.186655    0.000000
siesta:     68    0.663677    0.364932    0.000000
siesta:     69   -0.028315   -0.006795    0.000000
siesta:     70   -0.018657    0.006447    0.000000
siesta:     71    0.239299    0.167478    0.000000
siesta:     72   -0.350625   -0.146171    0.000000
siesta: ----------------------------------------
siesta:    Tot    0.195365   -0.284473    0.000000

siesta: Stress tensor (static) (eV/Ang**3):
siesta:    -0.033772   -0.000388    0.000000
siesta:    -0.000388   -0.033538    0.000000
siesta:     0.000000    0.000000   -0.000032

siesta: Cell volume =       1893.098801 Ang**3

siesta: Pressure (static):
siesta:                Solid            Molecule  Units
siesta:           0.00024448          0.00037700  Ry/Bohr**3
siesta:           0.02244754          0.03461456  eV/Ang**3
siesta:          35.96530510         55.45923697  kBar
(Free)E+ p_basis*V_orbitals  =      -11536.111012
(Free)Eharris+ p_basis*V_orbitals  =      -11536.110962

siesta: Electric dipole (a.u.)  =    0.000000    0.000000    0.000000
siesta: Electric dipole (Debye) =    0.000000    0.000000    0.000000

* Maximum dynamic memory allocated : Node    0 =   240 MB
* Maximum dynamic memory allocated : Node    1 =   149 MB
* Maximum dynamic memory allocated : Node    2 =   151 MB
* Maximum dynamic memory allocated : Node    3 =   228 MB
* Maximum dynamic memory allocated : Node    4 =   232 MB
* Maximum dynamic memory allocated : Node    5 =   144 MB
* Maximum dynamic memory allocated : Node    6 =   145 MB
* Maximum dynamic memory allocated : Node    7 =   225 MB
* Maximum dynamic memory allocated : Node    8 =   233 MB
* Maximum dynamic memory allocated : Node    9 =   144 MB
* Maximum dynamic memory allocated : Node   10 =   146 MB
* Maximum dynamic memory allocated : Node   11 =   227 MB

* Maximum memory occured during cdiag                         

timer: CPU execution times:
timer:  Routine       Calls   Time/call    Tot.time        %
timer:  siesta            1    1320.144    1320.144   100.00
timer:  Setup             1       3.303       3.303     0.25
timer:  bands             1       0.009       0.009     0.00
timer:  writewave         1       0.021       0.021     0.00
timer:  KSV_init          1       0.005       0.005     0.00
timer:  IterMD            1    1310.377    1310.377    99.26
timer:  hsparse           1       0.285       0.285     0.02
timer:  overlap           1       4.822       4.822     0.37
timer:  IterSCF           1    1182.185    1182.185    89.55
timer:  kinefsm           2       2.455       4.909     0.37
timer:  nlefsm            2      19.206      38.411     2.91
timer:  DHSCF             2      89.636     179.273    13.58
timer:  DHSCF1            1       1.193       1.193     0.09
timer:  DHSCF2            1      30.340      30.340     2.30
timer:  REORD            18       0.002       0.037     0.00
timer:  POISON            3       0.479       1.436     0.11
timer:  DHSCF3            2      62.115     124.229     9.41
timer:  rhoofd            2      12.581      25.162     1.91
timer:  cellXC            2       2.421       4.842     0.37
timer:  vmat              2      31.478      62.956     4.77
timer:  MolMec            2       0.000       0.000     0.00
timer:  diagon            1    1047.700    1047.700    79.36
timer:  cdiag            40      17.987     692.412    52.45
timer:  cdiag1           40       0.874      33.648     2.55
timer:  cdiag2           40       3.032     116.655     8.84
timer:  cdiag3           40      13.885     534.549    40.49
timer:  cdiag4           40       0.193       7.440     0.56
timer:  DHSCF4            1      23.467      23.467     1.78
timer:  dfscf             1      21.479      21.479     1.63
timer:  overfsm           1       0.282       0.282     0.02
timer:  optical           1       5.915       5.915     0.45
  

elaps: ELAPSED times:
elaps:  Routine       Calls   Time/call    Tot.time        %
elaps:  siesta            1     110.281     110.281   100.00
elaps:  Setup             1       0.276       0.276     0.25
elaps:  bands             1       0.001       0.001     0.00
elaps:  writewave         1       0.002       0.002     0.00
elaps:  KSV_init          1       0.000       0.000     0.00
elaps:  IterMD            1     109.465     109.465    99.26
elaps:  hsparse           1       0.028       0.028     0.03
elaps:  overlap           1       0.713       0.713     0.65
elaps:  IterSCF           1      98.757      98.757    89.55
elaps:  kinefsm           2       0.364       0.728     0.66
elaps:  nlefsm            2       1.811       3.622     3.28
elaps:  DHSCF             2       8.311      16.623    15.07
elaps:  DHSCF1            1       0.101       0.101     0.09
elaps:  DHSCF2            1       2.533       2.533     2.30
elaps:  REORD            18       0.000       0.005     0.00
elaps:  POISON            3       0.040       0.121     0.11
elaps:  DHSCF3            2       5.188      10.377     9.41
elaps:  rhoofd            2       1.890       3.779     3.43
elaps:  cellXC            2       0.202       0.404     0.37
elaps:  vmat              2       2.630       5.259     4.77
elaps:  MolMec            2       0.000       0.000     0.00
elaps:  diagon            1      87.522      87.522    79.36
elaps:  cdiag            40       1.490      59.582    54.03
elaps:  cdiag1           40       0.070       2.790     2.53
elaps:  cdiag2           40       0.241       9.627     8.73
elaps:  cdiag3           40       1.162      46.467    42.13
elaps:  cdiag4           40       0.017       0.688     0.62
elaps:  DHSCF4            1       3.607       3.607     3.27
elaps:  dfscf             1       3.361       3.361     3.05
elaps:  overfsm           1       0.031       0.031     0.03
elaps:  optical           1       0.000       0.000     0.00
  
>> End of run:   6-APR-2016  13:37:42
