Siesta Version:                                        siesta-3.2-pl-3
Architecture  : x86_64-unknown-linux-gnu--unknown
Compiler flags: mpiifort -g -O2 -fPIC -xSSE4.1 -fp-model source -shared-intel 
PARALLEL version

* Running on   12 nodes in parallel
>> Start of run:   5-MAY-2016   6:02:52

                           ***********************       
                           *  WELCOME TO SIESTA  *       
                           ***********************       

reinit: Reading from standard input
************************** Dump of input data file ****************************
#(1) General system descriptors
SystemName            GRP_doping    # Descriptive name of the system
SystemLabel           GRP_doping    # Short name for naming files
%include STRUCT.fdf
%include KPT.fdf
%include BASIS.fdf
#%include TS.fdf # for transiesta calculation
#(4) DFT, Grid, SCF
XC.functional         GGA           # LDA or GGA (default = LDA)
XC.authors            PBE           # CA (Ceperley-Aldr) = PZ
                                    #    (Perdew-Zunger) - LDA - Default
                                    # PW92 (Perdew-Wang-92) - LDA
                                    # PBE (Perdew-Burke-Ernzerhof) - GGA
MeshCutoff            200.000000    Ry      # Default: 50.0 Ry ~ 0.444 Bohr
                                    #         100.0 Ry ~ 0.314 Bohr
MaxSCFIterations      500           # Default: 50
DM.MixingWeight       0.05          # Default: 0.25
DM.NumberPulay        10            # Default: 0
DM.PulayOnFile        F             # SystemLabel.P1, SystemLabel.P2
DM.Tolerance          1.d-4         # Default: 1.d-4
DM.UseSaveDM          .true.        # because of the bug
SCFMustConverge       .true.
NeglNonOverlapInt     F             # Default: F
#(5) Eigenvalue problem: order-N or diagonalization
SolutionMethod        Diagon        # or Transiesta
ElectronicTemperature 300.0 K       # Default: 300.0 K
#(6) Molecular dynamics and relaxations
#MD.TypeOfRun          CG            # Type of dynamics:
#MD.VariableCell       F
#MD.NumCGsteps         0           # 0 for single-point / 100 for gopt
#MD.MaxCGDispl         0.2 Bohr      # Default: 0.2 Bohr
#MD.MaxForceTol        0.02 eV/Ang   # Default: 0.04 eV/Ang
#MD.MaxStressTol       1.0 GPa       # Default: 1.0 GPa
# Geometry Constraints
#%block GeometryConstraints
#	position from 1 to 44
#%endblock GeometryConstraints
BandLinesScale   pi/a
%block BandLines
 1   0.00000000  0.00000000  0.00000000
50   0.00000000  0.07809418  0.00000000
50   0.04509075  0.07809242  0.00000000
20   0.00000000  0.00000000  0.00000000
%endblock BandLines
************************** End of input data file *****************************

reinit: -----------------------------------------------------------------------
reinit: System Name: GRP_doping
reinit: -----------------------------------------------------------------------
reinit: System Label: GRP_doping                                                  
reinit: -----------------------------------------------------------------------

initatom: Reading input for the pseudopotentials and atomic orbitals ----------
 Species number:            1  Label: B Atomic number:           5
 Species number:            2  Label: C Atomic number:           6
Ground state valence configuration:   2s02  2p01
Reading pseudopotential information in formatted form from B.psf

Valence configuration for pseudopotential generation:
2s( 2.00) rc: 1.74
2p( 1.00) rc: 1.74
3d( 0.00) rc: 1.74
4f( 0.00) rc: 1.74
Ground state valence configuration:   2s02  2p02
Reading pseudopotential information in formatted form from C.psf

Valence configuration for pseudopotential generation:
2s( 2.00) rc: 1.54
2p( 2.00) rc: 1.54
3d( 0.00) rc: 1.54
4f( 0.00) rc: 1.54
For B, standard SIESTA heuristics set lmxkb to 3
 (one more than the basis l, including polarization orbitals).
Use PS.lmax or PS.KBprojectors blocks to override.
For C, standard SIESTA heuristics set lmxkb to 3
 (one more than the basis l, including polarization orbitals).
Use PS.lmax or PS.KBprojectors blocks to override.

<basis_specs>
===============================================================================
B                    Z=   5    Mass=  10.810        Charge= 0.17977+309
Lmxo=1 Lmxkb= 3    BasisType=split      Semic=F
L=0  Nsemic=0  Cnfigmx=2
          n=1  nzeta=2  polorb=0
            splnorm:   0.15000    
               vcte:    0.0000    
               rinn:    0.0000    
                rcs:    0.0000      0.0000    
            lambdas:    1.0000      1.0000    
L=1  Nsemic=0  Cnfigmx=2
          n=1  nzeta=2  polorb=1
            splnorm:   0.15000    
               vcte:    0.0000    
               rinn:    0.0000    
                rcs:    0.0000      0.0000    
            lambdas:    1.0000      1.0000    
-------------------------------------------------------------------------------
L=0  Nkbl=1  erefs: 0.17977+309
L=1  Nkbl=1  erefs: 0.17977+309
L=2  Nkbl=1  erefs: 0.17977+309
L=3  Nkbl=1  erefs: 0.17977+309
===============================================================================
</basis_specs>

atom: Called for B                     (Z =   5)

read_vps: Pseudopotential generation method:
read_vps: ATM3      Troullier-Martins                       
Total valence charge:    3.00000

read_vps: Pseudopotential includes a core correction:
read_vps: Pseudo-core for xc-correction

xc_check: Exchange-correlation functional:
xc_check: GGA Perdew, Burke & Ernzerhof 1996
V l=0 = -2*Zval/r beyond r=  1.7165
V l=1 = -2*Zval/r beyond r=  1.7165
V l=2 = -2*Zval/r beyond r=  1.7165
V l=3 = -2*Zval/r beyond r=  1.6951
All V_l potentials equal beyond r=  1.7165
This should be close to max(r_c) in ps generation
All pots = -2*Zval/r beyond r=  1.7165

VLOCAL1: 99.0% of the norm of Vloc inside     14.733 Ry
VLOCAL1: 99.9% of the norm of Vloc inside     33.577 Ry
atom: Maximum radius for 4*pi*r*r*local-pseudopot. charge    2.04484
atom: Maximum radius for r*vlocal+2*Zval:    1.75994
GHOST: No ghost state for L =  0
GHOST: No ghost state for L =  1
GHOST: No ghost state for L =  2
GHOST: No ghost state for L =  3

KBgen: Kleinman-Bylander projectors: 
   l= 0   rc=  1.897051   el= -0.693730   Ekb=  4.595746   kbcos=  0.286105
   l= 1   rc=  1.920920   el= -0.265236   Ekb= -2.350715   kbcos= -0.315747
   l= 2   rc=  2.044840   el=  0.002055   Ekb= -0.690767   kbcos= -0.013822
   l= 3   rc=  2.149707   el=  0.003188   Ekb= -0.315358   kbcos= -0.002055

KBgen: Total number of  Kleinman-Bylander projectors:   16
atom: -------------------------------------------------------------------------

atom: SANKEY-TYPE ORBITALS:
atom: Selected multiple-zeta basis: split     

SPLIT: Orbitals with angular momentum L= 0

SPLIT: Basis orbitals for state 2s

SPLIT: PAO cut-off radius determined from an
SPLIT: energy shift=  0.007350 Ry

   izeta = 1
                 lambda =    1.000000
                     rc =    5.422032
                 energy =   -0.686029
                kinetic =    0.576707
    potential(screened) =   -1.262736
       potential(ionic) =   -3.271094

   izeta = 2
                 rmatch =    4.222573
              splitnorm =    0.150000
                 energy =   -0.602132
                kinetic =    0.858975
    potential(screened) =   -1.461107
       potential(ionic) =   -3.582536

SPLIT: Orbitals with angular momentum L= 1

SPLIT: Basis orbitals for state 2p

SPLIT: PAO cut-off radius determined from an
SPLIT: energy shift=  0.007350 Ry

   izeta = 1
                 lambda =    1.000000
                     rc =    6.790259
                 energy =   -0.258578
                kinetic =    1.481412
    potential(screened) =   -1.739989
       potential(ionic) =   -3.657461

   izeta = 2
                 rmatch =    4.608740
              splitnorm =    0.150000
                 energy =   -0.173757
                kinetic =    2.186690
    potential(screened) =   -2.360447
       potential(ionic) =   -4.464260

POLgen: Perturbative polarization orbital with L=  2

POLgen: Polarization orbital for state 2p

   izeta = 1
                     rc =    6.790259
                 energy =    0.684082
                kinetic =    1.471481
    potential(screened) =   -0.787399
       potential(ionic) =   -2.406985
atom: Total number of Sankey-type orbitals: 13

atm_pop: Valence configuration (for local Pseudopot. screening):
 2s( 2.00)                                                            
 2p( 1.00)                                                            
Vna: chval, zval:    3.00000   3.00000

Vna:  Cut-off radius for the neutral-atom potential:   6.790259
comcore: Pseudo-core radius Rcore=  2.122997

atom: _________________________________________________________________________

<basis_specs>
===============================================================================
C                    Z=   6    Mass=  12.010        Charge= 0.17977+309
Lmxo=1 Lmxkb= 3    BasisType=split      Semic=F
L=0  Nsemic=0  Cnfigmx=2
          n=1  nzeta=2  polorb=0
            splnorm:   0.15000    
               vcte:    0.0000    
               rinn:    0.0000    
                rcs:    0.0000      0.0000    
            lambdas:    1.0000      1.0000    
L=1  Nsemic=0  Cnfigmx=2
          n=1  nzeta=2  polorb=1
            splnorm:   0.15000    
               vcte:    0.0000    
               rinn:    0.0000    
                rcs:    0.0000      0.0000    
            lambdas:    1.0000      1.0000    
-------------------------------------------------------------------------------
L=0  Nkbl=1  erefs: 0.17977+309
L=1  Nkbl=1  erefs: 0.17977+309
L=2  Nkbl=1  erefs: 0.17977+309
L=3  Nkbl=1  erefs: 0.17977+309
===============================================================================
</basis_specs>

atom: Called for C                     (Z =   6)

read_vps: Pseudopotential generation method:
read_vps: ATM3      Troullier-Martins                       
Total valence charge:    4.00000

read_vps: Pseudopotential includes a core correction:
read_vps: Pseudo-core for xc-correction

xc_check: Exchange-correlation functional:
xc_check: GGA Perdew, Burke & Ernzerhof 1996
V l=0 = -2*Zval/r beyond r=  1.5227
V l=1 = -2*Zval/r beyond r=  1.5227
V l=2 = -2*Zval/r beyond r=  1.5227
V l=3 = -2*Zval/r beyond r=  1.5038
All V_l potentials equal beyond r=  1.5227
This should be close to max(r_c) in ps generation
All pots = -2*Zval/r beyond r=  1.5227

VLOCAL1: 99.0% of the norm of Vloc inside     18.722 Ry
VLOCAL1: 99.9% of the norm of Vloc inside     42.668 Ry
atom: Maximum radius for 4*pi*r*r*local-pseudopot. charge    1.83678
atom: Maximum radius for r*vlocal+2*Zval:    1.58088
GHOST: No ghost state for L =  0
GHOST: No ghost state for L =  1
GHOST: No ghost state for L =  2
GHOST: No ghost state for L =  3

KBgen: Kleinman-Bylander projectors: 
   l= 0   rc=  1.704034   el= -1.009801   Ekb=  5.335044   kbcos=  0.316824
   l= 1   rc=  1.704034   el= -0.388707   Ekb= -3.785862   kbcos= -0.366464
   l= 2   rc=  1.791422   el=  0.001971   Ekb= -0.970471   kbcos= -0.009212
   l= 3   rc=  1.859892   el=  0.003065   Ekb= -0.399525   kbcos= -0.001223

KBgen: Total number of  Kleinman-Bylander projectors:   16
atom: -------------------------------------------------------------------------

atom: SANKEY-TYPE ORBITALS:
atom: Selected multiple-zeta basis: split     

SPLIT: Orbitals with angular momentum L= 0

SPLIT: Basis orbitals for state 2s

SPLIT: PAO cut-off radius determined from an
SPLIT: energy shift=  0.007350 Ry

   izeta = 1
                 lambda =    1.000000
                     rc =    4.632753
                 energy =   -1.002270
                kinetic =    0.855760
    potential(screened) =   -1.858031
       potential(ionic) =   -5.417575

   izeta = 2
                 rmatch =    3.431921
              splitnorm =    0.150000
                 energy =   -0.867111
                kinetic =    1.300804
    potential(screened) =   -2.167915
       potential(ionic) =   -5.962684

SPLIT: Orbitals with angular momentum L= 1

SPLIT: Basis orbitals for state 2p

SPLIT: PAO cut-off radius determined from an
SPLIT: energy shift=  0.007350 Ry

   izeta = 1
                 lambda =    1.000000
                     rc =    5.658549
                 energy =   -0.381140
                kinetic =    2.399701
    potential(screened) =   -2.780841
       potential(ionic) =   -6.206085

   izeta = 2
                 rmatch =    3.653288
              splitnorm =    0.150000
                 energy =   -0.249149
                kinetic =    3.542762
    potential(screened) =   -3.791911
       potential(ionic) =   -7.581078

POLgen: Perturbative polarization orbital with L=  2

POLgen: Polarization orbital for state 2p

   izeta = 1
                     rc =    5.658549
                 energy =    1.109913
                kinetic =    2.304789
    potential(screened) =   -1.194876
       potential(ionic) =   -4.013592
atom: Total number of Sankey-type orbitals: 13

atm_pop: Valence configuration (for local Pseudopot. screening):
 2s( 2.00)                                                            
 2p( 2.00)                                                            
Vna: chval, zval:    4.00000   4.00000

Vna:  Cut-off radius for the neutral-atom potential:   5.658549
comcore: Pseudo-core radius Rcore=  1.791422

atom: _________________________________________________________________________

prinput: Basis input ----------------------------------------------------------

PAO.BasisType split     

%block ChemicalSpeciesLabel
    1    5 B                       # Species index, atomic number, species label
    2    6 C                       # Species index, atomic number, species label
%endblock ChemicalSpeciesLabel

%block PAO.Basis                 # Define Basis set
B                     2                    # Species label, number of l-shells
 n=2   0   2                         # n, l, Nzeta 
   5.422      4.223   
   1.000      1.000   
 n=2   1   2 P   1                   # n, l, Nzeta, Polarization, NzetaPol
   6.790      4.609   
   1.000      1.000   
C                     2                    # Species label, number of l-shells
 n=2   0   2                         # n, l, Nzeta 
   4.633      3.432   
   1.000      1.000   
 n=2   1   2 P   1                   # n, l, Nzeta, Polarization, NzetaPol
   5.659      3.653   
   1.000      1.000   
%endblock PAO.Basis

prinput: ----------------------------------------------------------------------

coor:   Atomic-coordinates input format  =     Fractional

siesta: Atomic coordinates (Bohr) and species
siesta:      2.30256  17.38257   0.00000  1        1
siesta:      6.95932  25.44831   0.00000  1        2
siesta:     -0.02582  18.72698   0.00000  1        3
siesta:      2.30256  25.44831   0.00000  1        4
siesta:     -2.35420  25.44831   0.00000  1        5
siesta:     -7.01096  25.44831   0.00000  1        6
siesta:      4.63094  26.79272   0.00000  1        7
siesta:     -0.02582  26.79272   0.00000  1        8
siesta:     -4.68258  26.79272   0.00000  1        9
siesta:      2.30256  30.82560   0.00000  1       10
siesta:      2.30256  33.51406   0.00000  1       11
siesta:     -0.02582   2.59549   0.00000  2       12
siesta:     -0.02582   5.28395   0.00000  2       13
siesta:     -2.35420  38.89134   0.00000  2       14
siesta:     -2.35420  41.57980   0.00000  2       15
siesta:      2.30256  38.89134   0.00000  2       16
siesta:      2.30256  41.57980   0.00000  2       17
siesta:      4.63094  34.85847   0.00000  2       18
siesta:      4.63094  37.54693   0.00000  2       19
siesta:      6.95932  30.82560   0.00000  2       20
siesta:      6.95932  33.51406   0.00000  2       21
siesta:      9.28770  26.79272   0.00000  2       22
siesta:      9.28770  29.48119   0.00000  2       23
siesta:     -4.68258  34.85847   0.00000  2       24
siesta:     -4.68258  37.54693   0.00000  2       25
siesta:      2.30256   6.62836   0.00000  2       26
siesta:      2.30256   9.31683   0.00000  2       27
siesta:      4.63094  10.66124   0.00000  2       28
siesta:      4.63094  13.34970   0.00000  2       29
siesta:      6.95932  14.69411   0.00000  2       30
siesta:      6.95932  17.38257   0.00000  2       31
siesta:      9.28770  18.72698   0.00000  2       32
siesta:      9.28770  21.41544   0.00000  2       33
siesta:     11.61608  22.75985   0.00000  2       34
siesta:     11.61608  25.44831   0.00000  2       35
siesta:     -2.35420   6.62836   0.00000  2       36
siesta:     -2.35420   9.31683   0.00000  2       37
siesta:     -0.02582  10.66124   0.00000  2       38
siesta:     -0.02582  13.34970   0.00000  2       39
siesta:      2.30256  14.69411   0.00000  2       40
siesta:      4.63094  18.72698   0.00000  2       41
siesta:      4.63094  21.41544   0.00000  2       42
siesta:      6.95932  22.75985   0.00000  2       43
siesta:     -4.68258  10.66124   0.00000  2       44
siesta:     -4.68258  13.34970   0.00000  2       45
siesta:     -2.35420  14.69411   0.00000  2       46
siesta:     -2.35420  17.38257   0.00000  2       47
siesta:     -0.02582  21.41544   0.00000  2       48
siesta:      2.30256  22.75985   0.00000  2       49
siesta:     -7.01096  14.69411   0.00000  2       50
siesta:     -7.01096  17.38257   0.00000  2       51
siesta:     -4.68258  18.72698   0.00000  2       52
siesta:     -4.68258  21.41544   0.00000  2       53
siesta:     -2.35420  22.75985   0.00000  2       54
siesta:     -9.33934  18.72698   0.00000  2       55
siesta:     -9.33934  21.41544   0.00000  2       56
siesta:     -7.01096  22.75985   0.00000  2       57
siesta:    -11.66772  22.75985   0.00000  2       58
siesta:    -11.66772  25.44831   0.00000  2       59
siesta:     -9.33934  26.79272   0.00000  2       60
siesta:     -9.33934  29.48119   0.00000  2       61
siesta:      4.63094  29.48119   0.00000  2       62
siesta:     -0.02582  29.48119   0.00000  2       63
siesta:     -4.68258  29.48119   0.00000  2       64
siesta:     -2.35420  30.82560   0.00000  2       65
siesta:     -2.35420  33.51406   0.00000  2       66
siesta:     -7.01096  30.82560   0.00000  2       67
siesta:     -7.01096  33.51406   0.00000  2       68
siesta:     -0.02582  34.85847   0.00000  2       69
siesta:     -0.02582  37.54693   0.00000  2       70
siesta:     -0.02582  42.92421   0.00000  2       71
siesta:     -0.02582  45.61267   0.00000  2       72

siesta: System type = slab      

initatomlists: Number of atoms, orbitals, and projectors:     72   936  1152

siesta: ******************** Simulation parameters ****************************
siesta:
siesta: The following are some of the parameters of the simulation.
siesta: A complete list of the parameters used, including default values,
siesta: can be found in file out.fdf
siesta:
redata: Non-Collinear-spin run           =     F
redata: SpinPolarized (Up/Down) run      =     F
redata: Number of spin components        =     1
redata: Long output                      =     F
redata: Number of Atomic Species         =        2
redata: Charge density info will appear in .RHO file
redata: Write Mulliken Pop.              =     NO
redata: Mesh Cutoff                      =   200.0000  Ry
redata: Net charge of the system         =     0.0000 |e|
redata: Max. number of SCF Iter          =      500
redata: SCF convergence failure will abort job
redata: Performing Pulay mixing using    =    10 iterations
redata: Mix DM in first SCF step ?       =     F
redata: Write Pulay info on disk?        =     F
redata: Discard 1st Pulay DM after  kick =     F
redata: New DM Mixing Weight             =     0.0500
redata: New DM Occupancy tolerance       = 0.000000000001
redata: No kicks to SCF
redata: DM Mixing Weight for Kicks       =     0.5000
redata: DM Tolerance for SCF             =     0.000100
redata: Require Energy convergence for SCF =     F
redata: DM Energy tolerance for SCF      =     0.000100 eV
redata: Require Harris convergence for SCF =     F
redata: DM Harris energy tolerance for SCF =     0.000100 eV
redata: Using Saved Data (generic)   =     F
redata: Use continuation files for DM    =     T
redata: Neglect nonoverlap interactions  =     F
redata: Method of Calculation            =     Diagonalization
redata: Divide and Conquer               =     T
redata: Electronic Temperature           =     0.0019  Ry
redata: Fix the spin of the system       =     F
redata: Dynamics option                  =     Verlet MD run
redata: Initial MD time step             =        1
redata:   Final MD time step             =        1
redata: Length of MD time step           =     1.0000  fs
redata: Initial Temperature of MD run    =     0.0000  K
redata: Perform a MD quench              =     F
redata: ***********************************************************************
Total number of electrons:   277.000000
Total ionic charge:   277.000000

* ProcessorY, Blocksize:    3  24

k-point displ. along   1 input, could be:     0.50    0.00
k-point displ. along   2 input, could be:     0.50    0.00
 Kpoints in:          231 . Kpoints trimmed:          231

siesta: k-grid: Number of k-points =   231
siesta: k-grid: Cutoff (effective) =     5.000 Ang
siesta: k-grid: Supercell and displacements
siesta: k-grid:   21   0   0      0.500
siesta: k-grid:    0  21   0      0.500
siesta: k-grid:    0   0   1      0.000
Naive supercell factors:     2    2    2

superc: Internal auxiliary supercell:     2 x     2 x     2  =       8
superc: Number of atoms, orbitals, and projectors:    576   7488   9216

* Maximum dynamic memory allocated =     4 MB

siesta:                 ==============================
                            Begin MD step =      1
                        ==============================

superc: Internal auxiliary supercell:     2 x     2 x     2  =       8
superc: Number of atoms, orbitals, and projectors:    576   7488   9216

outcell: Unit cell vectors (Ang):
       12.804619    7.392750    0.000000
        0.000000   14.785500    0.000000
        0.000000    0.000000   10.000000

outcell: Cell vector modules (Ang)   :   14.785500   14.785500   10.000000
outcell: Cell angles (23,13,12) (deg):     90.0000     90.0000     60.0000
outcell: Cell volume (Ang**3)        :   1893.2269
New_DM. Step:     1
Initializing Density Matrix...

InitMesh: MESH =   120 x   120 x    90 =     1296000
InitMesh: Mesh cutoff (required, used) =   200.000   223.865 Ry

* Maximum dynamic memory allocated =   152 MB

stepf: Fermi-Dirac step function

siesta: Program's energy decomposition (eV):
siesta: Ebs     =     -5693.464763
siesta: Eions   =     16994.387248
siesta: Ena     =      4448.453175
siesta: Ekin    =      5798.058349
siesta: Enl     =       721.486814
siesta: DEna    =        -0.000011
siesta: DUscf   =         0.000000
siesta: DUext   =         0.000000
siesta: Exc     =     -4186.373156
siesta: eta*DQ  =         0.000000
siesta: Emadel  =         0.000000
siesta: Emeta   =         0.000000
siesta: Emolmec =         0.000000
siesta: Ekinion =         0.000000
siesta: Eharris =     -9920.078900
siesta: Etot    =    -10212.762077
siesta: FreeEng =    -10212.762077

siesta: iscf   Eharris(eV)      E_KS(eV)   FreeEng(eV)   dDmax  Ef(eV)
siesta:    1    -9920.0789   -10212.7621   -10212.7621  6.8440 -8.0524
timer: Routine,Calls,Time,% = IterSCF        1    5312.833  99.77
elaps: Routine,Calls,Wall,% = IterSCF        1     463.077  99.77
siesta:    2   -13855.9821    -9277.0712    -9277.1500 16.2593 -2.3848
siesta:    3    -9861.8514   -10064.6350   -10064.7028  3.7717 -6.8547
siesta:    4    -9838.4986    -9914.4609    -9914.4904  1.1187 -5.4628
siesta:    5    -9800.7938    -9860.7004    -9860.7304  0.9088 -5.4855
siesta:    6    -9783.3650    -9812.5217    -9812.5591  0.8982 -5.0063
siesta:    7    -9778.5155    -9804.3829    -9804.4159  0.8887 -5.1010
siesta:    8    -9774.8957    -9791.5147    -9791.5478  0.7922 -5.2244
siesta:    9    -9773.5092    -9781.5552    -9781.6035  0.7095 -5.1049
siesta:   10    -9775.2226    -9766.1124    -9766.1565  0.4505 -5.0056
siesta:   11    -9773.7067    -9763.0667    -9763.1097  0.3735 -5.0248
siesta:   12    -9773.6721    -9753.2563    -9753.3158  0.3098 -5.0014
siesta:   13    -9773.7616    -9746.8176    -9746.8508  0.1992 -4.9618
siesta:   14    -9773.0035    -9752.2093    -9752.2586  0.1642 -4.9820
siesta:   15    -9772.4851    -9755.1086    -9755.1480  0.1196 -5.0577
siesta:   16    -9772.2579    -9758.9917    -9759.0441  0.1027 -4.9948
siesta:   17    -9772.1336    -9761.4877    -9761.5211  0.0773 -5.0184
siesta:   18    -9772.1010    -9761.7117    -9761.7473  0.0659 -5.0264
siesta:   19    -9772.0695    -9767.5149    -9767.5519  0.0353 -5.0376
siesta:   20    -9772.0600    -9769.4934    -9769.5323  0.0263 -5.0545
siesta:   21    -9772.0434    -9771.3004    -9771.3415  0.0231 -5.0596
siesta:   22    -9772.0399    -9771.2888    -9771.3306  0.0208 -5.0587
siesta:   23    -9772.0385    -9771.6748    -9771.7172  0.0134 -5.0494
siesta:   24    -9772.0396    -9772.2492    -9772.2900  0.0099 -5.0456
siesta:   25    -9772.0374    -9772.3579    -9772.3978  0.0076 -5.0465
siesta:   26    -9772.0368    -9772.3500    -9772.3908  0.0046 -5.0458
siesta:   27    -9772.0365    -9772.3968    -9772.4379  0.0034 -5.0465
siesta:   28    -9772.0366    -9772.2909    -9772.3320  0.0028 -5.0461
siesta:   29    -9772.0364    -9772.2277    -9772.2688  0.0008 -5.0468
siesta:   30    -9772.0364    -9772.1796    -9772.2209  0.0006 -5.0470
siesta:   31    -9772.0364    -9772.0763    -9772.1175  0.0007 -5.0471
siesta:   32    -9772.0364    -9772.0678    -9772.1090  0.0004 -5.0473
siesta:   33    -9772.0364    -9772.0661    -9772.1072  0.0003 -5.0474
siesta:   34    -9772.0364    -9772.0534    -9772.0945  0.0002 -5.0473
siesta:   35    -9772.0364    -9772.0482    -9772.0893  0.0002 -5.0473
siesta:   36    -9772.0364    -9772.0405    -9772.0816  0.0001 -5.0473
siesta:   37    -9772.0364    -9772.0356    -9772.0768  0.0001 -5.0473

siesta: E_KS(eV) =            -9772.0363

siesta: E_KS - E_eggbox =     -9772.0363

siesta: Atomic forces (eV/Ang):
----------------------------------------
   Tot   -0.196969    0.169834    0.000000
----------------------------------------
   Max  557.966431
   Res  152.958847    sqrt( Sum f_i^2 / 3N )
----------------------------------------
   Max  557.966431    constrained

Stress-tensor-Voigt (kbar):     -767.58    -2740.03       -0.48       -0.99        0.00        0.00
(Free)E + p*V (eV/cell)    -8390.3024
Target enthalpy (eV/cell)    -9772.0775

siesta: Stress tensor (static) (eV/Ang**3):
        -0.479080   -0.000621    0.000000
        -0.000621   -1.710175    0.000000
         0.000000    0.000000   -0.000300

siesta: Pressure (static):       1169.36417977  kBar

siesta: Stress tensor (total) (eV/Ang**3):
        -0.479080   -0.000621    0.000000
        -0.000621   -1.710175    0.000000
         0.000000    0.000000   -0.000300

siesta: Pressure (total):       1169.36417977  kBar

siesta: Temp_ion =       0.000 K

* Maximum dynamic memory allocated =   165 MB
Computing bands...

siesta: Program's energy decomposition (eV):
siesta: Ebs     =     -4369.130567
siesta: Eions   =     16994.387248
siesta: Ena     =      4448.453175
siesta: Ekin    =      8711.418640
siesta: Enl     =      -904.528976
siesta: DEna    =      -780.577858
siesta: DUscf   =       103.465466
siesta: DUext   =         0.000000
siesta: Exc     =     -4355.879508
siesta: eta*DQ  =         0.000000
siesta: Emadel  =         0.000000
siesta: Emeta   =         0.000000
siesta: Emolmec =         0.000000
siesta: Ekinion =         0.000000
siesta: Eharris =     -9772.036426
siesta: Etot    =     -9772.036308
siesta: FreeEng =     -9772.077468

siesta: Final energy (eV):
siesta:  Band Struct. =   -4369.130567
siesta:       Kinetic =    8711.418640
siesta:       Hartree =   28492.936505
siesta:    Ext. field =       0.000000
siesta:   Exch.-corr. =   -4355.879508
siesta:  Ion-electron =  -65405.622169
siesta:       Ion-ion =   22785.110224
siesta:       Ekinion =       0.000000
siesta:         Total =   -9772.036308

siesta: Atomic forces (eV/Ang):
siesta:      1   19.768672   -1.748642    0.000000
siesta:      2    2.775476   -3.849070    0.000000
siesta:      3   -0.615811  412.919279    0.000000
siesta:      4   -0.712562   -6.507026    0.000000
siesta:      5    0.450237   -6.634697    0.000000
siesta:      6   -2.760447   -3.716684    0.000000
siesta:      7   -1.175169    6.205562    0.000000
siesta:      8   -0.167348    6.175706    0.000000
siesta:      9    1.094127    6.170513    0.000000
siesta:     10   18.715101    1.175122    0.000000
siesta:     11   22.681962 -399.914945    0.000000
siesta:     12   -6.080208  548.389522    0.000000
siesta:     13    3.961455 -131.516132    0.000000
siesta:     14    2.175548  127.837537    0.000000
siesta:     15  -17.119647 -548.546196    0.000000
siesta:     16   -1.279438  127.265175    0.000000
siesta:     17   17.286721 -553.087268    0.000000
siesta:     18   25.902128   -0.127437    0.000000
siesta:     19   28.773782 -550.402165    0.000000
siesta:     20    3.002344    0.831037    0.000000
siesta:     21   -1.945780    1.733716    0.000000
siesta:     22    6.485581    4.128893    0.000000
siesta:     23   -1.742079    0.418071    0.000000
siesta:     24  -26.641756    3.781797    0.000000
siesta:     25  -31.498482 -549.078284    0.000000
siesta:     26   16.043177  407.380843    0.000000
siesta:     27   -0.285713 -124.210497    0.000000
siesta:     28   35.024925  551.597087    0.000000
siesta:     29   26.825207   -5.192848    0.000000
siesta:     30   -2.108965   -1.499971    0.000000
siesta:     31    3.014075   -0.201521    0.000000
siesta:     32   -1.467797   -0.554586    0.000000
siesta:     33    2.884500   -1.902085    0.000000
siesta:     34   -0.265365    6.468374    0.000000
siesta:     35   -0.878857   -7.005673    0.000000
siesta:     36  -15.978530  546.389341    0.000000
siesta:     37    1.760741 -126.834533    0.000000
siesta:     38   -3.034367  548.730468    0.000000
siesta:     39    0.671189 -128.318634    0.000000
siesta:     40   24.395284  553.743182    0.000000
siesta:     41    0.526762    2.025025    0.000000
siesta:     42    0.696997   -0.601919    0.000000
siesta:     43   -0.421795   -2.719805    0.000000
siesta:     44  -33.837383  549.260195    0.000000
siesta:     45  -26.866695   -5.011177    0.000000
siesta:     46  -24.295002  557.966431    0.000000
siesta:     47  -21.984053   -2.482061    0.000000
siesta:     48   -0.264025    1.880506    0.000000
siesta:     49   -0.860181   -3.026217    0.000000
siesta:     50    2.598599   -2.019337    0.000000
siesta:     51   -2.342944   -0.253520    0.000000
siesta:     52    1.106475    1.554044    0.000000
siesta:     53   -0.448206   -0.678053    0.000000
siesta:     54    0.647105   -2.985293    0.000000
siesta:     55    1.149666   -0.656600    0.000000
siesta:     56   -2.531435   -1.640993    0.000000
siesta:     57    0.262943   -2.931894    0.000000
siesta:     58    0.076498    6.119674    0.000000
siesta:     59    0.765902   -6.609694    0.000000
siesta:     60   -6.211801    3.979774    0.000000
siesta:     61    1.085969    0.339433    0.000000
siesta:     62    0.535993    2.114775    0.000000
siesta:     63    4.200606 -556.576896    0.000000
siesta:     64    1.424857    1.967526    0.000000
siesta:     65  -22.166163    6.651744    0.000000
siesta:     66  -29.428050 -555.020679    0.000000
siesta:     67   -1.901003    1.171624    0.000000
siesta:     68    2.353418    1.787610    0.000000
siesta:     69    7.836618  119.482695    0.000000
siesta:     70   -0.213933 -545.874528    0.000000
siesta:     71    1.864292  127.630815    0.000000
siesta:     72   -1.490913 -405.165702    0.000000
siesta: ----------------------------------------
siesta:    Tot   -0.196969    0.169834    0.000000

siesta: Stress tensor (static) (eV/Ang**3):
siesta:    -0.479080   -0.000621    0.000000
siesta:    -0.000621   -1.710175    0.000000
siesta:     0.000000    0.000000   -0.000300

siesta: Cell volume =       1893.226884 Ang**3

siesta: Pressure (static):
siesta:                Solid            Molecule  Units
siesta:           0.00794902          0.11775796  Ry/Bohr**3
siesta:           0.72985182         10.81213548  eV/Ang**3
siesta:        1169.36417977      17323.13807064  kBar
(Free)E+ p_basis*V_orbitals  =       -9737.864362
(Free)Eharris+ p_basis*V_orbitals  =       -9737.865156

siesta: Electric dipole (a.u.)  =    0.000000    0.000000    0.000000
siesta: Electric dipole (Debye) =    0.000000    0.000000    0.000000

* Maximum dynamic memory allocated : Node    0 =   165 MB
* Maximum dynamic memory allocated : Node    1 =    66 MB
* Maximum dynamic memory allocated : Node    2 =    68 MB
* Maximum dynamic memory allocated : Node    3 =   152 MB
* Maximum dynamic memory allocated : Node    4 =   158 MB
* Maximum dynamic memory allocated : Node    5 =    58 MB
* Maximum dynamic memory allocated : Node    6 =    58 MB
* Maximum dynamic memory allocated : Node    7 =   149 MB
* Maximum dynamic memory allocated : Node    8 =   150 MB
* Maximum dynamic memory allocated : Node    9 =    60 MB
* Maximum dynamic memory allocated : Node   10 =    61 MB
* Maximum dynamic memory allocated : Node   11 =   142 MB

* Maximum memory occured during matrixMtoO                    

timer: CPU execution times:
timer:  Routine       Calls   Time/call    Tot.time        %
timer:  siesta            1  197209.094  197209.094   100.00
timer:  Setup             1       3.214       3.214     0.00
timer:  bands             3     417.209    1251.626     0.63
timer:  writewave         1       0.018       0.018     0.00
timer:  KSV_init          1       0.001       0.001     0.00
timer:  IterMD            1  195945.430  195945.430    99.36
timer:  hsparse           1       0.279       0.279     0.00
timer:  overlap           1       6.422       6.422     0.00
timer:  IterSCF          37    5291.735  195794.205    99.28
timer:  kinefsm           2       3.271       6.541     0.00
timer:  nlefsm            2      19.818      39.636     0.02
timer:  DHSCF            38      82.193    3123.339     1.58
timer:  DHSCF1            1       1.193       1.193     0.00
timer:  DHSCF2            1      33.630      33.630     0.02
timer:  REORD           306       0.002       0.680     0.00
timer:  POISON           39       0.605      23.580     0.01
timer:  DHSCF3           38      80.569    3061.608     1.55
timer:  rhoofd           38      16.263     617.996     0.31
timer:  cellXC           38       3.031     115.190     0.06
timer:  vmat             38      39.527    1502.030     0.76
timer:  MolMec            2       0.000       0.000     0.00
timer:  diagon           37    5207.514  192678.017    97.70
timer:  c-eigval       8668      10.356   89761.845    45.52
timer:  c-buildHS      8668       0.034     291.190     0.15
timer:  cdiag         17215      10.620  182830.814    92.71
timer:  cdiag1        17215       0.476    8201.421     4.16
timer:  cdiag2        17215       3.386   58288.662    29.56
timer:  cdiag3        17215       6.302  108490.723    55.01
timer:  cdiag4        17215       0.168    2884.398     1.46
timer:  c-eigvec       8547      10.952   93610.740    47.47
timer:  c-buildD       8547       1.230   10510.870     5.33
timer:  DHSCF4            1      26.671      26.671     0.01
timer:  dfscf             1      24.604      24.604     0.01
timer:  overfsm           1       0.320       0.320     0.00
timer:  optical           1       8.218       8.218     0.00
  

elaps: ELAPSED times:
elaps:  Routine       Calls   Time/call    Tot.time        %
elaps:  siesta            1   17188.594   17188.594   100.00
elaps:  Setup             1       0.279       0.279     0.00
elaps:  bands             3      36.394     109.183     0.64
elaps:  writewave         1       0.002       0.002     0.00
elaps:  KSV_init          1       0.000       0.000     0.00
elaps:  IterMD            1   17078.453   17078.453    99.36
elaps:  hsparse           1       0.028       0.028     0.00
elaps:  overlap           1       0.713       0.713     0.00
elaps:  IterSCF          37     461.224   17065.276    99.28
elaps:  kinefsm           2       0.365       0.730     0.00
elaps:  nlefsm            2       1.696       3.392     0.02
elaps:  DHSCF            38       7.216     274.219     1.60
elaps:  DHSCF1            1       0.101       0.101     0.00
elaps:  DHSCF2            1       2.932       2.932     0.02
elaps:  REORD           306       0.000       0.097     0.00
elaps:  POISON           39       0.054       2.095     0.01
elaps:  DHSCF3           38       7.021     266.809     1.55
elaps:  rhoofd           38       3.084     117.205     0.68
elaps:  cellXC           38       0.264      10.023     0.06
elaps:  vmat             38       3.445     130.912     0.76
elaps:  MolMec            2       0.000       0.000     0.00
elaps:  diagon           37     453.888   16793.860    97.70
elaps:  c-eigval       8668       0.903    7823.678    45.52
elaps:  c-buildHS      8668       0.004      31.007     0.18
elaps:  cdiag         17215       0.922   15872.565    92.34
elaps:  cdiag1        17215       0.041     703.897     4.10
elaps:  cdiag2        17215       0.296    5087.675    29.60
elaps:  cdiag3        17215       0.550    9473.995    55.12
elaps:  cdiag4        17215       0.014     238.982     1.39
elaps:  c-eigvec       8547       0.949    8109.656    47.18
elaps:  c-buildD       8547       0.113     963.963     5.61
elaps:  DHSCF4            1       4.336       4.336     0.03
elaps:  dfscf             1       4.080       4.080     0.02
elaps:  overfsm           1       0.033       0.033     0.00
elaps:  optical           1       0.000       0.000     0.00
  
>> End of run:   5-MAY-2016  10:49:21
