Siesta Version:                                        siesta-3.2-pl-3
Architecture  : x86_64-unknown-linux-gnu--unknown
Compiler flags: mpiifort -g -O2 -fPIC -xSSE4.1 -fp-model source -shared-intel 
PARALLEL version

* Running on    8 nodes in parallel
>> Start of run:  22-APR-2016   4:21:34

                           ***********************       
                           *  WELCOME TO SIESTA  *       
                           ***********************       

reinit: Reading from standard input
************************** Dump of input data file ****************************
#(1) General system descriptors
SystemName            GRP_doping    # Descriptive name of the system
SystemLabel           GRP_doping    # Short name for naming files
%include STRUCT.fdf
%include KPT.fdf
%include BASIS.fdf
#%include TS.fdf # for transiesta calculation
#(4) DFT, Grid, SCF
XC.functional         GGA           # LDA or GGA (default = LDA)
XC.authors            PBE           # CA (Ceperley-Aldr) = PZ
                                    #    (Perdew-Zunger) - LDA - Default
                                    # PW92 (Perdew-Wang-92) - LDA
                                    # PBE (Perdew-Burke-Ernzerhof) - GGA
MeshCutoff            200.000000    Ry      # Default: 50.0 Ry ~ 0.444 Bohr
                                    #         100.0 Ry ~ 0.314 Bohr
MaxSCFIterations      500           # Default: 50
DM.MixingWeight       0.05          # Default: 0.25
DM.NumberPulay        10            # Default: 0
DM.PulayOnFile        F             # SystemLabel.P1, SystemLabel.P2
DM.Tolerance          1.d-4         # Default: 1.d-4
DM.UseSaveDM          .true.        # because of the bug
SCFMustConverge       .true.
NeglNonOverlapInt     F             # Default: F
#(5) Eigenvalue problem: order-N or diagonalization
SolutionMethod        Diagon        # or Transiesta
ElectronicTemperature 300.0 K       # Default: 300.0 K
#(6) Molecular dynamics and relaxations
#MD.TypeOfRun          CG            # Type of dynamics:
#MD.VariableCell       F
#MD.NumCGsteps         0           # 0 for single-point / 100 for gopt
#MD.MaxCGDispl         0.2 Bohr      # Default: 0.2 Bohr
#MD.MaxForceTol        0.02 eV/Ang   # Default: 0.04 eV/Ang
#MD.MaxStressTol       1.0 GPa       # Default: 1.0 GPa
# Geometry Constraints
#%block GeometryConstraints
#	position from 1 to 44
#%endblock GeometryConstraints
BandLinesScale   pi/a
%block BandLines
 1   0.00000000  0.00000000  0.00000000
50   0.00000000  0.07809418  0.00000000
50   0.04509075  0.07809242  0.00000000
20   0.00000000  0.00000000  0.00000000
%endblock BandLines
************************** End of input data file *****************************

reinit: -----------------------------------------------------------------------
reinit: System Name: GRP_doping
reinit: -----------------------------------------------------------------------
reinit: System Label: GRP_doping                                                  
reinit: -----------------------------------------------------------------------

initatom: Reading input for the pseudopotentials and atomic orbitals ----------
 Species number:            1  Label: N Atomic number:           7
 Species number:            2  Label: C Atomic number:           6
Ground state valence configuration:   2s02  2p03
Reading pseudopotential information in formatted form from N.psf

Valence configuration for pseudopotential generation:
2s( 2.00) rc: 1.48
2p( 3.00) rc: 1.48
3d( 0.00) rc: 1.48
4f( 0.00) rc: 1.48
Ground state valence configuration:   2s02  2p02
Reading pseudopotential information in formatted form from C.psf

Valence configuration for pseudopotential generation:
2s( 2.00) rc: 1.54
2p( 2.00) rc: 1.54
3d( 0.00) rc: 1.54
4f( 0.00) rc: 1.54
For N, standard SIESTA heuristics set lmxkb to 3
 (one more than the basis l, including polarization orbitals).
Use PS.lmax or PS.KBprojectors blocks to override.
For C, standard SIESTA heuristics set lmxkb to 3
 (one more than the basis l, including polarization orbitals).
Use PS.lmax or PS.KBprojectors blocks to override.

<basis_specs>
===============================================================================
N                    Z=   7    Mass=  14.010        Charge= 0.17977+309
Lmxo=1 Lmxkb= 3    BasisType=split      Semic=F
L=0  Nsemic=0  Cnfigmx=2
          n=1  nzeta=2  polorb=0
            splnorm:   0.15000    
               vcte:    0.0000    
               rinn:    0.0000    
                rcs:    0.0000      0.0000    
            lambdas:    1.0000      1.0000    
L=1  Nsemic=0  Cnfigmx=2
          n=1  nzeta=2  polorb=1
            splnorm:   0.15000    
               vcte:    0.0000    
               rinn:    0.0000    
                rcs:    0.0000      0.0000    
            lambdas:    1.0000      1.0000    
-------------------------------------------------------------------------------
L=0  Nkbl=1  erefs: 0.17977+309
L=1  Nkbl=1  erefs: 0.17977+309
L=2  Nkbl=1  erefs: 0.17977+309
L=3  Nkbl=1  erefs: 0.17977+309
===============================================================================
</basis_specs>

atom: Called for N                     (Z =   7)

read_vps: Pseudopotential generation method:
read_vps: ATM3      Troullier-Martins                       
Total valence charge:    5.00000

read_vps: Pseudopotential includes a core correction:
read_vps: Pseudo-core for xc-correction

xc_check: Exchange-correlation functional:
xc_check: GGA Perdew, Burke & Ernzerhof 1996
V l=0 = -2*Zval/r beyond r=  1.4606
V l=1 = -2*Zval/r beyond r=  1.4606
V l=2 = -2*Zval/r beyond r=  1.4606
V l=3 = -2*Zval/r beyond r=  1.4606
All V_l potentials equal beyond r=  1.4606
This should be close to max(r_c) in ps generation
All pots = -2*Zval/r beyond r=  1.4606

VLOCAL1: 99.0% of the norm of Vloc inside     20.347 Ry
VLOCAL1: 99.9% of the norm of Vloc inside     46.372 Ry
atom: Maximum radius for 4*pi*r*r*local-pseudopot. charge    1.76189
atom: Maximum radius for r*vlocal+2*Zval:    1.53550
GHOST: No ghost state for L =  0
GHOST: No ghost state for L =  1
GHOST: No ghost state for L =  2
GHOST: No ghost state for L =  3

KBgen: Kleinman-Bylander projectors: 
   l= 0   rc=  1.634559   el= -1.363963   Ekb=  5.296955   kbcos=  0.335621
   l= 1   rc=  1.614250   el= -0.521451   Ekb= -5.259161   kbcos= -0.433408
   l= 2   rc=  1.718383   el=  0.001991   Ekb= -1.271464   kbcos= -0.007566
   l= 3   rc=  1.761893   el=  0.003093   Ekb= -0.494769   kbcos= -0.001015

KBgen: Total number of  Kleinman-Bylander projectors:   16
atom: -------------------------------------------------------------------------

atom: SANKEY-TYPE ORBITALS:
atom: Selected multiple-zeta basis: split     

SPLIT: Orbitals with angular momentum L= 0

SPLIT: Basis orbitals for state 2s

SPLIT: PAO cut-off radius determined from an
SPLIT: energy shift=  0.007350 Ry

   izeta = 1
                 lambda =    1.000000
                     rc =    4.071465
                 energy =   -1.356470
                kinetic =    1.176977
    potential(screened) =   -2.533447
       potential(ionic) =   -8.057990

   izeta = 2
                 rmatch =    2.905100
              splitnorm =    0.150000
                 energy =   -1.158343
                kinetic =    1.813009
    potential(screened) =   -2.971352
       potential(ionic) =   -8.901931

SPLIT: Orbitals with angular momentum L= 1

SPLIT: Basis orbitals for state 2p

SPLIT: PAO cut-off radius determined from an
SPLIT: energy shift=  0.007350 Ry

   izeta = 1
                 lambda =    1.000000
                     rc =    4.972977
                 energy =   -0.513884
                kinetic =    3.441732
    potential(screened) =   -3.955616
       potential(ionic) =   -9.287901

   izeta = 2
                 rmatch =    3.054066
              splitnorm =    0.150000
                 energy =   -0.318226
                kinetic =    5.125348
    potential(screened) =   -5.443573
       potential(ionic) =  -11.380999

POLgen: Perturbative polarization orbital with L=  2

POLgen: Polarization orbital for state 2p

   izeta = 1
                     rc =    4.972977
                 energy =    1.607437
                kinetic =    3.268125
    potential(screened) =   -1.660688
       potential(ionic) =   -5.973652
atom: Total number of Sankey-type orbitals: 13

atm_pop: Valence configuration (for local Pseudopot. screening):
 2s( 2.00)                                                            
 2p( 3.00)                                                            
Vna: chval, zval:    5.00000   5.00000

Vna:  Cut-off radius for the neutral-atom potential:   4.972977
comcore: Pseudo-core radius Rcore=  1.554824

atom: _________________________________________________________________________

<basis_specs>
===============================================================================
C                    Z=   6    Mass=  12.010        Charge= 0.17977+309
Lmxo=1 Lmxkb= 3    BasisType=split      Semic=F
L=0  Nsemic=0  Cnfigmx=2
          n=1  nzeta=2  polorb=0
            splnorm:   0.15000    
               vcte:    0.0000    
               rinn:    0.0000    
                rcs:    0.0000      0.0000    
            lambdas:    1.0000      1.0000    
L=1  Nsemic=0  Cnfigmx=2
          n=1  nzeta=2  polorb=1
            splnorm:   0.15000    
               vcte:    0.0000    
               rinn:    0.0000    
                rcs:    0.0000      0.0000    
            lambdas:    1.0000      1.0000    
-------------------------------------------------------------------------------
L=0  Nkbl=1  erefs: 0.17977+309
L=1  Nkbl=1  erefs: 0.17977+309
L=2  Nkbl=1  erefs: 0.17977+309
L=3  Nkbl=1  erefs: 0.17977+309
===============================================================================
</basis_specs>

atom: Called for C                     (Z =   6)

read_vps: Pseudopotential generation method:
read_vps: ATM3      Troullier-Martins                       
Total valence charge:    4.00000

read_vps: Pseudopotential includes a core correction:
read_vps: Pseudo-core for xc-correction

xc_check: Exchange-correlation functional:
xc_check: GGA Perdew, Burke & Ernzerhof 1996
V l=0 = -2*Zval/r beyond r=  1.5227
V l=1 = -2*Zval/r beyond r=  1.5227
V l=2 = -2*Zval/r beyond r=  1.5227
V l=3 = -2*Zval/r beyond r=  1.5038
All V_l potentials equal beyond r=  1.5227
This should be close to max(r_c) in ps generation
All pots = -2*Zval/r beyond r=  1.5227

VLOCAL1: 99.0% of the norm of Vloc inside     18.722 Ry
VLOCAL1: 99.9% of the norm of Vloc inside     42.668 Ry
atom: Maximum radius for 4*pi*r*r*local-pseudopot. charge    1.83678
atom: Maximum radius for r*vlocal+2*Zval:    1.58088
GHOST: No ghost state for L =  0
GHOST: No ghost state for L =  1
GHOST: No ghost state for L =  2
GHOST: No ghost state for L =  3

KBgen: Kleinman-Bylander projectors: 
   l= 0   rc=  1.704034   el= -1.009801   Ekb=  5.335044   kbcos=  0.316824
   l= 1   rc=  1.704034   el= -0.388707   Ekb= -3.785862   kbcos= -0.366464
   l= 2   rc=  1.791422   el=  0.001971   Ekb= -0.970471   kbcos= -0.009212
   l= 3   rc=  1.859892   el=  0.003065   Ekb= -0.399525   kbcos= -0.001223

KBgen: Total number of  Kleinman-Bylander projectors:   16
atom: -------------------------------------------------------------------------

atom: SANKEY-TYPE ORBITALS:
atom: Selected multiple-zeta basis: split     

SPLIT: Orbitals with angular momentum L= 0

SPLIT: Basis orbitals for state 2s

SPLIT: PAO cut-off radius determined from an
SPLIT: energy shift=  0.007350 Ry

   izeta = 1
                 lambda =    1.000000
                     rc =    4.632753
                 energy =   -1.002270
                kinetic =    0.855760
    potential(screened) =   -1.858031
       potential(ionic) =   -5.417575

   izeta = 2
                 rmatch =    3.431921
              splitnorm =    0.150000
                 energy =   -0.867111
                kinetic =    1.300804
    potential(screened) =   -2.167915
       potential(ionic) =   -5.962684

SPLIT: Orbitals with angular momentum L= 1

SPLIT: Basis orbitals for state 2p

SPLIT: PAO cut-off radius determined from an
SPLIT: energy shift=  0.007350 Ry

   izeta = 1
                 lambda =    1.000000
                     rc =    5.658549
                 energy =   -0.381140
                kinetic =    2.399701
    potential(screened) =   -2.780841
       potential(ionic) =   -6.206085

   izeta = 2
                 rmatch =    3.653288
              splitnorm =    0.150000
                 energy =   -0.249149
                kinetic =    3.542762
    potential(screened) =   -3.791911
       potential(ionic) =   -7.581078

POLgen: Perturbative polarization orbital with L=  2

POLgen: Polarization orbital for state 2p

   izeta = 1
                     rc =    5.658549
                 energy =    1.109913
                kinetic =    2.304789
    potential(screened) =   -1.194876
       potential(ionic) =   -4.013592
atom: Total number of Sankey-type orbitals: 13

atm_pop: Valence configuration (for local Pseudopot. screening):
 2s( 2.00)                                                            
 2p( 2.00)                                                            
Vna: chval, zval:    4.00000   4.00000

Vna:  Cut-off radius for the neutral-atom potential:   5.658549
comcore: Pseudo-core radius Rcore=  1.791422

atom: _________________________________________________________________________

prinput: Basis input ----------------------------------------------------------

PAO.BasisType split     

%block ChemicalSpeciesLabel
    1    7 N                       # Species index, atomic number, species label
    2    6 C                       # Species index, atomic number, species label
%endblock ChemicalSpeciesLabel

%block PAO.Basis                 # Define Basis set
N                     2                    # Species label, number of l-shells
 n=2   0   2                         # n, l, Nzeta 
   4.071      2.905   
   1.000      1.000   
 n=2   1   2 P   1                   # n, l, Nzeta, Polarization, NzetaPol
   4.973      3.054   
   1.000      1.000   
C                     2                    # Species label, number of l-shells
 n=2   0   2                         # n, l, Nzeta 
   4.633      3.432   
   1.000      1.000   
 n=2   1   2 P   1                   # n, l, Nzeta, Polarization, NzetaPol
   5.659      3.653   
   1.000      1.000   
%endblock PAO.Basis

prinput: ----------------------------------------------------------------------

coor:   Atomic-coordinates input format  =     Fractional

siesta: Atomic coordinates (Bohr) and species
siesta:     -0.02582   2.59549   0.00000  1        1
siesta:     -2.35420  38.89134   0.00000  1        2
siesta:     -2.35420  41.57980   0.00000  1        3
siesta:      9.28770  26.79272   0.00000  1        4
siesta:      9.28770  29.48119   0.00000  1        5
siesta:     -4.68258  34.85847   0.00000  1        6
siesta:     -4.68258  37.54693   0.00000  1        7
siesta:     -2.35420   6.62836   0.00000  1        8
siesta:     -2.35420   9.31683   0.00000  1        9
siesta:     -0.02582  10.66124   0.00000  1       10
siesta:     -0.02582  13.34970   0.00000  1       11
siesta:      2.30256  14.69411   0.00000  1       12
siesta:      2.30256  17.38257   0.00000  1       13
siesta:      4.63094  18.72698   0.00000  1       14
siesta:      4.63094  21.41544   0.00000  1       15
siesta:      6.95932  22.75985   0.00000  1       16
siesta:      6.95932  25.44831   0.00000  1       17
siesta:    -11.66772  22.75985   0.00000  1       18
siesta:    -11.66772  25.44831   0.00000  1       19
siesta:     -9.33934  26.79272   0.00000  1       20
siesta:     -9.33934  29.48119   0.00000  1       21
siesta:     -7.01096  30.82560   0.00000  1       22
siesta:     -7.01096  33.51406   0.00000  1       23
siesta:     -0.02582  42.92421   0.00000  1       24
siesta:     -0.02582  45.61267   0.00000  1       25
siesta:     -0.02582   5.28395   0.00000  2       26
siesta:      2.30256  38.89134   0.00000  2       27
siesta:      2.30256  41.57980   0.00000  2       28
siesta:      4.63094  34.85847   0.00000  2       29
siesta:      4.63094  37.54693   0.00000  2       30
siesta:      6.95932  30.82560   0.00000  2       31
siesta:      6.95932  33.51406   0.00000  2       32
siesta:      2.30256   6.62836   0.00000  2       33
siesta:      2.30256   9.31683   0.00000  2       34
siesta:      4.63094  10.66124   0.00000  2       35
siesta:      4.63094  13.34970   0.00000  2       36
siesta:      6.95932  14.69411   0.00000  2       37
siesta:      6.95932  17.38257   0.00000  2       38
siesta:      9.28770  18.72698   0.00000  2       39
siesta:      9.28770  21.41544   0.00000  2       40
siesta:     11.61608  22.75985   0.00000  2       41
siesta:     11.61608  25.44831   0.00000  2       42
siesta:     -4.68258  10.66124   0.00000  2       43
siesta:     -4.68258  13.34970   0.00000  2       44
siesta:     -2.35420  14.69411   0.00000  2       45
siesta:     -2.35420  17.38257   0.00000  2       46
siesta:     -0.02582  18.72698   0.00000  2       47
siesta:     -0.02582  21.41544   0.00000  2       48
siesta:      2.30256  22.75985   0.00000  2       49
siesta:      2.30256  25.44831   0.00000  2       50
siesta:     -7.01096  14.69411   0.00000  2       51
siesta:     -7.01096  17.38257   0.00000  2       52
siesta:     -4.68258  18.72698   0.00000  2       53
siesta:     -4.68258  21.41544   0.00000  2       54
siesta:     -2.35420  22.75985   0.00000  2       55
siesta:     -2.35420  25.44831   0.00000  2       56
siesta:     -9.33934  18.72698   0.00000  2       57
siesta:     -9.33934  21.41544   0.00000  2       58
siesta:     -7.01096  22.75985   0.00000  2       59
siesta:     -7.01096  25.44831   0.00000  2       60
siesta:      4.63094  26.79272   0.00000  2       61
siesta:      4.63094  29.48119   0.00000  2       62
siesta:     -0.02582  26.79272   0.00000  2       63
siesta:     -0.02582  29.48119   0.00000  2       64
siesta:     -4.68258  26.79272   0.00000  2       65
siesta:     -4.68258  29.48119   0.00000  2       66
siesta:      2.30256  30.82560   0.00000  2       67
siesta:      2.30256  33.51406   0.00000  2       68
siesta:     -2.35420  30.82560   0.00000  2       69
siesta:     -2.35420  33.51406   0.00000  2       70
siesta:     -0.02582  34.85847   0.00000  2       71
siesta:     -0.02582  37.54693   0.00000  2       72

siesta: System type = slab      

initatomlists: Number of atoms, orbitals, and projectors:     72   936  1152

siesta: ******************** Simulation parameters ****************************
siesta:
siesta: The following are some of the parameters of the simulation.
siesta: A complete list of the parameters used, including default values,
siesta: can be found in file out.fdf
siesta:
redata: Non-Collinear-spin run           =     F
redata: SpinPolarized (Up/Down) run      =     F
redata: Number of spin components        =     1
redata: Long output                      =     F
redata: Number of Atomic Species         =        2
redata: Charge density info will appear in .RHO file
redata: Write Mulliken Pop.              =     NO
redata: Mesh Cutoff                      =   200.0000  Ry
redata: Net charge of the system         =     0.0000 |e|
redata: Max. number of SCF Iter          =      500
redata: SCF convergence failure will abort job
redata: Performing Pulay mixing using    =    10 iterations
redata: Mix DM in first SCF step ?       =     F
redata: Write Pulay info on disk?        =     F
redata: Discard 1st Pulay DM after  kick =     F
redata: New DM Mixing Weight             =     0.0500
redata: New DM Occupancy tolerance       = 0.000000000001
redata: No kicks to SCF
redata: DM Mixing Weight for Kicks       =     0.5000
redata: DM Tolerance for SCF             =     0.000100
redata: Require Energy convergence for SCF =     F
redata: DM Energy tolerance for SCF      =     0.000100 eV
redata: Require Harris convergence for SCF =     F
redata: DM Harris energy tolerance for SCF =     0.000100 eV
redata: Using Saved Data (generic)   =     F
redata: Use continuation files for DM    =     T
redata: Neglect nonoverlap interactions  =     F
redata: Method of Calculation            =     Diagonalization
redata: Divide and Conquer               =     T
redata: Electronic Temperature           =     0.0019  Ry
redata: Fix the spin of the system       =     F
redata: Dynamics option                  =     Verlet MD run
redata: Initial MD time step             =        1
redata:   Final MD time step             =        1
redata: Length of MD time step           =     1.0000  fs
redata: Initial Temperature of MD run    =     0.0000  K
redata: Perform a MD quench              =     F
redata: ***********************************************************************
Total number of electrons:   313.000000
Total ionic charge:   313.000000

* ProcessorY, Blocksize:    2  24

k-point displ. along   1 input, could be:     0.50    0.00
k-point displ. along   2 input, could be:     0.50    0.00
 Kpoints in:          231 . Kpoints trimmed:          231

siesta: k-grid: Number of k-points =   231
siesta: k-grid: Cutoff (effective) =     5.000 Ang
siesta: k-grid: Supercell and displacements
siesta: k-grid:   21   0   0      0.500
siesta: k-grid:    0  21   0      0.500
siesta: k-grid:    0   0   1      0.000
Naive supercell factors:     2    2    2

superc: Internal auxiliary supercell:     2 x     2 x     2  =       8
superc: Number of atoms, orbitals, and projectors:    576   7488   9216

* Maximum dynamic memory allocated =     4 MB

siesta:                 ==============================
                            Begin MD step =      1
                        ==============================

superc: Internal auxiliary supercell:     2 x     2 x     2  =       8
superc: Number of atoms, orbitals, and projectors:    576   7488   9216

outcell: Unit cell vectors (Ang):
       12.804619    7.392750    0.000000
        0.000000   14.785500    0.000000
        0.000000    0.000000   10.000000

outcell: Cell vector modules (Ang)   :   14.785500   14.785500   10.000000
outcell: Cell angles (23,13,12) (deg):     90.0000     90.0000     60.0000
outcell: Cell volume (Ang**3)        :   1893.2269
New_DM. Step:     1
Initializing Density Matrix...

InitMesh: MESH =   120 x   120 x    90 =     1296000
InitMesh: Mesh cutoff (required, used) =   200.000   223.865 Ry

* Maximum dynamic memory allocated =   180 MB

stepf: Fermi-Dirac step function

siesta: Program's energy decomposition (eV):
siesta: Ebs     =     -6409.275868
siesta: Eions   =     22421.682175
siesta: Ena     =      4992.431974
siesta: Ekin    =      8476.244847
siesta: Enl     =      -104.779548
siesta: DEna    =        -0.000015
siesta: DUscf   =         0.000000
siesta: DUext   =         0.000000
siesta: Exc     =     -4808.433845
siesta: eta*DQ  =         0.000000
siesta: Emadel  =         0.000000
siesta: Emeta   =         0.000000
siesta: Emolmec =         0.000000
siesta: Ekinion =         0.000000
siesta: Eharris =    -13452.235870
siesta: Etot    =    -13866.218763
siesta: FreeEng =    -13866.218763

siesta: iscf   Eharris(eV)      E_KS(eV)   FreeEng(eV)   dDmax  Ef(eV)
siesta:    1   -13452.2359   -13866.2188   -13866.2188  5.1779 -6.6598
timer: Routine,Calls,Time,% = IterSCF        1    4055.619  99.69
elaps: Routine,Calls,Wall,% = IterSCF        1     507.607  99.69
siesta:    2   -16380.2519   -12937.5103   -12937.5480  9.6364 -2.5697
siesta:    3   -13379.8116   -13589.5218   -13589.5588  1.7571 -4.2474
siesta:    4   -13348.6147   -13487.4550   -13487.4951  1.1094 -3.8319
siesta:    5   -13307.3789   -13426.9654   -13427.0051  0.7365 -3.7602
siesta:    6   -13303.0913   -13408.5989   -13408.6395  0.7144 -3.7380
siesta:    7   -13297.8033   -13388.2384   -13388.3033  0.6305 -3.7097
siesta:    8   -13296.1327   -13373.7588   -13373.7883  0.5646 -3.6917
siesta:    9   -13298.3822   -13335.6791   -13335.7209  0.4949 -3.6749
siesta:   10   -13297.0702   -13319.6245   -13319.6652  0.2567 -3.8209
siesta:   11   -13295.7310   -13307.3827   -13307.4146  0.2060 -3.7022
siesta:   12   -13295.2832   -13292.9261   -13292.9786  0.1795 -3.6568
siesta:   13   -13294.8238   -13289.4196   -13289.5112  0.1790 -3.6457
siesta:   14   -13294.6498   -13289.6444   -13289.7304  0.2668 -3.6644
siesta:   15   -13294.3391   -13288.4709   -13288.5167  0.0612 -3.7018
siesta:   16   -13294.2630   -13288.9271   -13289.0142  0.0648 -3.6943
siesta:   17   -13294.2119   -13289.9841   -13290.0803  0.0435 -3.6951
siesta:   18   -13294.2080   -13290.5730   -13290.6691  0.0702 -3.6948
siesta:   19   -13294.2043   -13291.1601   -13291.2526  0.0716 -3.6950
siesta:   20   -13294.2174   -13291.8359   -13291.9310  0.0968 -3.6918
siesta:   21   -13294.1909   -13293.3184   -13293.4014  0.0297 -3.6919
siesta:   22   -13294.1908   -13294.0793   -13294.1720  0.0436 -3.6884
siesta:   23   -13294.1837   -13294.1085   -13294.2010  0.0106 -3.6881
siesta:   24   -13294.1837   -13294.1228   -13294.2187  0.0103 -3.6868
siesta:   25   -13294.1817   -13294.2280   -13294.3235  0.0039 -3.6842
siesta:   26   -13294.1828   -13294.2622   -13294.3592  0.0072 -3.6850
siesta:   27   -13294.1820   -13294.2869   -13294.3827  0.0021 -3.6846
siesta:   28   -13294.1819   -13294.2795   -13294.3761  0.0014 -3.6844
siesta:   29   -13294.1821   -13294.2160   -13294.3126  0.0017 -3.6845
siesta:   30   -13294.1820   -13294.2029   -13294.2994  0.0010 -3.6845
siesta:   31   -13294.1820   -13294.1795   -13294.2760  0.0003 -3.6847
siesta:   32   -13294.1820   -13294.1748   -13294.2713  0.0003 -3.6848
siesta:   33   -13294.1820   -13294.1773   -13294.2738  0.0004 -3.6849
siesta:   34   -13294.1820   -13294.1800   -13294.2765  0.0002 -3.6849
siesta:   35   -13294.1820   -13294.1820   -13294.2785  0.0001 -3.6850

siesta: E_KS(eV) =           -13294.1810

siesta: E_KS - E_eggbox =    -13294.1810

siesta: Atomic forces (eV/Ang):
----------------------------------------
   Tot   -0.024646   -0.123311    0.000000
----------------------------------------
   Max  689.864941
   Res  187.573578    sqrt( Sum f_i^2 / 3N )
----------------------------------------
   Max  689.864941    constrained

Stress-tensor-Voigt (kbar):     -636.20    -3380.82       -0.02       18.07        0.00        0.00
(Free)E + p*V (eV/cell)   -11712.0373
Target enthalpy (eV/cell)   -13294.2775

siesta: Stress tensor (static) (eV/Ang**3):
        -0.397081    0.011281    0.000000
         0.011281   -2.110117    0.000000
         0.000000    0.000000   -0.000013

siesta: Pressure (static):       1339.01310493  kBar

siesta: Stress tensor (total) (eV/Ang**3):
        -0.397081    0.011281    0.000000
         0.011281   -2.110117    0.000000
         0.000000    0.000000   -0.000013

siesta: Pressure (total):       1339.01310493  kBar

siesta: Temp_ion =       0.000 K

* Maximum dynamic memory allocated =   196 MB
Computing bands...

siesta: Program's energy decomposition (eV):
siesta: Ebs     =     -5186.981230
siesta: Eions   =     22421.682175
siesta: Ena     =      4992.431974
siesta: Ekin    =     11697.683924
siesta: Enl     =     -1860.911864
siesta: DEna    =      -828.098726
siesta: DUscf   =       116.445937
siesta: DUext   =         0.000000
siesta: Exc     =     -4990.050027
siesta: eta*DQ  =         0.000000
siesta: Emadel  =         0.000000
siesta: Emeta   =         0.000000
siesta: Emolmec =         0.000000
siesta: Ekinion =         0.000000
siesta: Eharris =    -13294.182013
siesta: Etot    =    -13294.180957
siesta: FreeEng =    -13294.277466

siesta: Final energy (eV):
siesta:  Band Struct. =   -5186.981230
siesta:       Kinetic =   11697.683924
siesta:       Hartree =   37676.899570
siesta:    Ext. field =       0.000000
siesta:   Exch.-corr. =   -4990.050027
siesta:  Ion-electron =  -86555.483420
siesta:       Ion-ion =   28876.768996
siesta:       Ekinion =       0.000000
siesta:         Total =  -13294.180957

siesta: Atomic forces (eV/Ang):
siesta:      1    0.427518  647.045483    0.000000
siesta:      2   -0.634672  110.690660    0.000000
siesta:      3  -17.404589 -664.025052    0.000000
siesta:      4    1.710580    2.440797    0.000000
siesta:      5   -1.067341   -1.919959    0.000000
siesta:      6  -27.772219    4.740235    0.000000
siesta:      7  -22.272333 -657.796311    0.000000
siesta:      8  -27.011951  653.669765    0.000000
siesta:      9    4.308388 -111.498069    0.000000
siesta:     10   -0.597501  665.475259    0.000000
siesta:     11   -0.015700 -107.285933    0.000000
siesta:     12    5.628566  677.970359    0.000000
siesta:     13   33.821936   -4.797460    0.000000
siesta:     14    2.562314    1.894813    0.000000
siesta:     15   -2.635077    2.402757    0.000000
siesta:     16    1.392672   -0.175351    0.000000
siesta:     17   -1.966762   -0.001143    0.000000
siesta:     18    1.726665    3.221496    0.000000
siesta:     19   -0.111830   -2.120896    0.000000
siesta:     20    2.959693   -0.317817    0.000000
siesta:     21   -1.154832    0.326760    0.000000
siesta:     22    2.052018   -0.501006    0.000000
siesta:     23   -1.165553   -3.398842    0.000000
siesta:     24   -1.998471  110.665610    0.000000
siesta:     25    4.697426 -648.917807    0.000000
siesta:     26   -0.095841 -117.778802    0.000000
siesta:     27    0.149749  117.754535    0.000000
siesta:     28   14.281178 -661.944944    0.000000
siesta:     29   25.492236    5.349304    0.000000
siesta:     30   32.043387 -550.223117    0.000000
siesta:     31    1.213488   -0.199783    0.000000
siesta:     32   -2.130539    0.690899    0.000000
siesta:     33   12.786355  548.684002    0.000000
siesta:     34    0.697360 -130.678128    0.000000
siesta:     35   29.993902  550.454039    0.000000
siesta:     36   27.135392   -7.920024    0.000000
siesta:     37   -2.621586   -0.324178    0.000000
siesta:     38    2.235555   -0.942850    0.000000
siesta:     39   -1.457015    0.111063    0.000000
siesta:     40    0.666933   -0.989771    0.000000
siesta:     41   -0.740910    3.821610    0.000000
siesta:     42   -1.170541   -2.072786    0.000000
siesta:     43  -24.955287  662.634730    0.000000
siesta:     44  -27.876552   -2.493317    0.000000
siesta:     45   -5.667166  689.864941    0.000000
siesta:     46  -25.946767   -1.572602    0.000000
siesta:     47  -15.502375  685.336750    0.000000
siesta:     48    0.962915   -0.038737    0.000000
siesta:     49    1.571668   -1.652849    0.000000
siesta:     50    1.667950    0.523063    0.000000
siesta:     51    3.204285   -1.299652    0.000000
siesta:     52   -2.072596   -0.146788    0.000000
siesta:     53    1.942598    2.710709    0.000000
siesta:     54   -0.406933    0.470804    0.000000
siesta:     55   -0.347447    0.115480    0.000000
siesta:     56   -0.436543    0.311000    0.000000
siesta:     57   -0.041904    0.144530    0.000000
siesta:     58   -1.501978    0.478620    0.000000
siesta:     59    0.018681    0.434515    0.000000
siesta:     60   -0.722734    0.445462    0.000000
siesta:     61    0.270955   -0.577703    0.000000
siesta:     62   -0.694525   -3.765827    0.000000
siesta:     63   -0.256629   -0.032496    0.000000
siesta:     64    1.184950 -679.519922    0.000000
siesta:     65   -1.174266   -0.295337    0.000000
siesta:     66   -0.099725   -1.785456    0.000000
siesta:     67   23.625417    6.762089    0.000000
siesta:     68   16.199842 -560.703498    0.000000
siesta:     69  -25.291268    8.808566    0.000000
siesta:     70    1.784263 -689.443013    0.000000
siesta:     71    0.495270  126.703775    0.000000
siesta:     72  -13.916792 -674.120563    0.000000
siesta: ----------------------------------------
siesta:    Tot   -0.024646   -0.123311    0.000000

siesta: Stress tensor (static) (eV/Ang**3):
siesta:    -0.397081    0.011281    0.000000
siesta:     0.011281   -2.110117    0.000000
siesta:     0.000000    0.000000   -0.000013

siesta: Cell volume =       1893.226884 Ang**3

siesta: Pressure (static):
siesta:                Solid            Molecule  Units
siesta:           0.00910225          0.15025966  Ry/Bohr**3
siesta:           0.83573721         13.79633124  eV/Ang**3
siesta:        1339.01310493      22104.39846852  kBar
(Free)E+ p_basis*V_orbitals  =      -13267.113938
(Free)Eharris+ p_basis*V_orbitals  =      -13267.113930

siesta: Electric dipole (a.u.)  =    0.000000    0.000000    0.000000
siesta: Electric dipole (Debye) =    0.000000    0.000000    0.000000

* Maximum dynamic memory allocated : Node    0 =   196 MB
* Maximum dynamic memory allocated : Node    1 =    70 MB
* Maximum dynamic memory allocated : Node    2 =    71 MB
* Maximum dynamic memory allocated : Node    3 =   186 MB
* Maximum dynamic memory allocated : Node    4 =   184 MB
* Maximum dynamic memory allocated : Node    5 =    70 MB
* Maximum dynamic memory allocated : Node    6 =    72 MB
* Maximum dynamic memory allocated : Node    7 =   169 MB

* Maximum memory occured during matrixMtoO                    

timer: CPU execution times:
timer:  Routine       Calls   Time/call    Tot.time        %
timer:  siesta            1  140127.619  140127.619   100.00
timer:  Setup             1       4.172       4.172     0.00
timer:  bands             3     268.783     806.350     0.58
timer:  writewave         1       0.040       0.040     0.00
timer:  KSV_init          1       0.007       0.007     0.00
timer:  IterMD            1  139311.406  139311.406    99.42
timer:  hsparse           1       0.230       0.230     0.00
timer:  overlap           1       7.720       7.720     0.01
timer:  IterSCF          35    3975.706  139149.724    99.30
timer:  kinefsm           2       3.952       7.904     0.01
timer:  nlefsm            2      18.438      36.876     0.03
timer:  DHSCF            36      82.927    2985.364     2.13
timer:  DHSCF1            1       0.770       0.770     0.00
timer:  DHSCF2            1      32.497      32.497     0.02
timer:  REORD           290       0.010       2.906     0.00
timer:  POISON           37       2.241      82.921     0.06
timer:  DHSCF3           36      81.144    2921.189     2.08
timer:  rhoofd           36      16.262     585.428     0.42
timer:  cellXC           36       3.524     126.856     0.09
timer:  vmat             36      38.536    1387.287     0.99
timer:  MolMec            2       0.000       0.000     0.00
timer:  diagon           35    3891.184  136191.440    97.19
timer:  c-eigval       8206       6.663   54679.142    39.02
timer:  c-buildHS      8206       0.111     908.502     0.65
timer:  cdiag         16291       6.822  111130.694    79.31
timer:  cdiag1        16291       0.425    6918.665     4.94
timer:  cdiag2        16291       1.914   31177.326    22.25
timer:  cdiag3        16291       3.940   64185.020    45.80
timer:  cdiag4        16291       0.204    3324.817     2.37
timer:  c-eigvec       8085       7.164   57923.719    41.34
timer:  c-buildD       8085       3.012   24349.185    17.38
timer:  DHSCF4            1      28.977      28.977     0.02
timer:  dfscf             1      27.211      27.211     0.02
timer:  overfsm           1       0.398       0.398     0.00
timer:  optical           1       4.990       4.990     0.00
  

elaps: ELAPSED times:
elaps:  Routine       Calls   Time/call    Tot.time        %
elaps:  siesta            1   17534.924   17534.924   100.00
elaps:  Setup             1       0.545       0.545     0.00
elaps:  bands             3      33.650     100.950     0.58
elaps:  writewave         1       0.005       0.005     0.00
elaps:  KSV_init          1       0.001       0.001     0.00
elaps:  IterMD            1   17432.770   17432.770    99.42
elaps:  hsparse           1       0.031       0.031     0.00
elaps:  overlap           1       0.962       0.962     0.01
elaps:  IterSCF          35     497.505   17412.663    99.30
elaps:  kinefsm           2       0.494       0.988     0.01
elaps:  nlefsm            2       2.268       4.535     0.03
elaps:  DHSCF            36      10.483     377.403     2.15
elaps:  DHSCF1            1       0.096       0.096     0.00
elaps:  DHSCF2            1       4.069       4.069     0.02
elaps:  REORD           290       0.001       0.384     0.00
elaps:  POISON           37       0.280      10.374     0.06
elaps:  DHSCF3           36      10.152     365.461     2.08
elaps:  rhoofd           36       4.495     161.810     0.92
elaps:  cellXC           36       0.440      15.849     0.09
elaps:  vmat             36       4.821     173.556     0.99
elaps:  MolMec            2       0.000       0.000     0.00
elaps:  diagon           35     486.933   17042.639    97.19
elaps:  c-eigval       8206       0.834    6841.439    39.02
elaps:  c-buildHS      8206       0.015     122.420     0.70
elaps:  cdiag         16291       0.845   13772.983    78.55
elaps:  cdiag1        16291       0.053     859.318     4.90
elaps:  cdiag2        16291       0.239    3901.162    22.25
elaps:  cdiag3        16291       0.494    8041.475    45.86
elaps:  cdiag4        16291       0.026     423.264     2.41
elaps:  c-eigvec       8085       0.884    7145.168    40.75
elaps:  c-buildD       8085       0.390    3150.271    17.97
elaps:  DHSCF4            1       7.519       7.519     0.04
elaps:  dfscf             1       7.143       7.143     0.04
elaps:  overfsm           1       0.049       0.049     0.00
elaps:  optical           1       0.001       0.001     0.00
  
>> End of run:  22-APR-2016   9:13:49
