Siesta Version:                                        siesta-3.2-pl-3
Architecture  : x86_64-unknown-linux-gnu--unknown
Compiler flags: mpiifort -g -O2 -fPIC -xSSE4.1 -fp-model source -shared-intel 
PARALLEL version

* Running on    8 nodes in parallel
>> Start of run:  29-APR-2016  19:44:08

                           ***********************       
                           *  WELCOME TO SIESTA  *       
                           ***********************       

reinit: Reading from standard input
************************** Dump of input data file ****************************
#(1) General system descriptors
SystemName            GRP_doping    # Descriptive name of the system
SystemLabel           GRP_doping    # Short name for naming files
%include STRUCT.fdf
%include KPT.fdf
%include BASIS.fdf
#%include TS.fdf # for transiesta calculation
#(4) DFT, Grid, SCF
XC.functional         GGA           # LDA or GGA (default = LDA)
XC.authors            PBE           # CA (Ceperley-Aldr) = PZ
                                    #    (Perdew-Zunger) - LDA - Default
                                    # PW92 (Perdew-Wang-92) - LDA
                                    # PBE (Perdew-Burke-Ernzerhof) - GGA
MeshCutoff            200.000000    Ry      # Default: 50.0 Ry ~ 0.444 Bohr
                                    #         100.0 Ry ~ 0.314 Bohr
MaxSCFIterations      500           # Default: 50
DM.MixingWeight       0.05          # Default: 0.25
DM.NumberPulay        10            # Default: 0
DM.PulayOnFile        F             # SystemLabel.P1, SystemLabel.P2
DM.Tolerance          1.d-4         # Default: 1.d-4
DM.UseSaveDM          .true.        # because of the bug
SCFMustConverge       .true.
NeglNonOverlapInt     F             # Default: F
#(5) Eigenvalue problem: order-N or diagonalization
SolutionMethod        Diagon        # or Transiesta
ElectronicTemperature 300.0 K       # Default: 300.0 K
#(6) Molecular dynamics and relaxations
#MD.TypeOfRun          CG            # Type of dynamics:
#MD.VariableCell       F
#MD.NumCGsteps         0           # 0 for single-point / 100 for gopt
#MD.MaxCGDispl         0.2 Bohr      # Default: 0.2 Bohr
#MD.MaxForceTol        0.02 eV/Ang   # Default: 0.04 eV/Ang
#MD.MaxStressTol       1.0 GPa       # Default: 1.0 GPa
# Geometry Constraints
#%block GeometryConstraints
#	position from 1 to 44
#%endblock GeometryConstraints
BandLinesScale   pi/a
%block BandLines
 1   0.00000000  0.00000000  0.00000000
50   0.00000000  0.07809418  0.00000000
50   0.04509075  0.07809242  0.00000000
20   0.00000000  0.00000000  0.00000000
%endblock BandLines
************************** End of input data file *****************************

reinit: -----------------------------------------------------------------------
reinit: System Name: GRP_doping
reinit: -----------------------------------------------------------------------
reinit: System Label: GRP_doping                                                  
reinit: -----------------------------------------------------------------------

initatom: Reading input for the pseudopotentials and atomic orbitals ----------
 Species number:            1  Label: N Atomic number:           7
 Species number:            2  Label: C Atomic number:           6
Ground state valence configuration:   2s02  2p03
Reading pseudopotential information in formatted form from N.psf

Valence configuration for pseudopotential generation:
2s( 2.00) rc: 1.48
2p( 3.00) rc: 1.48
3d( 0.00) rc: 1.48
4f( 0.00) rc: 1.48
Ground state valence configuration:   2s02  2p02
Reading pseudopotential information in formatted form from C.psf

Valence configuration for pseudopotential generation:
2s( 2.00) rc: 1.54
2p( 2.00) rc: 1.54
3d( 0.00) rc: 1.54
4f( 0.00) rc: 1.54
For N, standard SIESTA heuristics set lmxkb to 3
 (one more than the basis l, including polarization orbitals).
Use PS.lmax or PS.KBprojectors blocks to override.
For C, standard SIESTA heuristics set lmxkb to 3
 (one more than the basis l, including polarization orbitals).
Use PS.lmax or PS.KBprojectors blocks to override.

<basis_specs>
===============================================================================
N                    Z=   7    Mass=  14.010        Charge= 0.17977+309
Lmxo=1 Lmxkb= 3    BasisType=split      Semic=F
L=0  Nsemic=0  Cnfigmx=2
          n=1  nzeta=2  polorb=0
            splnorm:   0.15000    
               vcte:    0.0000    
               rinn:    0.0000    
                rcs:    0.0000      0.0000    
            lambdas:    1.0000      1.0000    
L=1  Nsemic=0  Cnfigmx=2
          n=1  nzeta=2  polorb=1
            splnorm:   0.15000    
               vcte:    0.0000    
               rinn:    0.0000    
                rcs:    0.0000      0.0000    
            lambdas:    1.0000      1.0000    
-------------------------------------------------------------------------------
L=0  Nkbl=1  erefs: 0.17977+309
L=1  Nkbl=1  erefs: 0.17977+309
L=2  Nkbl=1  erefs: 0.17977+309
L=3  Nkbl=1  erefs: 0.17977+309
===============================================================================
</basis_specs>

atom: Called for N                     (Z =   7)

read_vps: Pseudopotential generation method:
read_vps: ATM3      Troullier-Martins                       
Total valence charge:    5.00000

read_vps: Pseudopotential includes a core correction:
read_vps: Pseudo-core for xc-correction

xc_check: Exchange-correlation functional:
xc_check: GGA Perdew, Burke & Ernzerhof 1996
V l=0 = -2*Zval/r beyond r=  1.4606
V l=1 = -2*Zval/r beyond r=  1.4606
V l=2 = -2*Zval/r beyond r=  1.4606
V l=3 = -2*Zval/r beyond r=  1.4606
All V_l potentials equal beyond r=  1.4606
This should be close to max(r_c) in ps generation
All pots = -2*Zval/r beyond r=  1.4606

VLOCAL1: 99.0% of the norm of Vloc inside     20.347 Ry
VLOCAL1: 99.9% of the norm of Vloc inside     46.372 Ry
atom: Maximum radius for 4*pi*r*r*local-pseudopot. charge    1.76189
atom: Maximum radius for r*vlocal+2*Zval:    1.53550
GHOST: No ghost state for L =  0
GHOST: No ghost state for L =  1
GHOST: No ghost state for L =  2
GHOST: No ghost state for L =  3

KBgen: Kleinman-Bylander projectors: 
   l= 0   rc=  1.634559   el= -1.363963   Ekb=  5.296955   kbcos=  0.335621
   l= 1   rc=  1.614250   el= -0.521451   Ekb= -5.259161   kbcos= -0.433408
   l= 2   rc=  1.718383   el=  0.001991   Ekb= -1.271464   kbcos= -0.007566
   l= 3   rc=  1.761893   el=  0.003093   Ekb= -0.494769   kbcos= -0.001015

KBgen: Total number of  Kleinman-Bylander projectors:   16
atom: -------------------------------------------------------------------------

atom: SANKEY-TYPE ORBITALS:
atom: Selected multiple-zeta basis: split     

SPLIT: Orbitals with angular momentum L= 0

SPLIT: Basis orbitals for state 2s

SPLIT: PAO cut-off radius determined from an
SPLIT: energy shift=  0.007350 Ry

   izeta = 1
                 lambda =    1.000000
                     rc =    4.071465
                 energy =   -1.356470
                kinetic =    1.176977
    potential(screened) =   -2.533447
       potential(ionic) =   -8.057990

   izeta = 2
                 rmatch =    2.905100
              splitnorm =    0.150000
                 energy =   -1.158343
                kinetic =    1.813009
    potential(screened) =   -2.971352
       potential(ionic) =   -8.901931

SPLIT: Orbitals with angular momentum L= 1

SPLIT: Basis orbitals for state 2p

SPLIT: PAO cut-off radius determined from an
SPLIT: energy shift=  0.007350 Ry

   izeta = 1
                 lambda =    1.000000
                     rc =    4.972977
                 energy =   -0.513884
                kinetic =    3.441732
    potential(screened) =   -3.955616
       potential(ionic) =   -9.287901

   izeta = 2
                 rmatch =    3.054066
              splitnorm =    0.150000
                 energy =   -0.318226
                kinetic =    5.125348
    potential(screened) =   -5.443573
       potential(ionic) =  -11.380999

POLgen: Perturbative polarization orbital with L=  2

POLgen: Polarization orbital for state 2p

   izeta = 1
                     rc =    4.972977
                 energy =    1.607437
                kinetic =    3.268125
    potential(screened) =   -1.660688
       potential(ionic) =   -5.973652
atom: Total number of Sankey-type orbitals: 13

atm_pop: Valence configuration (for local Pseudopot. screening):
 2s( 2.00)                                                            
 2p( 3.00)                                                            
Vna: chval, zval:    5.00000   5.00000

Vna:  Cut-off radius for the neutral-atom potential:   4.972977
comcore: Pseudo-core radius Rcore=  1.554824

atom: _________________________________________________________________________

<basis_specs>
===============================================================================
C                    Z=   6    Mass=  12.010        Charge= 0.17977+309
Lmxo=1 Lmxkb= 3    BasisType=split      Semic=F
L=0  Nsemic=0  Cnfigmx=2
          n=1  nzeta=2  polorb=0
            splnorm:   0.15000    
               vcte:    0.0000    
               rinn:    0.0000    
                rcs:    0.0000      0.0000    
            lambdas:    1.0000      1.0000    
L=1  Nsemic=0  Cnfigmx=2
          n=1  nzeta=2  polorb=1
            splnorm:   0.15000    
               vcte:    0.0000    
               rinn:    0.0000    
                rcs:    0.0000      0.0000    
            lambdas:    1.0000      1.0000    
-------------------------------------------------------------------------------
L=0  Nkbl=1  erefs: 0.17977+309
L=1  Nkbl=1  erefs: 0.17977+309
L=2  Nkbl=1  erefs: 0.17977+309
L=3  Nkbl=1  erefs: 0.17977+309
===============================================================================
</basis_specs>

atom: Called for C                     (Z =   6)

read_vps: Pseudopotential generation method:
read_vps: ATM3      Troullier-Martins                       
Total valence charge:    4.00000

read_vps: Pseudopotential includes a core correction:
read_vps: Pseudo-core for xc-correction

xc_check: Exchange-correlation functional:
xc_check: GGA Perdew, Burke & Ernzerhof 1996
V l=0 = -2*Zval/r beyond r=  1.5227
V l=1 = -2*Zval/r beyond r=  1.5227
V l=2 = -2*Zval/r beyond r=  1.5227
V l=3 = -2*Zval/r beyond r=  1.5038
All V_l potentials equal beyond r=  1.5227
This should be close to max(r_c) in ps generation
All pots = -2*Zval/r beyond r=  1.5227

VLOCAL1: 99.0% of the norm of Vloc inside     18.722 Ry
VLOCAL1: 99.9% of the norm of Vloc inside     42.668 Ry
atom: Maximum radius for 4*pi*r*r*local-pseudopot. charge    1.83678
atom: Maximum radius for r*vlocal+2*Zval:    1.58088
GHOST: No ghost state for L =  0
GHOST: No ghost state for L =  1
GHOST: No ghost state for L =  2
GHOST: No ghost state for L =  3

KBgen: Kleinman-Bylander projectors: 
   l= 0   rc=  1.704034   el= -1.009801   Ekb=  5.335044   kbcos=  0.316824
   l= 1   rc=  1.704034   el= -0.388707   Ekb= -3.785862   kbcos= -0.366464
   l= 2   rc=  1.791422   el=  0.001971   Ekb= -0.970471   kbcos= -0.009212
   l= 3   rc=  1.859892   el=  0.003065   Ekb= -0.399525   kbcos= -0.001223

KBgen: Total number of  Kleinman-Bylander projectors:   16
atom: -------------------------------------------------------------------------

atom: SANKEY-TYPE ORBITALS:
atom: Selected multiple-zeta basis: split     

SPLIT: Orbitals with angular momentum L= 0

SPLIT: Basis orbitals for state 2s

SPLIT: PAO cut-off radius determined from an
SPLIT: energy shift=  0.007350 Ry

   izeta = 1
                 lambda =    1.000000
                     rc =    4.632753
                 energy =   -1.002270
                kinetic =    0.855760
    potential(screened) =   -1.858031
       potential(ionic) =   -5.417575

   izeta = 2
                 rmatch =    3.431921
              splitnorm =    0.150000
                 energy =   -0.867111
                kinetic =    1.300804
    potential(screened) =   -2.167915
       potential(ionic) =   -5.962684

SPLIT: Orbitals with angular momentum L= 1

SPLIT: Basis orbitals for state 2p

SPLIT: PAO cut-off radius determined from an
SPLIT: energy shift=  0.007350 Ry

   izeta = 1
                 lambda =    1.000000
                     rc =    5.658549
                 energy =   -0.381140
                kinetic =    2.399701
    potential(screened) =   -2.780841
       potential(ionic) =   -6.206085

   izeta = 2
                 rmatch =    3.653288
              splitnorm =    0.150000
                 energy =   -0.249149
                kinetic =    3.542762
    potential(screened) =   -3.791911
       potential(ionic) =   -7.581078

POLgen: Perturbative polarization orbital with L=  2

POLgen: Polarization orbital for state 2p

   izeta = 1
                     rc =    5.658549
                 energy =    1.109913
                kinetic =    2.304789
    potential(screened) =   -1.194876
       potential(ionic) =   -4.013592
atom: Total number of Sankey-type orbitals: 13

atm_pop: Valence configuration (for local Pseudopot. screening):
 2s( 2.00)                                                            
 2p( 2.00)                                                            
Vna: chval, zval:    4.00000   4.00000

Vna:  Cut-off radius for the neutral-atom potential:   5.658549
comcore: Pseudo-core radius Rcore=  1.791422

atom: _________________________________________________________________________

prinput: Basis input ----------------------------------------------------------

PAO.BasisType split     

%block ChemicalSpeciesLabel
    1    7 N                       # Species index, atomic number, species label
    2    6 C                       # Species index, atomic number, species label
%endblock ChemicalSpeciesLabel

%block PAO.Basis                 # Define Basis set
N                     2                    # Species label, number of l-shells
 n=2   0   2                         # n, l, Nzeta 
   4.071      2.905   
   1.000      1.000   
 n=2   1   2 P   1                   # n, l, Nzeta, Polarization, NzetaPol
   4.973      3.054   
   1.000      1.000   
C                     2                    # Species label, number of l-shells
 n=2   0   2                         # n, l, Nzeta 
   4.633      3.432   
   1.000      1.000   
 n=2   1   2 P   1                   # n, l, Nzeta, Polarization, NzetaPol
   5.659      3.653   
   1.000      1.000   
%endblock PAO.Basis

prinput: ----------------------------------------------------------------------

coor:   Atomic-coordinates input format  =     Fractional

siesta: Atomic coordinates (Bohr) and species
siesta:     -2.35420  38.89134   0.00000  1        1
siesta:     -2.35420  41.57980   0.00000  1        2
siesta:      2.30256  38.89134   0.00000  1        3
siesta:      2.30256  41.57980   0.00000  1        4
siesta:      6.95932  30.82560   0.00000  1        5
siesta:      9.28770  26.79272   0.00000  1        6
siesta:      9.28770  29.48119   0.00000  1        7
siesta:      6.95932  25.44831   0.00000  1        8
siesta:      4.63094  26.79272   0.00000  1        9
siesta:      4.63094  29.48119   0.00000  1       10
siesta:     -4.68258  26.79272   0.00000  1       11
siesta:     -4.68258  29.48119   0.00000  1       12
siesta:     -2.35420  30.82560   0.00000  1       13
siesta:     -2.35420  33.51406   0.00000  1       14
siesta:     -0.02582  34.85847   0.00000  1       15
siesta:     -0.02582  37.54693   0.00000  1       16
siesta:     -0.02582  42.92421   0.00000  1       17
siesta:     -0.02582   2.59549   0.00000  2       18
siesta:     -0.02582   5.28395   0.00000  2       19
siesta:      4.63094  34.85847   0.00000  2       20
siesta:      4.63094  37.54693   0.00000  2       21
siesta:      6.95932  33.51406   0.00000  2       22
siesta:     -4.68258  34.85847   0.00000  2       23
siesta:     -4.68258  37.54693   0.00000  2       24
siesta:      2.30256   6.62836   0.00000  2       25
siesta:      2.30256   9.31683   0.00000  2       26
siesta:      4.63094  10.66124   0.00000  2       27
siesta:      4.63094  13.34970   0.00000  2       28
siesta:      6.95932  14.69411   0.00000  2       29
siesta:      6.95932  17.38257   0.00000  2       30
siesta:      9.28770  18.72698   0.00000  2       31
siesta:      9.28770  21.41544   0.00000  2       32
siesta:     11.61608  22.75985   0.00000  2       33
siesta:     11.61608  25.44831   0.00000  2       34
siesta:     -2.35420   6.62836   0.00000  2       35
siesta:     -2.35420   9.31683   0.00000  2       36
siesta:     -0.02582  10.66124   0.00000  2       37
siesta:     -0.02582  13.34970   0.00000  2       38
siesta:      2.30256  14.69411   0.00000  2       39
siesta:      2.30256  17.38257   0.00000  2       40
siesta:      4.63094  18.72698   0.00000  2       41
siesta:      4.63094  21.41544   0.00000  2       42
siesta:      6.95932  22.75985   0.00000  2       43
siesta:     -4.68258  10.66124   0.00000  2       44
siesta:     -4.68258  13.34970   0.00000  2       45
siesta:     -2.35420  14.69411   0.00000  2       46
siesta:     -2.35420  17.38257   0.00000  2       47
siesta:     -0.02582  18.72698   0.00000  2       48
siesta:     -0.02582  21.41544   0.00000  2       49
siesta:      2.30256  22.75985   0.00000  2       50
siesta:      2.30256  25.44831   0.00000  2       51
siesta:     -7.01096  14.69411   0.00000  2       52
siesta:     -7.01096  17.38257   0.00000  2       53
siesta:     -4.68258  18.72698   0.00000  2       54
siesta:     -4.68258  21.41544   0.00000  2       55
siesta:     -2.35420  22.75985   0.00000  2       56
siesta:     -2.35420  25.44831   0.00000  2       57
siesta:     -9.33934  18.72698   0.00000  2       58
siesta:     -9.33934  21.41544   0.00000  2       59
siesta:     -7.01096  22.75985   0.00000  2       60
siesta:     -7.01096  25.44831   0.00000  2       61
siesta:    -11.66772  22.75985   0.00000  2       62
siesta:    -11.66772  25.44831   0.00000  2       63
siesta:     -9.33934  26.79272   0.00000  2       64
siesta:     -9.33934  29.48119   0.00000  2       65
siesta:     -0.02582  26.79272   0.00000  2       66
siesta:     -0.02582  29.48119   0.00000  2       67
siesta:      2.30256  30.82560   0.00000  2       68
siesta:      2.30256  33.51406   0.00000  2       69
siesta:     -7.01096  30.82560   0.00000  2       70
siesta:     -7.01096  33.51406   0.00000  2       71
siesta:     -0.02582  45.61267   0.00000  2       72

siesta: System type = slab      

initatomlists: Number of atoms, orbitals, and projectors:     72   936  1152

siesta: ******************** Simulation parameters ****************************
siesta:
siesta: The following are some of the parameters of the simulation.
siesta: A complete list of the parameters used, including default values,
siesta: can be found in file out.fdf
siesta:
redata: Non-Collinear-spin run           =     F
redata: SpinPolarized (Up/Down) run      =     F
redata: Number of spin components        =     1
redata: Long output                      =     F
redata: Number of Atomic Species         =        2
redata: Charge density info will appear in .RHO file
redata: Write Mulliken Pop.              =     NO
redata: Mesh Cutoff                      =   200.0000  Ry
redata: Net charge of the system         =     0.0000 |e|
redata: Max. number of SCF Iter          =      500
redata: SCF convergence failure will abort job
redata: Performing Pulay mixing using    =    10 iterations
redata: Mix DM in first SCF step ?       =     F
redata: Write Pulay info on disk?        =     F
redata: Discard 1st Pulay DM after  kick =     F
redata: New DM Mixing Weight             =     0.0500
redata: New DM Occupancy tolerance       = 0.000000000001
redata: No kicks to SCF
redata: DM Mixing Weight for Kicks       =     0.5000
redata: DM Tolerance for SCF             =     0.000100
redata: Require Energy convergence for SCF =     F
redata: DM Energy tolerance for SCF      =     0.000100 eV
redata: Require Harris convergence for SCF =     F
redata: DM Harris energy tolerance for SCF =     0.000100 eV
redata: Using Saved Data (generic)   =     F
redata: Use continuation files for DM    =     T
redata: Neglect nonoverlap interactions  =     F
redata: Method of Calculation            =     Diagonalization
redata: Divide and Conquer               =     T
redata: Electronic Temperature           =     0.0019  Ry
redata: Fix the spin of the system       =     F
redata: Dynamics option                  =     Verlet MD run
redata: Initial MD time step             =        1
redata:   Final MD time step             =        1
redata: Length of MD time step           =     1.0000  fs
redata: Initial Temperature of MD run    =     0.0000  K
redata: Perform a MD quench              =     F
redata: ***********************************************************************
Total number of electrons:   305.000000
Total ionic charge:   305.000000

* ProcessorY, Blocksize:    2  24

k-point displ. along   1 input, could be:     0.50    0.00
k-point displ. along   2 input, could be:     0.50    0.00
 Kpoints in:          231 . Kpoints trimmed:          231

siesta: k-grid: Number of k-points =   231
siesta: k-grid: Cutoff (effective) =     5.000 Ang
siesta: k-grid: Supercell and displacements
siesta: k-grid:   21   0   0      0.500
siesta: k-grid:    0  21   0      0.500
siesta: k-grid:    0   0   1      0.000
Naive supercell factors:     2    2    2

superc: Internal auxiliary supercell:     2 x     2 x     2  =       8
superc: Number of atoms, orbitals, and projectors:    576   7488   9216

* Maximum dynamic memory allocated =     4 MB

siesta:                 ==============================
                            Begin MD step =      1
                        ==============================

superc: Internal auxiliary supercell:     2 x     2 x     2  =       8
superc: Number of atoms, orbitals, and projectors:    576   7488   9216

outcell: Unit cell vectors (Ang):
       12.804619    7.392750    0.000000
        0.000000   14.785500    0.000000
        0.000000    0.000000   10.000000

outcell: Cell vector modules (Ang)   :   14.785500   14.785500   10.000000
outcell: Cell angles (23,13,12) (deg):     90.0000     90.0000     60.0000
outcell: Cell volume (Ang**3)        :   1893.2269
New_DM. Step:     1
Initializing Density Matrix...

InitMesh: MESH =   120 x   120 x    90 =     1296000
InitMesh: Mesh cutoff (required, used) =   200.000   223.865 Ry

* Maximum dynamic memory allocated =   185 MB

stepf: Fermi-Dirac step function

siesta: Program's energy decomposition (eV):
siesta: Ebs     =     -6234.557389
siesta: Eions   =     21135.707422
siesta: Ena     =      4896.974936
siesta: Ekin    =      7804.862351
siesta: Enl     =       119.996982
siesta: DEna    =        -0.000015
siesta: DUscf   =         0.000000
siesta: DUext   =         0.000000
siesta: Exc     =     -4601.310779
siesta: eta*DQ  =         0.000000
siesta: Emadel  =         0.000000
siesta: Emeta   =         0.000000
siesta: Emolmec =         0.000000
siesta: Ekinion =         0.000000
siesta: Eharris =    -12527.313148
siesta: Etot    =    -12915.183946
siesta: FreeEng =    -12915.183946

siesta: iscf   Eharris(eV)      E_KS(eV)   FreeEng(eV)   dDmax  Ef(eV)
siesta:    1   -12527.3131   -12915.1839   -12915.1839  6.1432 -6.8985
timer: Routine,Calls,Time,% = IterSCF        1    3386.980  99.70
elaps: Routine,Calls,Wall,% = IterSCF        1     424.183  99.70
siesta:    2   -14946.9567   -12076.2900   -12076.3516 10.8839 -1.7250
siesta:    3   -12417.0119   -12654.2616   -12654.2921  1.6532 -4.5626
siesta:    4   -12397.8917   -12548.2940   -12548.3533  0.8545 -3.9081
siesta:    5   -12382.2182   -12494.2577   -12494.3020  0.9280 -3.8626
siesta:    6   -12378.5520   -12482.1383   -12482.1652  0.8301 -3.9692
siesta:    7   -12377.1143   -12471.5992   -12471.6606  0.9031 -4.0007
siesta:    8   -12376.4443   -12428.9092   -12428.9478  0.6223 -4.1040
siesta:    9   -12375.3367   -12416.1466   -12416.1777  0.3881 -4.1233
siesta:   10   -12374.3609   -12405.0746   -12405.1114  0.4269 -4.1059
siesta:   11   -12374.2913   -12388.2466   -12388.3010  0.4280 -4.0068
siesta:   12   -12374.3845   -12373.5283   -12373.5841  0.3203 -3.9666
siesta:   13   -12373.9417   -12369.5191   -12369.5674  0.2324 -3.9800
siesta:   14   -12373.7136   -12369.1540   -12369.1998  0.2062 -4.0721
siesta:   15   -12373.5680   -12369.2534   -12369.3009  0.1351 -4.0979
siesta:   16   -12373.5079   -12370.5929   -12370.6501  0.0707 -4.0998
siesta:   17   -12373.5351   -12371.9391   -12371.9977  0.2063 -4.1081
siesta:   18   -12373.4809   -12373.1114   -12373.1614  0.1038 -4.1050
siesta:   19   -12373.4705   -12374.2532   -12374.3041  0.0517 -4.1006
siesta:   20   -12373.4783   -12375.1973   -12375.2496  0.1123 -4.1050
siesta:   21   -12373.4658   -12376.2462   -12376.2959  0.0424 -4.1110
siesta:   22   -12373.4651   -12376.7415   -12376.7953  0.0413 -4.1111
siesta:   23   -12373.4676   -12376.5052   -12376.5589  0.0282 -4.1043
siesta:   24   -12373.4659   -12375.4605   -12375.5140  0.0340 -4.1004
siesta:   25   -12373.4632   -12374.5706   -12374.6262  0.0340 -4.0872
siesta:   26   -12373.4628   -12374.4935   -12374.5476  0.0178 -4.0908
siesta:   27   -12373.4612   -12374.5332   -12374.5862  0.0052 -4.0907
siesta:   28   -12373.4612   -12374.2608   -12374.3147  0.0134 -4.0917
siesta:   29   -12373.4604   -12374.0220   -12374.0756  0.0028 -4.0925
siesta:   30   -12373.4604   -12373.7847   -12373.8390  0.0048 -4.0933
siesta:   31   -12373.4604   -12373.6677   -12373.7219  0.0019 -4.0933
siesta:   32   -12373.4603   -12373.6165   -12373.6707  0.0011 -4.0936
siesta:   33   -12373.4604   -12373.5547   -12373.6089  0.0007 -4.0936
siesta:   34   -12373.4604   -12373.5226   -12373.5768  0.0003 -4.0938
siesta:   35   -12373.4604   -12373.4941   -12373.5482  0.0002 -4.0938
siesta:   36   -12373.4604   -12373.4754   -12373.5295  0.0002 -4.0938
siesta:   37   -12373.4604   -12373.4600   -12373.5141  0.0002 -4.0938
siesta:   38   -12373.4604   -12373.4573   -12373.5115  0.0001 -4.0938

siesta: E_KS(eV) =           -12373.4579

siesta: E_KS - E_eggbox =    -12373.4579

siesta: Atomic forces (eV/Ang):
----------------------------------------
   Tot   -0.330318    0.087623    0.000000
----------------------------------------
   Max  681.132473
   Res  177.474046    sqrt( Sum f_i^2 / 3N )
----------------------------------------
   Max  681.132473    constrained

Stress-tensor-Voigt (kbar):     -607.29    -3221.40       -0.08        6.29        0.00        0.00
(Free)E + p*V (eV/cell)   -10865.4251
Target enthalpy (eV/cell)   -12373.5121

siesta: Stress tensor (static) (eV/Ang**3):
        -0.379037    0.003924    0.000000
         0.003925   -2.010619    0.000000
         0.000000    0.000000   -0.000053

siesta: Pressure (static):       1276.25897368  kBar

siesta: Stress tensor (total) (eV/Ang**3):
        -0.379037    0.003924    0.000000
         0.003925   -2.010619    0.000000
         0.000000    0.000000   -0.000053

siesta: Pressure (total):       1276.25897368  kBar

siesta: Temp_ion =       0.000 K

* Maximum dynamic memory allocated =   202 MB
Computing bands...

siesta: Program's energy decomposition (eV):
siesta: Ebs     =     -4965.351483
siesta: Eions   =     21135.707422
siesta: Ena     =      4896.974936
siesta: Ekin    =     10960.733251
siesta: Enl     =     -1608.150395
siesta: DEna    =      -816.639795
siesta: DUscf   =       110.285098
siesta: DUext   =         0.000000
siesta: Exc     =     -4780.953588
siesta: eta*DQ  =         0.000000
siesta: Emadel  =         0.000000
siesta: Emeta   =         0.000000
siesta: Emolmec =         0.000000
siesta: Ekinion =         0.000000
siesta: Eharris =    -12373.460355
siesta: Etot    =    -12373.457916
siesta: FreeEng =    -12373.512064

siesta: Final energy (eV):
siesta:  Band Struct. =   -4965.351483
siesta:       Kinetic =   10960.733251
siesta:       Hartree =   35909.462121
siesta:    Ext. field =       0.000000
siesta:   Exch.-corr. =   -4780.953588
siesta:  Ion-electron =  -82307.088441
siesta:       Ion-ion =   27844.388742
siesta:       Ekinion =       0.000000
siesta:         Total =  -12373.457916

siesta: Atomic forces (eV/Ang):
siesta:      1   -1.603027  108.494786    0.000000
siesta:      2  -21.834524 -656.119369    0.000000
siesta:      3    1.658934  106.907246    0.000000
siesta:      4   22.504120 -656.567219    0.000000
siesta:      5   -0.171839    1.221960    0.000000
siesta:      6    0.933694    1.897445    0.000000
siesta:      7    0.005626   -1.304543    0.000000
siesta:      8    0.082922   -0.981406    0.000000
siesta:      9   -0.300485   -0.696737    0.000000
siesta:     10   -0.508789   -3.145718    0.000000
siesta:     11    0.429371   -1.434855    0.000000
siesta:     12   -1.110578   -3.917745    0.000000
siesta:     13  -27.621450    5.104591    0.000000
siesta:     14   -6.750628 -673.652847    0.000000
siesta:     15    3.052046  109.265416    0.000000
siesta:     16   -0.988281 -665.760481    0.000000
siesta:     17   -0.247963  127.953666    0.000000
siesta:     18  -16.581798  551.124678    0.000000
siesta:     19    0.848749 -123.434357    0.000000
siesta:     20   26.483817    4.904409    0.000000
siesta:     21   32.532515 -555.770868    0.000000
siesta:     22   -1.300051   -2.196346    0.000000
siesta:     23  -28.241164    8.502114    0.000000
siesta:     24  -31.151211 -556.137421    0.000000
siesta:     25    0.758154  548.572111    0.000000
siesta:     26    0.724291 -120.605347    0.000000
siesta:     27   18.300237  552.085008    0.000000
siesta:     28   26.968780   -3.834277    0.000000
siesta:     29   -2.917204   -1.334582    0.000000
siesta:     30    1.841204    0.000610    0.000000
siesta:     31   -1.525533   -0.032509    0.000000
siesta:     32    1.663729   -1.762611    0.000000
siesta:     33   -0.160821    5.719949    0.000000
siesta:     34   -1.707221   -2.548976    0.000000
siesta:     35  -14.053700  660.436740    0.000000
siesta:     36   -1.790982 -118.434432    0.000000
siesta:     37    0.095848  674.132836    0.000000
siesta:     38    0.501427 -117.203534    0.000000
siesta:     39    4.521797  681.132473    0.000000
siesta:     40   25.024152   -2.754679    0.000000
siesta:     41   -1.439019    2.695085    0.000000
siesta:     42    1.140595    0.330680    0.000000
siesta:     43   -0.596725    0.841062    0.000000
siesta:     44  -18.206348  552.718904    0.000000
siesta:     45  -27.241859   -3.583393    0.000000
siesta:     46   -5.179931  680.371420    0.000000
siesta:     47  -24.893697   -2.972368    0.000000
siesta:     48   -0.110695  567.533156    0.000000
siesta:     49    0.271288    2.189753    0.000000
siesta:     50   -0.364657    0.065336    0.000000
siesta:     51    0.732273    0.422928    0.000000
siesta:     52    3.477172   -1.593369    0.000000
siesta:     53   -1.936739    0.370255    0.000000
siesta:     54    1.473169    2.850835    0.000000
siesta:     55   -0.631793   -0.499195    0.000000
siesta:     56   -0.196371    0.010010    0.000000
siesta:     57   -1.013990    0.728723    0.000000
siesta:     58    1.478787    0.146615    0.000000
siesta:     59   -2.037396   -2.215520    0.000000
siesta:     60    0.809962    1.024383    0.000000
siesta:     61    0.499080   -0.258548    0.000000
siesta:     62    0.158954    7.725342    0.000000
siesta:     63    0.337966   -7.253563    0.000000
siesta:     64   -1.763557    1.896033    0.000000
siesta:     65    1.267812    0.606571    0.000000
siesta:     66    0.730467    0.342046    0.000000
siesta:     67   18.535002 -577.923792    0.000000
siesta:     68   24.064880    6.579412    0.000000
siesta:     69   20.875105 -565.166510    0.000000
siesta:     70   -1.677927    0.663827    0.000000
siesta:     71    2.597516   -0.072832    0.000000
siesta:     72    0.146197 -546.310843    0.000000
siesta: ----------------------------------------
siesta:    Tot   -0.330318    0.087623    0.000000

siesta: Stress tensor (static) (eV/Ang**3):
siesta:    -0.379037    0.003924    0.000000
siesta:     0.003925   -2.010619    0.000000
siesta:     0.000000    0.000000   -0.000053

siesta: Cell volume =       1893.226884 Ang**3

siesta: Pressure (static):
siesta:                Solid            Molecule  Units
siesta:           0.00867566          0.14117309  Ry/Bohr**3
siesta:           0.79656959         12.96203314  eV/Ang**3
siesta:        1276.25897368      20767.69109986  kBar
(Free)E+ p_basis*V_orbitals  =      -12345.204827
(Free)Eharris+ p_basis*V_orbitals  =      -12345.207843

siesta: Electric dipole (a.u.)  =    0.000000    0.000000    0.000000
siesta: Electric dipole (Debye) =    0.000000    0.000000    0.000000

* Maximum dynamic memory allocated : Node    0 =   202 MB
* Maximum dynamic memory allocated : Node    1 =    71 MB
* Maximum dynamic memory allocated : Node    2 =    73 MB
* Maximum dynamic memory allocated : Node    3 =   192 MB
* Maximum dynamic memory allocated : Node    4 =   190 MB
* Maximum dynamic memory allocated : Node    5 =    71 MB
* Maximum dynamic memory allocated : Node    6 =    73 MB
* Maximum dynamic memory allocated : Node    7 =   174 MB

* Maximum memory occured during matrixMtoO                    

timer: CPU execution times:
timer:  Routine       Calls   Time/call    Tot.time        %
timer:  siesta            1  126966.927  126966.927   100.00
timer:  Setup             1       2.699       2.699     0.00
timer:  bands             3     243.753     731.260     0.58
timer:  writewave         1       0.022       0.022     0.00
timer:  KSV_init          1       0.000       0.000     0.00
timer:  IterMD            1  126227.740  126227.740    99.42
timer:  hsparse           1       0.281       0.281     0.00
timer:  overlap           1       7.123       7.123     0.01
timer:  IterSCF          38    3317.834  126077.678    99.30
timer:  kinefsm           2       3.671       7.342     0.01
timer:  nlefsm            2      17.405      34.811     0.03
timer:  DHSCF            39      76.521    2984.300     2.35
timer:  DHSCF1            1       0.744       0.744     0.00
timer:  DHSCF2            1      30.657      30.657     0.02
timer:  REORD           314       0.005       1.502     0.00
timer:  POISON           40       0.867      34.689     0.03
timer:  DHSCF3           39      74.965    2923.628     2.30
timer:  rhoofd           39      15.960     622.436     0.49
timer:  cellXC           39       3.243     126.462     0.10
timer:  vmat             39      33.952    1324.121     1.04
timer:  MolMec            2       0.001       0.002     0.00
timer:  diagon           38    3240.506  123139.237    96.99
timer:  c-eigval       8899       6.025   53615.629    42.23
timer:  c-buildHS      8899       0.047     420.636     0.33
timer:  cdiag         17677       6.149  108703.823    85.62
timer:  cdiag1        17677       0.384    6794.570     5.35
timer:  cdiag2        17677       1.769   31269.037    24.63
timer:  cdiag3        17677       3.730   65943.160    51.94
timer:  cdiag4        17677       0.151    2665.771     2.10
timer:  c-eigvec       8778       6.362   55845.095    43.98
timer:  c-buildD       8778       1.636   14364.720    11.31
timer:  DHSCF4            1      28.536      28.536     0.02
timer:  dfscf             1      26.660      26.660     0.02
timer:  overfsm           1       0.379       0.379     0.00
timer:  optical           1       4.556       4.556     0.00
  

elaps: ELAPSED times:
elaps:  Routine       Calls   Time/call    Tot.time        %
elaps:  siesta            1   15900.511   15900.511   100.00
elaps:  Setup             1       0.339       0.339     0.00
elaps:  bands             3      30.543      91.629     0.58
elaps:  writewave         1       0.002       0.002     0.00
elaps:  KSV_init          1       0.000       0.000     0.00
elaps:  IterMD            1   15807.940   15807.940    99.42
elaps:  hsparse           1       0.037       0.037     0.00
elaps:  overlap           1       0.895       0.895     0.01
elaps:  IterSCF          38     415.504   15789.149    99.30
elaps:  kinefsm           2       0.462       0.923     0.01
elaps:  nlefsm            2       2.189       4.377     0.03
elaps:  DHSCF            39       9.680     377.503     2.37
elaps:  DHSCF1            1       0.095       0.095     0.00
elaps:  DHSCF2            1       3.837       3.837     0.02
elaps:  REORD           314       0.001       0.210     0.00
elaps:  POISON           40       0.109       4.363     0.03
elaps:  DHSCF3           39       9.389     366.161     2.30
elaps:  rhoofd           39       4.599     179.355     1.13
elaps:  cellXC           39       0.406      15.821     0.10
elaps:  vmat             39       4.252     165.833     1.04
elaps:  MolMec            2       0.000       0.000     0.00
elaps:  diagon           38     405.825   15421.332    96.99
elaps:  c-eigval       8899       0.755    6714.316    42.23
elaps:  c-buildHS      8899       0.006      57.703     0.36
elaps:  cdiag         17677       0.767   13560.444    85.28
elaps:  cdiag1        17677       0.048     848.768     5.34
elaps:  cdiag2        17677       0.222    3916.752    24.63
elaps:  cdiag3        17677       0.468    8268.817    52.00
elaps:  cdiag4        17677       0.019     328.998     2.07
elaps:  c-eigvec       8778       0.792    6948.483    43.70
elaps:  c-buildD       8778       0.210    1842.085    11.59
elaps:  DHSCF4            1       7.317       7.317     0.05
elaps:  dfscf             1       6.915       6.915     0.04
elaps:  overfsm           1       0.049       0.049     0.00
elaps:  optical           1       0.000       0.000     0.00
  
>> End of run:  30-APR-2016   0:09:08
