Siesta Version:                                        siesta-3.2-pl-3
Architecture  : x86_64-unknown-linux-gnu--unknown
Compiler flags: mpiifort -g -O2 -fPIC -xSSE4.1 -fp-model source -shared-intel 
PARALLEL version

* Running on    8 nodes in parallel
>> Start of run:  26-APR-2016   0:54:44

                           ***********************       
                           *  WELCOME TO SIESTA  *       
                           ***********************       

reinit: Reading from standard input
************************** Dump of input data file ****************************
#(1) General system descriptors
SystemName            GRP_doping    # Descriptive name of the system
SystemLabel           GRP_doping    # Short name for naming files
%include STRUCT.fdf
%include KPT.fdf
%include BASIS.fdf
#%include TS.fdf # for transiesta calculation
#(4) DFT, Grid, SCF
XC.functional         GGA           # LDA or GGA (default = LDA)
XC.authors            PBE           # CA (Ceperley-Aldr) = PZ
                                    #    (Perdew-Zunger) - LDA - Default
                                    # PW92 (Perdew-Wang-92) - LDA
                                    # PBE (Perdew-Burke-Ernzerhof) - GGA
MeshCutoff            200.000000    Ry      # Default: 50.0 Ry ~ 0.444 Bohr
                                    #         100.0 Ry ~ 0.314 Bohr
MaxSCFIterations      500           # Default: 50
DM.MixingWeight       0.05          # Default: 0.25
DM.NumberPulay        10            # Default: 0
DM.PulayOnFile        F             # SystemLabel.P1, SystemLabel.P2
DM.Tolerance          1.d-4         # Default: 1.d-4
DM.UseSaveDM          .true.        # because of the bug
SCFMustConverge       .true.
NeglNonOverlapInt     F             # Default: F
#(5) Eigenvalue problem: order-N or diagonalization
SolutionMethod        Diagon        # or Transiesta
ElectronicTemperature 300.0 K       # Default: 300.0 K
#(6) Molecular dynamics and relaxations
#MD.TypeOfRun          CG            # Type of dynamics:
#MD.VariableCell       F
#MD.NumCGsteps         0           # 0 for single-point / 100 for gopt
#MD.MaxCGDispl         0.2 Bohr      # Default: 0.2 Bohr
#MD.MaxForceTol        0.02 eV/Ang   # Default: 0.04 eV/Ang
#MD.MaxStressTol       1.0 GPa       # Default: 1.0 GPa
# Geometry Constraints
#%block GeometryConstraints
#	position from 1 to 44
#%endblock GeometryConstraints
BandLinesScale   pi/a
%block BandLines
 1   0.00000000  0.00000000  0.00000000
50   0.00000000  0.07809418  0.00000000
50   0.04509075  0.07809242  0.00000000
20   0.00000000  0.00000000  0.00000000
%endblock BandLines
************************** End of input data file *****************************

reinit: -----------------------------------------------------------------------
reinit: System Name: GRP_doping
reinit: -----------------------------------------------------------------------
reinit: System Label: GRP_doping                                                  
reinit: -----------------------------------------------------------------------

initatom: Reading input for the pseudopotentials and atomic orbitals ----------
 Species number:            1  Label: N Atomic number:           7
 Species number:            2  Label: C Atomic number:           6
Ground state valence configuration:   2s02  2p03
Reading pseudopotential information in formatted form from N.psf

Valence configuration for pseudopotential generation:
2s( 2.00) rc: 1.48
2p( 3.00) rc: 1.48
3d( 0.00) rc: 1.48
4f( 0.00) rc: 1.48
Ground state valence configuration:   2s02  2p02
Reading pseudopotential information in formatted form from C.psf

Valence configuration for pseudopotential generation:
2s( 2.00) rc: 1.54
2p( 2.00) rc: 1.54
3d( 0.00) rc: 1.54
4f( 0.00) rc: 1.54
For N, standard SIESTA heuristics set lmxkb to 3
 (one more than the basis l, including polarization orbitals).
Use PS.lmax or PS.KBprojectors blocks to override.
For C, standard SIESTA heuristics set lmxkb to 3
 (one more than the basis l, including polarization orbitals).
Use PS.lmax or PS.KBprojectors blocks to override.

<basis_specs>
===============================================================================
N                    Z=   7    Mass=  14.010        Charge= 0.17977+309
Lmxo=1 Lmxkb= 3    BasisType=split      Semic=F
L=0  Nsemic=0  Cnfigmx=2
          n=1  nzeta=2  polorb=0
            splnorm:   0.15000    
               vcte:    0.0000    
               rinn:    0.0000    
                rcs:    0.0000      0.0000    
            lambdas:    1.0000      1.0000    
L=1  Nsemic=0  Cnfigmx=2
          n=1  nzeta=2  polorb=1
            splnorm:   0.15000    
               vcte:    0.0000    
               rinn:    0.0000    
                rcs:    0.0000      0.0000    
            lambdas:    1.0000      1.0000    
-------------------------------------------------------------------------------
L=0  Nkbl=1  erefs: 0.17977+309
L=1  Nkbl=1  erefs: 0.17977+309
L=2  Nkbl=1  erefs: 0.17977+309
L=3  Nkbl=1  erefs: 0.17977+309
===============================================================================
</basis_specs>

atom: Called for N                     (Z =   7)

read_vps: Pseudopotential generation method:
read_vps: ATM3      Troullier-Martins                       
Total valence charge:    5.00000

read_vps: Pseudopotential includes a core correction:
read_vps: Pseudo-core for xc-correction

xc_check: Exchange-correlation functional:
xc_check: GGA Perdew, Burke & Ernzerhof 1996
V l=0 = -2*Zval/r beyond r=  1.4606
V l=1 = -2*Zval/r beyond r=  1.4606
V l=2 = -2*Zval/r beyond r=  1.4606
V l=3 = -2*Zval/r beyond r=  1.4606
All V_l potentials equal beyond r=  1.4606
This should be close to max(r_c) in ps generation
All pots = -2*Zval/r beyond r=  1.4606

VLOCAL1: 99.0% of the norm of Vloc inside     20.347 Ry
VLOCAL1: 99.9% of the norm of Vloc inside     46.372 Ry
atom: Maximum radius for 4*pi*r*r*local-pseudopot. charge    1.76189
atom: Maximum radius for r*vlocal+2*Zval:    1.53550
GHOST: No ghost state for L =  0
GHOST: No ghost state for L =  1
GHOST: No ghost state for L =  2
GHOST: No ghost state for L =  3

KBgen: Kleinman-Bylander projectors: 
   l= 0   rc=  1.634559   el= -1.363963   Ekb=  5.296955   kbcos=  0.335621
   l= 1   rc=  1.614250   el= -0.521451   Ekb= -5.259161   kbcos= -0.433408
   l= 2   rc=  1.718383   el=  0.001991   Ekb= -1.271464   kbcos= -0.007566
   l= 3   rc=  1.761893   el=  0.003093   Ekb= -0.494769   kbcos= -0.001015

KBgen: Total number of  Kleinman-Bylander projectors:   16
atom: -------------------------------------------------------------------------

atom: SANKEY-TYPE ORBITALS:
atom: Selected multiple-zeta basis: split     

SPLIT: Orbitals with angular momentum L= 0

SPLIT: Basis orbitals for state 2s

SPLIT: PAO cut-off radius determined from an
SPLIT: energy shift=  0.007350 Ry

   izeta = 1
                 lambda =    1.000000
                     rc =    4.071465
                 energy =   -1.356470
                kinetic =    1.176977
    potential(screened) =   -2.533447
       potential(ionic) =   -8.057990

   izeta = 2
                 rmatch =    2.905100
              splitnorm =    0.150000
                 energy =   -1.158343
                kinetic =    1.813009
    potential(screened) =   -2.971352
       potential(ionic) =   -8.901931

SPLIT: Orbitals with angular momentum L= 1

SPLIT: Basis orbitals for state 2p

SPLIT: PAO cut-off radius determined from an
SPLIT: energy shift=  0.007350 Ry

   izeta = 1
                 lambda =    1.000000
                     rc =    4.972977
                 energy =   -0.513884
                kinetic =    3.441732
    potential(screened) =   -3.955616
       potential(ionic) =   -9.287901

   izeta = 2
                 rmatch =    3.054066
              splitnorm =    0.150000
                 energy =   -0.318226
                kinetic =    5.125348
    potential(screened) =   -5.443573
       potential(ionic) =  -11.380999

POLgen: Perturbative polarization orbital with L=  2

POLgen: Polarization orbital for state 2p

   izeta = 1
                     rc =    4.972977
                 energy =    1.607437
                kinetic =    3.268125
    potential(screened) =   -1.660688
       potential(ionic) =   -5.973652
atom: Total number of Sankey-type orbitals: 13

atm_pop: Valence configuration (for local Pseudopot. screening):
 2s( 2.00)                                                            
 2p( 3.00)                                                            
Vna: chval, zval:    5.00000   5.00000

Vna:  Cut-off radius for the neutral-atom potential:   4.972977
comcore: Pseudo-core radius Rcore=  1.554824

atom: _________________________________________________________________________

<basis_specs>
===============================================================================
C                    Z=   6    Mass=  12.010        Charge= 0.17977+309
Lmxo=1 Lmxkb= 3    BasisType=split      Semic=F
L=0  Nsemic=0  Cnfigmx=2
          n=1  nzeta=2  polorb=0
            splnorm:   0.15000    
               vcte:    0.0000    
               rinn:    0.0000    
                rcs:    0.0000      0.0000    
            lambdas:    1.0000      1.0000    
L=1  Nsemic=0  Cnfigmx=2
          n=1  nzeta=2  polorb=1
            splnorm:   0.15000    
               vcte:    0.0000    
               rinn:    0.0000    
                rcs:    0.0000      0.0000    
            lambdas:    1.0000      1.0000    
-------------------------------------------------------------------------------
L=0  Nkbl=1  erefs: 0.17977+309
L=1  Nkbl=1  erefs: 0.17977+309
L=2  Nkbl=1  erefs: 0.17977+309
L=3  Nkbl=1  erefs: 0.17977+309
===============================================================================
</basis_specs>

atom: Called for C                     (Z =   6)

read_vps: Pseudopotential generation method:
read_vps: ATM3      Troullier-Martins                       
Total valence charge:    4.00000

read_vps: Pseudopotential includes a core correction:
read_vps: Pseudo-core for xc-correction

xc_check: Exchange-correlation functional:
xc_check: GGA Perdew, Burke & Ernzerhof 1996
V l=0 = -2*Zval/r beyond r=  1.5227
V l=1 = -2*Zval/r beyond r=  1.5227
V l=2 = -2*Zval/r beyond r=  1.5227
V l=3 = -2*Zval/r beyond r=  1.5038
All V_l potentials equal beyond r=  1.5227
This should be close to max(r_c) in ps generation
All pots = -2*Zval/r beyond r=  1.5227

VLOCAL1: 99.0% of the norm of Vloc inside     18.722 Ry
VLOCAL1: 99.9% of the norm of Vloc inside     42.668 Ry
atom: Maximum radius for 4*pi*r*r*local-pseudopot. charge    1.83678
atom: Maximum radius for r*vlocal+2*Zval:    1.58088
GHOST: No ghost state for L =  0
GHOST: No ghost state for L =  1
GHOST: No ghost state for L =  2
GHOST: No ghost state for L =  3

KBgen: Kleinman-Bylander projectors: 
   l= 0   rc=  1.704034   el= -1.009801   Ekb=  5.335044   kbcos=  0.316824
   l= 1   rc=  1.704034   el= -0.388707   Ekb= -3.785862   kbcos= -0.366464
   l= 2   rc=  1.791422   el=  0.001971   Ekb= -0.970471   kbcos= -0.009212
   l= 3   rc=  1.859892   el=  0.003065   Ekb= -0.399525   kbcos= -0.001223

KBgen: Total number of  Kleinman-Bylander projectors:   16
atom: -------------------------------------------------------------------------

atom: SANKEY-TYPE ORBITALS:
atom: Selected multiple-zeta basis: split     

SPLIT: Orbitals with angular momentum L= 0

SPLIT: Basis orbitals for state 2s

SPLIT: PAO cut-off radius determined from an
SPLIT: energy shift=  0.007350 Ry

   izeta = 1
                 lambda =    1.000000
                     rc =    4.632753
                 energy =   -1.002270
                kinetic =    0.855760
    potential(screened) =   -1.858031
       potential(ionic) =   -5.417575

   izeta = 2
                 rmatch =    3.431921
              splitnorm =    0.150000
                 energy =   -0.867111
                kinetic =    1.300804
    potential(screened) =   -2.167915
       potential(ionic) =   -5.962684

SPLIT: Orbitals with angular momentum L= 1

SPLIT: Basis orbitals for state 2p

SPLIT: PAO cut-off radius determined from an
SPLIT: energy shift=  0.007350 Ry

   izeta = 1
                 lambda =    1.000000
                     rc =    5.658549
                 energy =   -0.381140
                kinetic =    2.399701
    potential(screened) =   -2.780841
       potential(ionic) =   -6.206085

   izeta = 2
                 rmatch =    3.653288
              splitnorm =    0.150000
                 energy =   -0.249149
                kinetic =    3.542762
    potential(screened) =   -3.791911
       potential(ionic) =   -7.581078

POLgen: Perturbative polarization orbital with L=  2

POLgen: Polarization orbital for state 2p

   izeta = 1
                     rc =    5.658549
                 energy =    1.109913
                kinetic =    2.304789
    potential(screened) =   -1.194876
       potential(ionic) =   -4.013592
atom: Total number of Sankey-type orbitals: 13

atm_pop: Valence configuration (for local Pseudopot. screening):
 2s( 2.00)                                                            
 2p( 2.00)                                                            
Vna: chval, zval:    4.00000   4.00000

Vna:  Cut-off radius for the neutral-atom potential:   5.658549
comcore: Pseudo-core radius Rcore=  1.791422

atom: _________________________________________________________________________

prinput: Basis input ----------------------------------------------------------

PAO.BasisType split     

%block ChemicalSpeciesLabel
    1    7 N                       # Species index, atomic number, species label
    2    6 C                       # Species index, atomic number, species label
%endblock ChemicalSpeciesLabel

%block PAO.Basis                 # Define Basis set
N                     2                    # Species label, number of l-shells
 n=2   0   2                         # n, l, Nzeta 
   4.071      2.905   
   1.000      1.000   
 n=2   1   2 P   1                   # n, l, Nzeta, Polarization, NzetaPol
   4.973      3.054   
   1.000      1.000   
C                     2                    # Species label, number of l-shells
 n=2   0   2                         # n, l, Nzeta 
   4.633      3.432   
   1.000      1.000   
 n=2   1   2 P   1                   # n, l, Nzeta, Polarization, NzetaPol
   5.659      3.653   
   1.000      1.000   
%endblock PAO.Basis

prinput: ----------------------------------------------------------------------

coor:   Atomic-coordinates input format  =     Fractional

siesta: Atomic coordinates (Bohr) and species
siesta:     -2.35420  38.89134   0.00000  1        1
siesta:     -2.35420  41.57980   0.00000  1        2
siesta:      2.30256  38.89134   0.00000  1        3
siesta:      2.30256  41.57980   0.00000  1        4
siesta:     -4.68258  34.85847   0.00000  1        5
siesta:     -4.68258  37.54693   0.00000  1        6
siesta:     -2.35420  25.44831   0.00000  1        7
siesta:     -7.01096  22.75985   0.00000  1        8
siesta:     -7.01096  25.44831   0.00000  1        9
siesta:    -11.66772  25.44831   0.00000  1       10
siesta:     -9.33934  26.79272   0.00000  1       11
siesta:     -9.33934  29.48119   0.00000  1       12
siesta:     -0.02582  26.79272   0.00000  1       13
siesta:     -0.02582  29.48119   0.00000  1       14
siesta:     -4.68258  26.79272   0.00000  1       15
siesta:     -4.68258  29.48119   0.00000  1       16
siesta:     -2.35420  30.82560   0.00000  1       17
siesta:     -2.35420  33.51406   0.00000  1       18
siesta:     -7.01096  30.82560   0.00000  1       19
siesta:     -7.01096  33.51406   0.00000  1       20
siesta:     -0.02582  34.85847   0.00000  1       21
siesta:     -0.02582  37.54693   0.00000  1       22
siesta:     -0.02582  42.92421   0.00000  1       23
siesta:     -0.02582   2.59549   0.00000  2       24
siesta:     -0.02582   5.28395   0.00000  2       25
siesta:      4.63094  34.85847   0.00000  2       26
siesta:      4.63094  37.54693   0.00000  2       27
siesta:      6.95932  30.82560   0.00000  2       28
siesta:      6.95932  33.51406   0.00000  2       29
siesta:      9.28770  26.79272   0.00000  2       30
siesta:      9.28770  29.48119   0.00000  2       31
siesta:      2.30256   6.62836   0.00000  2       32
siesta:      2.30256   9.31683   0.00000  2       33
siesta:      4.63094  10.66124   0.00000  2       34
siesta:      4.63094  13.34970   0.00000  2       35
siesta:      6.95932  14.69411   0.00000  2       36
siesta:      6.95932  17.38257   0.00000  2       37
siesta:      9.28770  18.72698   0.00000  2       38
siesta:      9.28770  21.41544   0.00000  2       39
siesta:     11.61608  22.75985   0.00000  2       40
siesta:     11.61608  25.44831   0.00000  2       41
siesta:     -2.35420   6.62836   0.00000  2       42
siesta:     -2.35420   9.31683   0.00000  2       43
siesta:     -0.02582  10.66124   0.00000  2       44
siesta:     -0.02582  13.34970   0.00000  2       45
siesta:      2.30256  14.69411   0.00000  2       46
siesta:      2.30256  17.38257   0.00000  2       47
siesta:      4.63094  18.72698   0.00000  2       48
siesta:      4.63094  21.41544   0.00000  2       49
siesta:      6.95932  22.75985   0.00000  2       50
siesta:      6.95932  25.44831   0.00000  2       51
siesta:     -4.68258  10.66124   0.00000  2       52
siesta:     -4.68258  13.34970   0.00000  2       53
siesta:     -2.35420  14.69411   0.00000  2       54
siesta:     -2.35420  17.38257   0.00000  2       55
siesta:     -0.02582  18.72698   0.00000  2       56
siesta:     -0.02582  21.41544   0.00000  2       57
siesta:      2.30256  22.75985   0.00000  2       58
siesta:      2.30256  25.44831   0.00000  2       59
siesta:     -7.01096  14.69411   0.00000  2       60
siesta:     -7.01096  17.38257   0.00000  2       61
siesta:     -4.68258  18.72698   0.00000  2       62
siesta:     -4.68258  21.41544   0.00000  2       63
siesta:     -2.35420  22.75985   0.00000  2       64
siesta:     -9.33934  18.72698   0.00000  2       65
siesta:     -9.33934  21.41544   0.00000  2       66
siesta:    -11.66772  22.75985   0.00000  2       67
siesta:      4.63094  26.79272   0.00000  2       68
siesta:      4.63094  29.48119   0.00000  2       69
siesta:      2.30256  30.82560   0.00000  2       70
siesta:      2.30256  33.51406   0.00000  2       71
siesta:     -0.02582  45.61267   0.00000  2       72

siesta: System type = slab      

initatomlists: Number of atoms, orbitals, and projectors:     72   936  1152

siesta: ******************** Simulation parameters ****************************
siesta:
siesta: The following are some of the parameters of the simulation.
siesta: A complete list of the parameters used, including default values,
siesta: can be found in file out.fdf
siesta:
redata: Non-Collinear-spin run           =     F
redata: SpinPolarized (Up/Down) run      =     F
redata: Number of spin components        =     1
redata: Long output                      =     F
redata: Number of Atomic Species         =        2
redata: Charge density info will appear in .RHO file
redata: Write Mulliken Pop.              =     NO
redata: Mesh Cutoff                      =   200.0000  Ry
redata: Net charge of the system         =     0.0000 |e|
redata: Max. number of SCF Iter          =      500
redata: SCF convergence failure will abort job
redata: Performing Pulay mixing using    =    10 iterations
redata: Mix DM in first SCF step ?       =     F
redata: Write Pulay info on disk?        =     F
redata: Discard 1st Pulay DM after  kick =     F
redata: New DM Mixing Weight             =     0.0500
redata: New DM Occupancy tolerance       = 0.000000000001
redata: No kicks to SCF
redata: DM Mixing Weight for Kicks       =     0.5000
redata: DM Tolerance for SCF             =     0.000100
redata: Require Energy convergence for SCF =     F
redata: DM Energy tolerance for SCF      =     0.000100 eV
redata: Require Harris convergence for SCF =     F
redata: DM Harris energy tolerance for SCF =     0.000100 eV
redata: Using Saved Data (generic)   =     F
redata: Use continuation files for DM    =     T
redata: Neglect nonoverlap interactions  =     F
redata: Method of Calculation            =     Diagonalization
redata: Divide and Conquer               =     T
redata: Electronic Temperature           =     0.0019  Ry
redata: Fix the spin of the system       =     F
redata: Dynamics option                  =     Verlet MD run
redata: Initial MD time step             =        1
redata:   Final MD time step             =        1
redata: Length of MD time step           =     1.0000  fs
redata: Initial Temperature of MD run    =     0.0000  K
redata: Perform a MD quench              =     F
redata: ***********************************************************************
Total number of electrons:   311.000000
Total ionic charge:   311.000000

* ProcessorY, Blocksize:    2  24

k-point displ. along   1 input, could be:     0.50    0.00
k-point displ. along   2 input, could be:     0.50    0.00
 Kpoints in:          231 . Kpoints trimmed:          231

siesta: k-grid: Number of k-points =   231
siesta: k-grid: Cutoff (effective) =     5.000 Ang
siesta: k-grid: Supercell and displacements
siesta: k-grid:   21   0   0      0.500
siesta: k-grid:    0  21   0      0.500
siesta: k-grid:    0   0   1      0.000
Naive supercell factors:     2    2    2

superc: Internal auxiliary supercell:     2 x     2 x     2  =       8
superc: Number of atoms, orbitals, and projectors:    576   7488   9216

* Maximum dynamic memory allocated =     4 MB

siesta:                 ==============================
                            Begin MD step =      1
                        ==============================

superc: Internal auxiliary supercell:     2 x     2 x     2  =       8
superc: Number of atoms, orbitals, and projectors:    576   7488   9216

outcell: Unit cell vectors (Ang):
       12.804619    7.392750    0.000000
        0.000000   14.785500    0.000000
        0.000000    0.000000   10.000000

outcell: Cell vector modules (Ang)   :   14.785500   14.785500   10.000000
outcell: Cell angles (23,13,12) (deg):     90.0000     90.0000     60.0000
outcell: Cell volume (Ang**3)        :   1893.2269
New_DM. Step:     1
Initializing Density Matrix...

InitMesh: MESH =   120 x   120 x    90 =     1296000
InitMesh: Mesh cutoff (required, used) =   200.000   223.865 Ry

* Maximum dynamic memory allocated =   177 MB

stepf: Fermi-Dirac step function

siesta: Program's energy decomposition (eV):
siesta: Ebs     =     -6369.767697
siesta: Eions   =     22100.188487
siesta: Ena     =      4968.269954
siesta: Ekin    =      8308.399223
siesta: Enl     =       -46.509760
siesta: DEna    =        -0.000015
siesta: DUscf   =         0.000000
siesta: DUext   =         0.000000
siesta: Exc     =     -4754.900804
siesta: eta*DQ  =         0.000000
siesta: Emadel  =         0.000000
siesta: Emeta   =         0.000000
siesta: Emolmec =         0.000000
siesta: Ekinion =         0.000000
siesta: Eharris =    -13228.408841
siesta: Etot    =    -13624.929889
siesta: FreeEng =    -13624.929889

siesta: iscf   Eharris(eV)      E_KS(eV)   FreeEng(eV)   dDmax  Ef(eV)
siesta:    1   -13228.4088   -13624.9299   -13624.9299  5.9149 -6.7467
timer: Routine,Calls,Time,% = IterSCF        1    4142.410  99.73
elaps: Routine,Calls,Wall,% = IterSCF        1     518.407  99.73
siesta:    2   -16750.3662   -12678.5667   -12678.6295 16.0628 -2.6900
siesta:    3   -13118.0655   -13434.2376   -13434.2788  2.7401 -5.2369
siesta:    4   -13098.3998   -13256.3264   -13256.3995  0.9455 -4.3192
siesta:    5   -13073.4919   -13197.2804   -13197.3772  0.9763 -3.9487
siesta:    6   -13070.0066   -13172.7391   -13172.8017  0.9227 -3.8890
siesta:    7   -13068.3373   -13158.4209   -13158.4831  0.8783 -3.8898
siesta:    8   -13066.0289   -13129.7931   -13129.8739  0.7199 -3.9704
siesta:    9   -13066.0651   -13102.5219   -13102.5795  0.5341 -3.9744
siesta:   10   -13064.8220   -13092.4987   -13092.5628  0.4588 -3.9559
siesta:   11   -13064.5065   -13065.6902   -13065.7447  0.2315 -3.8963
siesta:   12   -13064.3754   -13056.8691   -13056.9426  0.2124 -3.8433
siesta:   13   -13064.0811   -13052.8375   -13052.9060  0.1795 -3.8367
siesta:   14   -13063.9185   -13053.7303   -13053.8118  0.2756 -3.8443
siesta:   15   -13063.6629   -13052.3078   -13052.3785  0.1864 -3.8549
siesta:   16   -13063.5891   -13053.7338   -13053.8209  0.1618 -3.8634
siesta:   17   -13063.5860   -13056.0306   -13056.1194  0.1752 -3.8812
siesta:   18   -13063.5382   -13057.5680   -13057.6457  0.0683 -3.8909
siesta:   19   -13063.5259   -13059.7056   -13059.7915  0.0604 -3.8983
siesta:   20   -13063.5266   -13061.6135   -13061.7005  0.0970 -3.9121
siesta:   21   -13063.5167   -13062.2506   -13062.3344  0.0367 -3.9091
siesta:   22   -13063.5163   -13063.5314   -13063.6179  0.0248 -3.9058
siesta:   23   -13063.5151   -13064.1156   -13064.1988  0.1186 -3.8971
siesta:   24   -13063.5172   -13064.5757   -13064.6638  0.0613 -3.8967
siesta:   25   -13063.5131   -13064.3149   -13064.3974  0.0282 -3.8942
siesta:   26   -13063.5120   -13064.3025   -13064.3867  0.0186 -3.8932
siesta:   27   -13063.5118   -13063.8722   -13063.9569  0.0149 -3.8932
siesta:   28   -13063.5111   -13063.7260   -13063.8106  0.0071 -3.8928
siesta:   29   -13063.5113   -13063.7200   -13063.8053  0.0076 -3.8928
siesta:   30   -13063.5110   -13063.5998   -13063.6849  0.0027 -3.8925
siesta:   31   -13063.5111   -13063.5696   -13063.6549  0.0013 -3.8930
siesta:   32   -13063.5111   -13063.5391   -13063.6243  0.0016 -3.8934
siesta:   33   -13063.5111   -13063.5618   -13063.6470  0.0007 -3.8934
siesta:   34   -13063.5111   -13063.5625   -13063.6477  0.0004 -3.8933
siesta:   35   -13063.5111   -13063.5397   -13063.6249  0.0002 -3.8933
siesta:   36   -13063.5111   -13063.5250   -13063.6102  0.0004 -3.8934
siesta:   37   -13063.5111   -13063.5072   -13063.5924  0.0003 -3.8934
siesta:   38   -13063.5111   -13063.5127   -13063.5979  0.0004 -3.8934
siesta:   39   -13063.5111   -13063.5129   -13063.5981  0.0001 -3.8934
siesta:   40   -13063.5111   -13063.5152   -13063.6004  0.0001 -3.8934
siesta:   41   -13063.5111   -13063.5130   -13063.5982  0.0001 -3.8934

siesta: E_KS(eV) =           -13063.5137

siesta: E_KS - E_eggbox =    -13063.5137

siesta: Atomic forces (eV/Ang):
----------------------------------------
   Tot   -0.329600   -0.043440    0.000000
----------------------------------------
   Max  683.639720
   Res  183.645595    sqrt( Sum f_i^2 / 3N )
----------------------------------------
   Max  683.639720    constrained

Stress-tensor-Voigt (kbar):     -635.81    -3339.50       -0.08       20.53        0.00        0.00
(Free)E + p*V (eV/cell)   -11497.7666
Target enthalpy (eV/cell)   -13063.5989

siesta: Stress tensor (static) (eV/Ang**3):
        -0.396836    0.012811    0.000000
         0.012811   -2.084328    0.000000
         0.000000    0.000000   -0.000048

siesta: Pressure (static):       1325.12744397  kBar

siesta: Stress tensor (total) (eV/Ang**3):
        -0.396836    0.012811    0.000000
         0.012811   -2.084328    0.000000
         0.000000    0.000000   -0.000048

siesta: Pressure (total):       1325.12744397  kBar

siesta: Temp_ion =       0.000 K

* Maximum dynamic memory allocated =   194 MB
Computing bands...

siesta: Program's energy decomposition (eV):
siesta: Ebs     =     -5099.330678
siesta: Eions   =     22100.188487
siesta: Ena     =      4968.269954
siesta: Ekin    =     11519.465933
siesta: Enl     =     -1791.957612
siesta: DEna    =      -834.643721
siesta: DUscf   =       115.190195
siesta: DUext   =         0.000000
siesta: Exc     =     -4939.649913
siesta: eta*DQ  =         0.000000
siesta: Emadel  =         0.000000
siesta: Emeta   =         0.000000
siesta: Emolmec =         0.000000
siesta: Ekinion =         0.000000
siesta: Eharris =    -13063.511092
siesta: Etot    =    -13063.513650
siesta: FreeEng =    -13063.598854

siesta: Final energy (eV):
siesta:  Band Struct. =   -5099.330678
siesta:       Kinetic =   11519.465933
siesta:       Hartree =   37466.480395
siesta:    Ext. field =       0.000000
siesta:   Exch.-corr. =   -4939.649913
siesta:  Ion-electron =  -85927.760219
siesta:       Ion-ion =   28817.950154
siesta:       Ekinion =       0.000000
siesta:         Total =  -13063.513650

siesta: Atomic forces (eV/Ang):
siesta:      1    0.888189  108.039378    0.000000
siesta:      2  -24.605075 -656.705934    0.000000
siesta:      3    3.372923  105.689232    0.000000
siesta:      4   21.281612 -655.197830    0.000000
siesta:      5  -31.743302    8.442914    0.000000
siesta:      6  -27.281838 -657.588559    0.000000
siesta:      7   -1.489023   -1.471530    0.000000
siesta:      8    0.687435   -1.206738    0.000000
siesta:      9    0.906309   -0.241811    0.000000
siesta:     10    0.337343   -2.994549    0.000000
siesta:     11    0.620008    1.653448    0.000000
siesta:     12    0.267416   -0.359012    0.000000
siesta:     13    0.886421    3.705286    0.000000
siesta:     14   21.364283 -680.839643    0.000000
siesta:     15   -0.677046    0.051069    0.000000
siesta:     16   -1.496173   -1.799764    0.000000
siesta:     17  -36.726533   11.678438    0.000000
siesta:     18    3.087437 -679.580174    0.000000
siesta:     19   -1.068234   -0.803336    0.000000
siesta:     20   -1.013714   -2.931129    0.000000
siesta:     21    2.762843  107.491479    0.000000
siesta:     22   -1.736630 -665.823291    0.000000
siesta:     23   -1.107853  126.128824    0.000000
siesta:     24  -10.176169  640.390413    0.000000
siesta:     25    1.738037 -118.417856    0.000000
siesta:     26   27.373114    4.036644    0.000000
siesta:     27   32.923411 -554.876855    0.000000
siesta:     28    2.185432    0.248081    0.000000
siesta:     29   -3.504212    1.637033    0.000000
siesta:     30    2.056047    2.466906    0.000000
siesta:     31   -1.338903   -0.143032    0.000000
siesta:     32   -4.426743  546.279858    0.000000
siesta:     33    0.110275 -120.702717    0.000000
siesta:     34   18.749782  551.199656    0.000000
siesta:     35   26.360997   -3.486309    0.000000
siesta:     36   -3.370338   -1.799910    0.000000
siesta:     37    1.688286    0.360767    0.000000
siesta:     38   -1.653986    0.280696    0.000000
siesta:     39    1.950456   -2.791890    0.000000
siesta:     40    0.115915    7.874256    0.000000
siesta:     41   -0.291116   -7.675672    0.000000
siesta:     42  -23.722765  654.918367    0.000000
siesta:     43    2.228192 -115.716696    0.000000
siesta:     44   -4.391661  673.338166    0.000000
siesta:     45   -0.212666 -116.183109    0.000000
siesta:     46    5.800296  681.017473    0.000000
siesta:     47   24.510024   -3.337714    0.000000
siesta:     48   -1.419483    2.740044    0.000000
siesta:     49    0.736067   -0.095440    0.000000
siesta:     50   -0.278268    0.756436    0.000000
siesta:     51   -0.028061   -1.028469    0.000000
siesta:     52  -20.485028  657.722670    0.000000
siesta:     53  -26.673062   -3.543961    0.000000
siesta:     54   -1.908288  683.639720    0.000000
siesta:     55  -24.443374   -2.991230    0.000000
siesta:     56   -0.123077  570.510843    0.000000
siesta:     57   -0.865362    1.432971    0.000000
siesta:     58   -0.492669    1.194693    0.000000
siesta:     59    1.110305   -1.442075    0.000000
siesta:     60    2.586494   -1.031458    0.000000
siesta:     61   -1.193022   -0.098598    0.000000
siesta:     62    1.248448    2.656838    0.000000
siesta:     63   -1.674545    1.452709    0.000000
siesta:     64    0.730027    0.631705    0.000000
siesta:     65    0.571995    0.835232    0.000000
siesta:     66   -0.621833   -1.080432    0.000000
siesta:     67   -0.487902    4.718959    0.000000
siesta:     68   -0.647939    0.679809    0.000000
siesta:     69   -1.087988   -2.771591    0.000000
siesta:     70   25.410072    7.872471    0.000000
siesta:     71   27.538599 -560.359137    0.000000
siesta:     72   -0.050216 -546.699467    0.000000
siesta: ----------------------------------------
siesta:    Tot   -0.329600   -0.043440    0.000000

siesta: Stress tensor (static) (eV/Ang**3):
siesta:    -0.396836    0.012811    0.000000
siesta:     0.012811   -2.084328    0.000000
siesta:     0.000000    0.000000   -0.000048

siesta: Cell volume =       1893.226884 Ang**3

siesta: Pressure (static):
siesta:                Solid            Molecule  Units
siesta:           0.00900785          0.14682187  Ry/Bohr**3
siesta:           0.82707056         13.48068464  eV/Ang**3
siesta:        1325.12744397      21598.67140022  kBar
(Free)E+ p_basis*V_orbitals  =      -13036.149399
(Free)Eharris+ p_basis*V_orbitals  =      -13036.147448

siesta: Electric dipole (a.u.)  =    0.000000    0.000000    0.000000
siesta: Electric dipole (Debye) =    0.000000    0.000000    0.000000

* Maximum dynamic memory allocated : Node    0 =   194 MB
* Maximum dynamic memory allocated : Node    1 =    72 MB
* Maximum dynamic memory allocated : Node    2 =    72 MB
* Maximum dynamic memory allocated : Node    3 =   183 MB
* Maximum dynamic memory allocated : Node    4 =   189 MB
* Maximum dynamic memory allocated : Node    5 =    70 MB
* Maximum dynamic memory allocated : Node    6 =    74 MB
* Maximum dynamic memory allocated : Node    7 =   176 MB

* Maximum memory occured during matrixMtoO                    

timer: CPU execution times:
timer:  Routine       Calls   Time/call    Tot.time        %
timer:  siesta            1  167475.821  167475.821   100.00
timer:  Setup             1       3.036       3.036     0.00
timer:  bands             3     268.989     806.966     0.48
timer:  writewave         1       0.016       0.016     0.00
timer:  KSV_init          1       0.003       0.003     0.00
timer:  IterMD            1  166659.964  166659.964    99.51
timer:  hsparse           1       0.237       0.237     0.00
timer:  overlap           1       7.702       7.702     0.00
timer:  IterSCF          41    4061.087  166504.556    99.42
timer:  kinefsm           2       3.950       7.900     0.00
timer:  nlefsm            2      18.470      36.939     0.02
timer:  DHSCF            42      80.157    3366.611     2.01
timer:  DHSCF1            1       0.760       0.760     0.00
timer:  DHSCF2            1      31.984      31.984     0.02
timer:  REORD           338       0.010       3.371     0.00
timer:  POISON           43       2.243      96.466     0.06
timer:  DHSCF3           42      78.634    3302.616     1.97
timer:  rhoofd           42      16.284     683.944     0.41
timer:  cellXC           42       3.429     144.004     0.09
timer:  vmat             42      37.572    1578.022     0.94
timer:  MolMec            2       0.000       0.000     0.00
timer:  diagon           41    3979.694  163167.447    97.43
timer:  c-eigval       9592       6.671   63988.812    38.21
timer:  c-buildHS      9592       0.113    1079.674     0.64
timer:  cdiag         19063       6.856  130705.314    78.04
timer:  cdiag1        19063       0.426    8121.517     4.85
timer:  cdiag2        19063       1.904   36296.889    21.67
timer:  cdiag3        19063       3.950   75293.573    44.96
timer:  cdiag4        19063       0.204    3888.529     2.32
timer:  c-eigvec       9471       7.226   68435.235    40.86
timer:  c-buildD       9471       3.326   31496.179    18.81
timer:  DHSCF4            1      29.041      29.041     0.02
timer:  dfscf             1      27.266      27.266     0.02
timer:  overfsm           1       0.391       0.391     0.00
timer:  optical           1       5.109       5.109     0.00
  

elaps: ELAPSED times:
elaps:  Routine       Calls   Time/call    Tot.time        %
elaps:  siesta            1   20957.615   20957.615   100.00
elaps:  Setup             1       0.377       0.377     0.00
elaps:  bands             3      33.675     101.025     0.48
elaps:  writewave         1       0.002       0.002     0.00
elaps:  KSV_init          1       0.000       0.000     0.00
elaps:  IterMD            1   20855.538   20855.538    99.51
elaps:  hsparse           1       0.031       0.031     0.00
elaps:  overlap           1       0.968       0.968     0.00
elaps:  IterSCF          41     508.198   20836.098    99.42
elaps:  kinefsm           2       0.496       0.992     0.00
elaps:  nlefsm            2       2.332       4.665     0.02
elaps:  DHSCF            42      10.113     424.752     2.03
elaps:  DHSCF1            1       0.098       0.098     0.00
elaps:  DHSCF2            1       4.002       4.002     0.02
elaps:  REORD           338       0.001       0.435     0.00
elaps:  POISON           43       0.281      12.096     0.06
elaps:  DHSCF3           42       9.838     413.186     1.97
elaps:  rhoofd           42       4.273     179.451     0.86
elaps:  cellXC           42       0.428      17.981     0.09
elaps:  vmat             42       4.700     197.418     0.94
elaps:  MolMec            2       0.000       0.000     0.00
elaps:  diagon           41     498.034   20419.401    97.43
elaps:  c-eigval       9592       0.835    8006.170    38.20
elaps:  c-buildHS      9592       0.015     147.364     0.70
elaps:  cdiag         19063       0.846   16130.583    76.97
elaps:  cdiag1        19063       0.053    1009.273     4.82
elaps:  cdiag2        19063       0.238    4541.749    21.67
elaps:  cdiag3        19063       0.495    9433.408    45.01
elaps:  cdiag4        19063       0.026     494.955     2.36
elaps:  c-eigvec       9471       0.885    8378.147    39.98
elaps:  c-buildD       9471       0.436    4127.687    19.70
elaps:  DHSCF4            1       7.162       7.162     0.03
elaps:  dfscf             1       6.794       6.794     0.03
elaps:  overfsm           1       0.050       0.050     0.00
elaps:  optical           1       0.000       0.000     0.00
  
>> End of run:  26-APR-2016   6:44:02
