Siesta Version:                                        siesta-3.2-pl-3
Architecture  : x86_64-unknown-linux-gnu--unknown
Compiler flags: mpiifort -g -O2 -fPIC -xSSE4.1 -fp-model source -shared-intel 
PARALLEL version

* Running on    8 nodes in parallel
>> Start of run:  29-APR-2016  23:25:57

                           ***********************       
                           *  WELCOME TO SIESTA  *       
                           ***********************       

reinit: Reading from standard input
************************** Dump of input data file ****************************
#(1) General system descriptors
SystemName            GRP_doping    # Descriptive name of the system
SystemLabel           GRP_doping    # Short name for naming files
%include STRUCT.fdf
%include KPT.fdf
%include BASIS.fdf
#%include TS.fdf # for transiesta calculation
#(4) DFT, Grid, SCF
XC.functional         GGA           # LDA or GGA (default = LDA)
XC.authors            PBE           # CA (Ceperley-Aldr) = PZ
                                    #    (Perdew-Zunger) - LDA - Default
                                    # PW92 (Perdew-Wang-92) - LDA
                                    # PBE (Perdew-Burke-Ernzerhof) - GGA
MeshCutoff            200.000000    Ry      # Default: 50.0 Ry ~ 0.444 Bohr
                                    #         100.0 Ry ~ 0.314 Bohr
MaxSCFIterations      500           # Default: 50
DM.MixingWeight       0.05          # Default: 0.25
DM.NumberPulay        10            # Default: 0
DM.PulayOnFile        F             # SystemLabel.P1, SystemLabel.P2
DM.Tolerance          1.d-4         # Default: 1.d-4
DM.UseSaveDM          .true.        # because of the bug
SCFMustConverge       .true.
NeglNonOverlapInt     F             # Default: F
#(5) Eigenvalue problem: order-N or diagonalization
SolutionMethod        Diagon        # or Transiesta
ElectronicTemperature 300.0 K       # Default: 300.0 K
#(6) Molecular dynamics and relaxations
#MD.TypeOfRun          CG            # Type of dynamics:
#MD.VariableCell       F
#MD.NumCGsteps         0           # 0 for single-point / 100 for gopt
#MD.MaxCGDispl         0.2 Bohr      # Default: 0.2 Bohr
#MD.MaxForceTol        0.02 eV/Ang   # Default: 0.04 eV/Ang
#MD.MaxStressTol       1.0 GPa       # Default: 1.0 GPa
# Geometry Constraints
#%block GeometryConstraints
#	position from 1 to 44
#%endblock GeometryConstraints
BandLinesScale   pi/a
%block BandLines
 1   0.00000000  0.00000000  0.00000000
50   0.00000000  0.07809418  0.00000000
50   0.04509075  0.07809242  0.00000000
20   0.00000000  0.00000000  0.00000000
%endblock BandLines
************************** End of input data file *****************************

reinit: -----------------------------------------------------------------------
reinit: System Name: GRP_doping
reinit: -----------------------------------------------------------------------
reinit: System Label: GRP_doping                                                  
reinit: -----------------------------------------------------------------------

initatom: Reading input for the pseudopotentials and atomic orbitals ----------
 Species number:            1  Label: B Atomic number:           5
 Species number:            2  Label: C Atomic number:           6
Ground state valence configuration:   2s02  2p01
Reading pseudopotential information in formatted form from B.psf

Valence configuration for pseudopotential generation:
2s( 2.00) rc: 1.74
2p( 1.00) rc: 1.74
3d( 0.00) rc: 1.74
4f( 0.00) rc: 1.74
Ground state valence configuration:   2s02  2p02
Reading pseudopotential information in formatted form from C.psf

Valence configuration for pseudopotential generation:
2s( 2.00) rc: 1.54
2p( 2.00) rc: 1.54
3d( 0.00) rc: 1.54
4f( 0.00) rc: 1.54
For B, standard SIESTA heuristics set lmxkb to 3
 (one more than the basis l, including polarization orbitals).
Use PS.lmax or PS.KBprojectors blocks to override.
For C, standard SIESTA heuristics set lmxkb to 3
 (one more than the basis l, including polarization orbitals).
Use PS.lmax or PS.KBprojectors blocks to override.

<basis_specs>
===============================================================================
B                    Z=   5    Mass=  10.810        Charge= 0.17977+309
Lmxo=1 Lmxkb= 3    BasisType=split      Semic=F
L=0  Nsemic=0  Cnfigmx=2
          n=1  nzeta=2  polorb=0
            splnorm:   0.15000    
               vcte:    0.0000    
               rinn:    0.0000    
                rcs:    0.0000      0.0000    
            lambdas:    1.0000      1.0000    
L=1  Nsemic=0  Cnfigmx=2
          n=1  nzeta=2  polorb=1
            splnorm:   0.15000    
               vcte:    0.0000    
               rinn:    0.0000    
                rcs:    0.0000      0.0000    
            lambdas:    1.0000      1.0000    
-------------------------------------------------------------------------------
L=0  Nkbl=1  erefs: 0.17977+309
L=1  Nkbl=1  erefs: 0.17977+309
L=2  Nkbl=1  erefs: 0.17977+309
L=3  Nkbl=1  erefs: 0.17977+309
===============================================================================
</basis_specs>

atom: Called for B                     (Z =   5)

read_vps: Pseudopotential generation method:
read_vps: ATM3      Troullier-Martins                       
Total valence charge:    3.00000

read_vps: Pseudopotential includes a core correction:
read_vps: Pseudo-core for xc-correction

xc_check: Exchange-correlation functional:
xc_check: GGA Perdew, Burke & Ernzerhof 1996
V l=0 = -2*Zval/r beyond r=  1.7165
V l=1 = -2*Zval/r beyond r=  1.7165
V l=2 = -2*Zval/r beyond r=  1.7165
V l=3 = -2*Zval/r beyond r=  1.6951
All V_l potentials equal beyond r=  1.7165
This should be close to max(r_c) in ps generation
All pots = -2*Zval/r beyond r=  1.7165

VLOCAL1: 99.0% of the norm of Vloc inside     14.733 Ry
VLOCAL1: 99.9% of the norm of Vloc inside     33.577 Ry
atom: Maximum radius for 4*pi*r*r*local-pseudopot. charge    2.04484
atom: Maximum radius for r*vlocal+2*Zval:    1.75994
GHOST: No ghost state for L =  0
GHOST: No ghost state for L =  1
GHOST: No ghost state for L =  2
GHOST: No ghost state for L =  3

KBgen: Kleinman-Bylander projectors: 
   l= 0   rc=  1.897051   el= -0.693730   Ekb=  4.595746   kbcos=  0.286105
   l= 1   rc=  1.920920   el= -0.265236   Ekb= -2.350715   kbcos= -0.315747
   l= 2   rc=  2.044840   el=  0.002055   Ekb= -0.690767   kbcos= -0.013822
   l= 3   rc=  2.149707   el=  0.003188   Ekb= -0.315358   kbcos= -0.002055

KBgen: Total number of  Kleinman-Bylander projectors:   16
atom: -------------------------------------------------------------------------

atom: SANKEY-TYPE ORBITALS:
atom: Selected multiple-zeta basis: split     

SPLIT: Orbitals with angular momentum L= 0

SPLIT: Basis orbitals for state 2s

SPLIT: PAO cut-off radius determined from an
SPLIT: energy shift=  0.007350 Ry

   izeta = 1
                 lambda =    1.000000
                     rc =    5.422032
                 energy =   -0.686029
                kinetic =    0.576707
    potential(screened) =   -1.262736
       potential(ionic) =   -3.271094

   izeta = 2
                 rmatch =    4.222573
              splitnorm =    0.150000
                 energy =   -0.602132
                kinetic =    0.858975
    potential(screened) =   -1.461107
       potential(ionic) =   -3.582536

SPLIT: Orbitals with angular momentum L= 1

SPLIT: Basis orbitals for state 2p

SPLIT: PAO cut-off radius determined from an
SPLIT: energy shift=  0.007350 Ry

   izeta = 1
                 lambda =    1.000000
                     rc =    6.790259
                 energy =   -0.258578
                kinetic =    1.481412
    potential(screened) =   -1.739989
       potential(ionic) =   -3.657461

   izeta = 2
                 rmatch =    4.608740
              splitnorm =    0.150000
                 energy =   -0.173757
                kinetic =    2.186690
    potential(screened) =   -2.360447
       potential(ionic) =   -4.464260

POLgen: Perturbative polarization orbital with L=  2

POLgen: Polarization orbital for state 2p

   izeta = 1
                     rc =    6.790259
                 energy =    0.684082
                kinetic =    1.471481
    potential(screened) =   -0.787399
       potential(ionic) =   -2.406985
atom: Total number of Sankey-type orbitals: 13

atm_pop: Valence configuration (for local Pseudopot. screening):
 2s( 2.00)                                                            
 2p( 1.00)                                                            
Vna: chval, zval:    3.00000   3.00000

Vna:  Cut-off radius for the neutral-atom potential:   6.790259
comcore: Pseudo-core radius Rcore=  2.122997

atom: _________________________________________________________________________

<basis_specs>
===============================================================================
C                    Z=   6    Mass=  12.010        Charge= 0.17977+309
Lmxo=1 Lmxkb= 3    BasisType=split      Semic=F
L=0  Nsemic=0  Cnfigmx=2
          n=1  nzeta=2  polorb=0
            splnorm:   0.15000    
               vcte:    0.0000    
               rinn:    0.0000    
                rcs:    0.0000      0.0000    
            lambdas:    1.0000      1.0000    
L=1  Nsemic=0  Cnfigmx=2
          n=1  nzeta=2  polorb=1
            splnorm:   0.15000    
               vcte:    0.0000    
               rinn:    0.0000    
                rcs:    0.0000      0.0000    
            lambdas:    1.0000      1.0000    
-------------------------------------------------------------------------------
L=0  Nkbl=1  erefs: 0.17977+309
L=1  Nkbl=1  erefs: 0.17977+309
L=2  Nkbl=1  erefs: 0.17977+309
L=3  Nkbl=1  erefs: 0.17977+309
===============================================================================
</basis_specs>

atom: Called for C                     (Z =   6)

read_vps: Pseudopotential generation method:
read_vps: ATM3      Troullier-Martins                       
Total valence charge:    4.00000

read_vps: Pseudopotential includes a core correction:
read_vps: Pseudo-core for xc-correction

xc_check: Exchange-correlation functional:
xc_check: GGA Perdew, Burke & Ernzerhof 1996
V l=0 = -2*Zval/r beyond r=  1.5227
V l=1 = -2*Zval/r beyond r=  1.5227
V l=2 = -2*Zval/r beyond r=  1.5227
V l=3 = -2*Zval/r beyond r=  1.5038
All V_l potentials equal beyond r=  1.5227
This should be close to max(r_c) in ps generation
All pots = -2*Zval/r beyond r=  1.5227

VLOCAL1: 99.0% of the norm of Vloc inside     18.722 Ry
VLOCAL1: 99.9% of the norm of Vloc inside     42.668 Ry
atom: Maximum radius for 4*pi*r*r*local-pseudopot. charge    1.83678
atom: Maximum radius for r*vlocal+2*Zval:    1.58088
GHOST: No ghost state for L =  0
GHOST: No ghost state for L =  1
GHOST: No ghost state for L =  2
GHOST: No ghost state for L =  3

KBgen: Kleinman-Bylander projectors: 
   l= 0   rc=  1.704034   el= -1.009801   Ekb=  5.335044   kbcos=  0.316824
   l= 1   rc=  1.704034   el= -0.388707   Ekb= -3.785862   kbcos= -0.366464
   l= 2   rc=  1.791422   el=  0.001971   Ekb= -0.970471   kbcos= -0.009212
   l= 3   rc=  1.859892   el=  0.003065   Ekb= -0.399525   kbcos= -0.001223

KBgen: Total number of  Kleinman-Bylander projectors:   16
atom: -------------------------------------------------------------------------

atom: SANKEY-TYPE ORBITALS:
atom: Selected multiple-zeta basis: split     

SPLIT: Orbitals with angular momentum L= 0

SPLIT: Basis orbitals for state 2s

SPLIT: PAO cut-off radius determined from an
SPLIT: energy shift=  0.007350 Ry

   izeta = 1
                 lambda =    1.000000
                     rc =    4.632753
                 energy =   -1.002270
                kinetic =    0.855760
    potential(screened) =   -1.858031
       potential(ionic) =   -5.417575

   izeta = 2
                 rmatch =    3.431921
              splitnorm =    0.150000
                 energy =   -0.867111
                kinetic =    1.300804
    potential(screened) =   -2.167915
       potential(ionic) =   -5.962684

SPLIT: Orbitals with angular momentum L= 1

SPLIT: Basis orbitals for state 2p

SPLIT: PAO cut-off radius determined from an
SPLIT: energy shift=  0.007350 Ry

   izeta = 1
                 lambda =    1.000000
                     rc =    5.658549
                 energy =   -0.381140
                kinetic =    2.399701
    potential(screened) =   -2.780841
       potential(ionic) =   -6.206085

   izeta = 2
                 rmatch =    3.653288
              splitnorm =    0.150000
                 energy =   -0.249149
                kinetic =    3.542762
    potential(screened) =   -3.791911
       potential(ionic) =   -7.581078

POLgen: Perturbative polarization orbital with L=  2

POLgen: Polarization orbital for state 2p

   izeta = 1
                     rc =    5.658549
                 energy =    1.109913
                kinetic =    2.304789
    potential(screened) =   -1.194876
       potential(ionic) =   -4.013592
atom: Total number of Sankey-type orbitals: 13

atm_pop: Valence configuration (for local Pseudopot. screening):
 2s( 2.00)                                                            
 2p( 2.00)                                                            
Vna: chval, zval:    4.00000   4.00000

Vna:  Cut-off radius for the neutral-atom potential:   5.658549
comcore: Pseudo-core radius Rcore=  1.791422

atom: _________________________________________________________________________

prinput: Basis input ----------------------------------------------------------

PAO.BasisType split     

%block ChemicalSpeciesLabel
    1    5 B                       # Species index, atomic number, species label
    2    6 C                       # Species index, atomic number, species label
%endblock ChemicalSpeciesLabel

%block PAO.Basis                 # Define Basis set
B                     2                    # Species label, number of l-shells
 n=2   0   2                         # n, l, Nzeta 
   5.422      4.223   
   1.000      1.000   
 n=2   1   2 P   1                   # n, l, Nzeta, Polarization, NzetaPol
   6.790      4.609   
   1.000      1.000   
C                     2                    # Species label, number of l-shells
 n=2   0   2                         # n, l, Nzeta 
   4.633      3.432   
   1.000      1.000   
 n=2   1   2 P   1                   # n, l, Nzeta, Polarization, NzetaPol
   5.659      3.653   
   1.000      1.000   
%endblock PAO.Basis

prinput: ----------------------------------------------------------------------

coor:   Atomic-coordinates input format  =     Fractional

siesta: Atomic coordinates (Bohr) and species
siesta:     -2.35420  41.57980   0.00000  1        1
siesta:      2.30256  38.89134   0.00000  1        2
siesta:      2.30256  41.57980   0.00000  1        3
siesta:      4.63094  10.66124   0.00000  1        4
siesta:      4.63094  13.34970   0.00000  1        5
siesta:      2.30256  14.69411   0.00000  1        6
siesta:      2.30256  17.38257   0.00000  1        7
siesta:      4.63094  18.72698   0.00000  1        8
siesta:      4.63094  21.41544   0.00000  1        9
siesta:     -0.02582  18.72698   0.00000  1       10
siesta:     -0.02582  21.41544   0.00000  1       11
siesta:      2.30256  22.75985   0.00000  1       12
siesta:      2.30256  25.44831   0.00000  1       13
siesta:     -2.35420  22.75985   0.00000  1       14
siesta:     -7.01096  25.44831   0.00000  1       15
siesta:     -9.33934  26.79272   0.00000  1       16
siesta:      4.63094  26.79272   0.00000  1       17
siesta:     -0.02582  42.92421   0.00000  1       18
siesta:     -0.02582  45.61267   0.00000  1       19
siesta:     -0.02582   2.59549   0.00000  2       20
siesta:     -0.02582   5.28395   0.00000  2       21
siesta:     -2.35420  38.89134   0.00000  2       22
siesta:      4.63094  34.85847   0.00000  2       23
siesta:      4.63094  37.54693   0.00000  2       24
siesta:      6.95932  30.82560   0.00000  2       25
siesta:      6.95932  33.51406   0.00000  2       26
siesta:      9.28770  26.79272   0.00000  2       27
siesta:      9.28770  29.48119   0.00000  2       28
siesta:     -4.68258  34.85847   0.00000  2       29
siesta:     -4.68258  37.54693   0.00000  2       30
siesta:      2.30256   6.62836   0.00000  2       31
siesta:      2.30256   9.31683   0.00000  2       32
siesta:      6.95932  14.69411   0.00000  2       33
siesta:      6.95932  17.38257   0.00000  2       34
siesta:      9.28770  18.72698   0.00000  2       35
siesta:      9.28770  21.41544   0.00000  2       36
siesta:     11.61608  22.75985   0.00000  2       37
siesta:     11.61608  25.44831   0.00000  2       38
siesta:     -2.35420   6.62836   0.00000  2       39
siesta:     -2.35420   9.31683   0.00000  2       40
siesta:     -0.02582  10.66124   0.00000  2       41
siesta:     -0.02582  13.34970   0.00000  2       42
siesta:      6.95932  22.75985   0.00000  2       43
siesta:      6.95932  25.44831   0.00000  2       44
siesta:     -4.68258  10.66124   0.00000  2       45
siesta:     -4.68258  13.34970   0.00000  2       46
siesta:     -2.35420  14.69411   0.00000  2       47
siesta:     -2.35420  17.38257   0.00000  2       48
siesta:     -7.01096  14.69411   0.00000  2       49
siesta:     -7.01096  17.38257   0.00000  2       50
siesta:     -4.68258  18.72698   0.00000  2       51
siesta:     -4.68258  21.41544   0.00000  2       52
siesta:     -2.35420  25.44831   0.00000  2       53
siesta:     -9.33934  18.72698   0.00000  2       54
siesta:     -9.33934  21.41544   0.00000  2       55
siesta:     -7.01096  22.75985   0.00000  2       56
siesta:    -11.66772  22.75985   0.00000  2       57
siesta:    -11.66772  25.44831   0.00000  2       58
siesta:     -9.33934  29.48119   0.00000  2       59
siesta:      4.63094  29.48119   0.00000  2       60
siesta:     -0.02582  26.79272   0.00000  2       61
siesta:     -0.02582  29.48119   0.00000  2       62
siesta:     -4.68258  26.79272   0.00000  2       63
siesta:     -4.68258  29.48119   0.00000  2       64
siesta:      2.30256  30.82560   0.00000  2       65
siesta:      2.30256  33.51406   0.00000  2       66
siesta:     -2.35420  30.82560   0.00000  2       67
siesta:     -2.35420  33.51406   0.00000  2       68
siesta:     -7.01096  30.82560   0.00000  2       69
siesta:     -7.01096  33.51406   0.00000  2       70
siesta:     -0.02582  34.85847   0.00000  2       71
siesta:     -0.02582  37.54693   0.00000  2       72

siesta: System type = slab      

initatomlists: Number of atoms, orbitals, and projectors:     72   936  1152

siesta: ******************** Simulation parameters ****************************
siesta:
siesta: The following are some of the parameters of the simulation.
siesta: A complete list of the parameters used, including default values,
siesta: can be found in file out.fdf
siesta:
redata: Non-Collinear-spin run           =     F
redata: SpinPolarized (Up/Down) run      =     F
redata: Number of spin components        =     1
redata: Long output                      =     F
redata: Number of Atomic Species         =        2
redata: Charge density info will appear in .RHO file
redata: Write Mulliken Pop.              =     NO
redata: Mesh Cutoff                      =   200.0000  Ry
redata: Net charge of the system         =     0.0000 |e|
redata: Max. number of SCF Iter          =      500
redata: SCF convergence failure will abort job
redata: Performing Pulay mixing using    =    10 iterations
redata: Mix DM in first SCF step ?       =     F
redata: Write Pulay info on disk?        =     F
redata: Discard 1st Pulay DM after  kick =     F
redata: New DM Mixing Weight             =     0.0500
redata: New DM Occupancy tolerance       = 0.000000000001
redata: No kicks to SCF
redata: DM Mixing Weight for Kicks       =     0.5000
redata: DM Tolerance for SCF             =     0.000100
redata: Require Energy convergence for SCF =     F
redata: DM Energy tolerance for SCF      =     0.000100 eV
redata: Require Harris convergence for SCF =     F
redata: DM Harris energy tolerance for SCF =     0.000100 eV
redata: Using Saved Data (generic)   =     F
redata: Use continuation files for DM    =     T
redata: Neglect nonoverlap interactions  =     F
redata: Method of Calculation            =     Diagonalization
redata: Divide and Conquer               =     T
redata: Electronic Temperature           =     0.0019  Ry
redata: Fix the spin of the system       =     F
redata: Dynamics option                  =     Verlet MD run
redata: Initial MD time step             =        1
redata:   Final MD time step             =        1
redata: Length of MD time step           =     1.0000  fs
redata: Initial Temperature of MD run    =     0.0000  K
redata: Perform a MD quench              =     F
redata: ***********************************************************************
Total number of electrons:   269.000000
Total ionic charge:   269.000000

* ProcessorY, Blocksize:    2  24

k-point displ. along   1 input, could be:     0.50    0.00
k-point displ. along   2 input, could be:     0.50    0.00
 Kpoints in:          231 . Kpoints trimmed:          231

siesta: k-grid: Number of k-points =   231
siesta: k-grid: Cutoff (effective) =     5.000 Ang
siesta: k-grid: Supercell and displacements
siesta: k-grid:   21   0   0      0.500
siesta: k-grid:    0  21   0      0.500
siesta: k-grid:    0   0   1      0.000
Naive supercell factors:     2    2    2

superc: Internal auxiliary supercell:     2 x     2 x     2  =       8
superc: Number of atoms, orbitals, and projectors:    576   7488   9216

* Maximum dynamic memory allocated =     4 MB

siesta:                 ==============================
                            Begin MD step =      1
                        ==============================

superc: Internal auxiliary supercell:     2 x     2 x     2  =       8
superc: Number of atoms, orbitals, and projectors:    576   7488   9216

outcell: Unit cell vectors (Ang):
       12.804619    7.392750    0.000000
        0.000000   14.785500    0.000000
        0.000000    0.000000   10.000000

outcell: Cell vector modules (Ang)   :   14.785500   14.785500   10.000000
outcell: Cell angles (23,13,12) (deg):     90.0000     90.0000     60.0000
outcell: Cell volume (Ang**3)        :   1893.2269
New_DM. Step:     1
Initializing Density Matrix...

InitMesh: MESH =   120 x   120 x    90 =     1296000
InitMesh: Mesh cutoff (required, used) =   200.000   223.865 Ry

* Maximum dynamic memory allocated =   221 MB

stepf: Fermi-Dirac step function

siesta: Program's energy decomposition (eV):
siesta: Ebs     =     -5501.032427
siesta: Eions   =     15969.933558
siesta: Ena     =      4248.457064
siesta: Ekin    =      5376.155659
siesta: Enl     =       793.407062
siesta: DEna    =        -0.000008
siesta: DUscf   =         0.000000
siesta: DUext   =         0.000000
siesta: Exc     =     -4190.497547
siesta: eta*DQ  =         0.000000
siesta: Emadel  =         0.000000
siesta: Emeta   =         0.000000
siesta: Emolmec =         0.000000
siesta: Ekinion =         0.000000
siesta: Eharris =     -9518.491678
siesta: Etot    =     -9742.411329
siesta: FreeEng =     -9742.411329

siesta: iscf   Eharris(eV)      E_KS(eV)   FreeEng(eV)   dDmax  Ef(eV)
siesta:    1    -9518.4917    -9742.4113    -9742.4113  7.8908 -8.4439
timer: Routine,Calls,Time,% = IterSCF        1    4422.387  99.72
elaps: Routine,Calls,Wall,% = IterSCF        1     553.541  99.71
siesta:    2   -16004.7122    -8504.8872    -8504.9556 18.6332 -7.3092
siesta:    3    -9603.4014    -9558.9660    -9558.9866  2.6454 -5.6311
siesta:    4    -9522.6551    -9499.9276    -9499.9641  1.8307 -5.6591
siesta:    5    -9433.7305    -9437.0852    -9437.1018  1.2789 -5.6655
siesta:    6    -9391.1581    -9390.3362    -9390.3730  1.1741 -5.4276
siesta:    7    -9375.3264    -9368.4277    -9368.4671  1.0749 -5.3926
siesta:    8    -9367.7863    -9358.2259    -9358.2790  0.9347 -5.2252
siesta:    9    -9364.5565    -9352.8832    -9352.9453  0.8019 -5.2537
siesta:   10    -9361.7816    -9345.4053    -9345.4610  0.5743 -5.1805
siesta:   11    -9360.7255    -9342.1864    -9342.2395  0.4839 -5.1317
siesta:   12    -9360.8022    -9340.8629    -9340.9242  0.4693 -5.0828
siesta:   13    -9360.0816    -9340.2799    -9340.3561  0.2619 -5.1026
siesta:   14    -9360.1019    -9343.6524    -9343.7064  0.2801 -5.1426
siesta:   15    -9359.8394    -9347.5968    -9347.6430  0.2140 -5.1685
siesta:   16    -9359.6123    -9354.4027    -9354.4571  0.1108 -5.1816
siesta:   17    -9359.5332    -9354.9198    -9354.9931  0.0835 -5.1945
siesta:   18    -9359.4023    -9358.2936    -9358.3604  0.1133 -5.2140
siesta:   19    -9359.3755    -9359.0528    -9359.1252  0.0785 -5.2066
siesta:   20    -9359.3537    -9360.6293    -9360.6986  0.0632 -5.2028
siesta:   21    -9359.3485    -9361.3300    -9361.3991  0.0558 -5.1976
siesta:   22    -9359.3398    -9361.6892    -9361.7559  0.0420 -5.1954
siesta:   23    -9359.3388    -9361.7277    -9361.7952  0.0266 -5.1883
siesta:   24    -9359.3361    -9361.0883    -9361.1546  0.0158 -5.1788
siesta:   25    -9359.3346    -9360.8840    -9360.9495  0.0142 -5.1756
siesta:   26    -9359.3326    -9360.4871    -9360.5538  0.0133 -5.1733
siesta:   27    -9359.3325    -9360.1213    -9360.1890  0.0062 -5.1720
siesta:   28    -9359.3328    -9359.8920    -9359.9592  0.0058 -5.1723
siesta:   29    -9359.3327    -9359.7227    -9359.7894  0.0050 -5.1726
siesta:   30    -9359.3329    -9359.5682    -9359.6350  0.0046 -5.1732
siesta:   31    -9359.3330    -9359.3940    -9359.4606  0.0038 -5.1733
siesta:   32    -9359.3329    -9359.3506    -9359.4170  0.0018 -5.1738
siesta:   33    -9359.3329    -9359.3076    -9359.3741  0.0009 -5.1741
siesta:   34    -9359.3329    -9359.3097    -9359.3762  0.0007 -5.1743
siesta:   35    -9359.3329    -9359.3093    -9359.3758  0.0006 -5.1743
siesta:   36    -9359.3329    -9359.3176    -9359.3841  0.0003 -5.1743
siesta:   37    -9359.3329    -9359.3225    -9359.3890  0.0002 -5.1743
siesta:   38    -9359.3329    -9359.3209    -9359.3874  0.0001 -5.1743
siesta:   39    -9359.3329    -9359.3218    -9359.3883  0.0001 -5.1742

siesta: E_KS(eV) =            -9359.3235

siesta: E_KS - E_eggbox =     -9359.3235

siesta: Atomic forces (eV/Ang):
----------------------------------------
   Tot   -0.219260    0.116352    0.000000
----------------------------------------
   Max  565.349076
   Res  138.879335    sqrt( Sum f_i^2 / 3N )
----------------------------------------
   Max  565.349076    constrained

Stress-tensor-Voigt (kbar):     -741.36    -2506.15       -0.66       22.44        0.00        0.00
(Free)E + p*V (eV/cell)    -8079.9936
Target enthalpy (eV/cell)    -9359.3899

siesta: Stress tensor (static) (eV/Ang**3):
        -0.462714    0.014006    0.000000
         0.014006   -1.564200    0.000000
         0.000000    0.000000   -0.000412

siesta: Pressure (static):       1082.72340296  kBar

siesta: Stress tensor (total) (eV/Ang**3):
        -0.462714    0.014006    0.000000
         0.014006   -1.564200    0.000000
         0.000000    0.000000   -0.000412

siesta: Pressure (total):       1082.72340296  kBar

siesta: Temp_ion =       0.000 K

* Maximum dynamic memory allocated =   238 MB
Computing bands...

siesta: Program's energy decomposition (eV):
siesta: Ebs     =     -4179.450502
siesta: Eions   =     15969.933558
siesta: Ena     =      4248.457064
siesta: Ekin    =      8160.001249
siesta: Enl     =      -806.161355
siesta: DEna    =      -738.215091
siesta: DUscf   =        97.670141
siesta: DUext   =         0.000000
siesta: Exc     =     -4351.141927
siesta: eta*DQ  =         0.000000
siesta: Emadel  =         0.000000
siesta: Emeta   =         0.000000
siesta: Emolmec =         0.000000
siesta: Ekinion =         0.000000
siesta: Eharris =     -9359.332878
siesta: Etot    =     -9359.323478
siesta: FreeEng =     -9359.389947

siesta: Final energy (eV):
siesta:  Band Struct. =   -4179.450502
siesta:       Kinetic =    8160.001249
siesta:       Hartree =   26353.654204
siesta:    Ext. field =       0.000000
siesta:   Exch.-corr. =   -4351.141927
siesta:  Ion-electron =  -60595.825317
siesta:       Ion-ion =   21073.988314
siesta:       Ekinion =       0.000000
siesta:         Total =   -9359.323478

siesta: Atomic forces (eV/Ang):
siesta:      1    1.743556 -397.814104    0.000000
siesta:      2   -2.480397  108.497008    0.000000
siesta:      3    5.288226 -290.492435    0.000000
siesta:      4   20.420631  392.788496    0.000000
siesta:      5   19.543188    0.400680    0.000000
siesta:      6   17.935057  295.373720    0.000000
siesta:      7   13.015462   -1.567690    0.000000
siesta:      8    1.893053   -4.007136    0.000000
siesta:      9    3.695265    2.371460    0.000000
siesta:     10    0.331132  298.343081    0.000000
siesta:     11   -0.480787    0.737965    0.000000
siesta:     12   -0.394743   -2.793318    0.000000
siesta:     13   -4.110389    3.415104    0.000000
siesta:     14   -3.151486    1.323696    0.000000
siesta:     15    4.063897   -1.833246    0.000000
siesta:     16   -8.284432    4.406139    0.000000
siesta:     17    3.926757    1.802562    0.000000
siesta:     18   -6.589087  103.469247    0.000000
siesta:     19   -3.081811 -287.490742    0.000000
siesta:     20   -0.532075  550.245437    0.000000
siesta:     21    1.157317 -129.132517    0.000000
siesta:     22    0.057235  128.054592    0.000000
siesta:     23   26.209635    0.729734    0.000000
siesta:     24   33.586014 -396.539696    0.000000
siesta:     25    2.533277    0.671145    0.000000
siesta:     26   -3.113351    2.408938    0.000000
siesta:     27    2.671607    1.312059    0.000000
siesta:     28   -1.296916    0.627557    0.000000
siesta:     29  -27.241626    5.263216    0.000000
siesta:     30  -34.466526 -550.886215    0.000000
siesta:     31   20.086038  550.701070    0.000000
siesta:     32   10.953945 -122.699474    0.000000
siesta:     33    0.248873    1.123428    0.000000
siesta:     34    6.896302   -3.089612    0.000000
siesta:     35   -0.405563    0.590420    0.000000
siesta:     36    3.080460   -2.528639    0.000000
siesta:     37   -0.146451    7.209175    0.000000
siesta:     38    0.019372   -7.213957    0.000000
siesta:     39  -14.619049  548.713404    0.000000
siesta:     40   -0.398391 -124.720716    0.000000
siesta:     41   -4.485223  555.088721    0.000000
siesta:     42   14.534556 -120.471783    0.000000
siesta:     43    2.157555    2.943444    0.000000
siesta:     44    3.015106   -1.846833    0.000000
siesta:     45  -31.378983  549.837430    0.000000
siesta:     46  -27.420361   -1.869669    0.000000
siesta:     47  -25.558310  409.811797    0.000000
siesta:     48  -21.560110   -1.691244    0.000000
siesta:     49    2.296217   -1.780566    0.000000
siesta:     50   -2.928454   -1.043382    0.000000
siesta:     51    1.025344    0.859951    0.000000
siesta:     52   -3.187156   -1.317683    0.000000
siesta:     53   -0.241759    4.933326    0.000000
siesta:     54    1.359097   -0.064054    0.000000
siesta:     55   -2.637157   -1.992534    0.000000
siesta:     56    0.406601   -3.324218    0.000000
siesta:     57    0.032830    6.247218    0.000000
siesta:     58   -2.349407   -8.702044    0.000000
siesta:     59    2.798968    3.119332    0.000000
siesta:     60   -1.706880    1.689721    0.000000
siesta:     61   -2.628252    0.691720    0.000000
siesta:     62   -0.205038 -565.349076    0.000000
siesta:     63    2.843435    1.692488    0.000000
siesta:     64    1.503797   -1.867720    0.000000
siesta:     65   22.410820    5.857157    0.000000
siesta:     66   18.888081 -557.269336    0.000000
siesta:     67  -22.136233    5.390827    0.000000
siesta:     68  -22.475565 -556.468710    0.000000
siesta:     69   -2.298767    1.026733    0.000000
siesta:     70    2.685372    2.103082    0.000000
siesta:     71   -1.150517  129.327506    0.000000
siesta:     72    9.607908 -543.215085    0.000000
siesta: ----------------------------------------
siesta:    Tot   -0.219260    0.116352    0.000000

siesta: Stress tensor (static) (eV/Ang**3):
siesta:    -0.462714    0.014006    0.000000
siesta:     0.014006   -1.564200    0.000000
siesta:     0.000000    0.000000   -0.000412

siesta: Cell volume =       1893.226884 Ang**3

siesta: Pressure (static):
siesta:                Solid            Molecule  Units
siesta:           0.00736006          0.10371013  Ry/Bohr**3
siesta:           0.67577549          9.52231167  eV/Ang**3
siesta:        1082.72340296      15256.59016926  kBar
(Free)E+ p_basis*V_orbitals  =       -9322.649215
(Free)Eharris+ p_basis*V_orbitals  =       -9322.660259

siesta: Electric dipole (a.u.)  =    0.000000    0.000000    0.000000
siesta: Electric dipole (Debye) =    0.000000    0.000000    0.000000

* Maximum dynamic memory allocated : Node    0 =   238 MB
* Maximum dynamic memory allocated : Node    1 =    84 MB
* Maximum dynamic memory allocated : Node    2 =    85 MB
* Maximum dynamic memory allocated : Node    3 =   224 MB
* Maximum dynamic memory allocated : Node    4 =   228 MB
* Maximum dynamic memory allocated : Node    5 =    83 MB
* Maximum dynamic memory allocated : Node    6 =    85 MB
* Maximum dynamic memory allocated : Node    7 =   210 MB

* Maximum memory occured during matrixMtoO                    

timer: CPU execution times:
timer:  Routine       Calls   Time/call    Tot.time        %
timer:  siesta            1  171925.559  171925.559   100.00
timer:  Setup             1       3.795       3.795     0.00
timer:  bands             3     269.064     807.193     0.47
timer:  writewave         1       0.041       0.041     0.00
timer:  KSV_init          1       0.006       0.006     0.00
timer:  IterMD            1  171108.802  171108.802    99.52
timer:  hsparse           1       0.399       0.399     0.00
timer:  overlap           1       7.787       7.787     0.00
timer:  IterSCF          39    4381.643  170884.079    99.39
timer:  kinefsm           2       4.036       8.071     0.00
timer:  nlefsm            2      21.196      42.391     0.02
timer:  DHSCF            40     116.860    4674.415     2.72
timer:  DHSCF1            1       0.992       0.992     0.00
timer:  DHSCF2            1      44.121      44.121     0.03
timer:  REORD           322       0.010       3.174     0.00
timer:  POISON           41       2.243      91.956     0.05
timer:  DHSCF3           40     114.611    4584.433     2.67
timer:  rhoofd           40      25.369    1014.748     0.59
timer:  cellXC           40       3.466     138.621     0.08
timer:  vmat             40      56.124    2244.965     1.31
timer:  MolMec            2       0.000       0.000     0.00
timer:  diagon           39    4263.234  166266.134    96.71
timer:  c-eigval       9130       6.669   60887.733    35.42
timer:  c-buildHS      9130       0.121    1106.116     0.64
timer:  cdiag         18139       6.885  124885.911    72.64
timer:  cdiag1        18139       0.427    7746.343     4.51
timer:  cdiag2        18139       1.908   34613.398    20.13
timer:  cdiag3        18139       3.933   71335.522    41.49
timer:  cdiag4        18139       0.227    4110.659     2.39
timer:  c-eigvec       9009       7.301   65775.467    38.26
timer:  c-buildD       9009       4.480   40360.754    23.48
timer:  DHSCF4            1      42.703      42.703     0.02
timer:  dfscf             1      40.018      40.018     0.02
timer:  overfsm           1       0.480       0.480     0.00
timer:  optical           1       5.061       5.061     0.00
  

elaps: ELAPSED times:
elaps:  Routine       Calls   Time/call    Tot.time        %
elaps:  siesta            1   21515.464   21515.464   100.00
elaps:  Setup             1       0.492       0.492     0.00
elaps:  bands             3      33.686     101.059     0.47
elaps:  writewave         1       0.005       0.005     0.00
elaps:  KSV_init          1       0.001       0.001     0.00
elaps:  IterMD            1   21413.247   21413.247    99.52
elaps:  hsparse           1       0.050       0.050     0.00
elaps:  overlap           1       0.981       0.981     0.00
elaps:  IterSCF          39     548.340   21385.264    99.39
elaps:  kinefsm           2       0.510       1.019     0.00
elaps:  nlefsm            2       2.768       5.536     0.03
elaps:  DHSCF            40      14.744     589.765     2.74
elaps:  DHSCF1            1       0.126       0.126     0.00
elaps:  DHSCF2            1       5.519       5.519     0.03
elaps:  REORD           322       0.001       0.426     0.00
elaps:  POISON           41       0.280      11.495     0.05
elaps:  DHSCF3           40      14.338     573.537     2.67
elaps:  rhoofd           40       6.545     261.795     1.22
elaps:  cellXC           40       0.433      17.320     0.08
elaps:  vmat             40       7.021     280.858     1.31
elaps:  MolMec            2       0.000       0.000     0.00
elaps:  diagon           39     533.541   20808.111    96.71
elaps:  c-eigval       9130       0.834    7618.165    35.41
elaps:  c-buildHS      9130       0.017     152.219     0.71
elaps:  cdiag         18139       0.846   15349.791    71.34
elaps:  cdiag1        18139       0.053     966.789     4.49
elaps:  cdiag2        18139       0.239    4331.236    20.13
elaps:  cdiag3        18139       0.493    8936.792    41.54
elaps:  cdiag4        18139       0.028     514.260     2.39
elaps:  c-eigvec       9009       0.886    7985.079    37.11
elaps:  c-buildD       9009       0.588    5298.680    24.63
elaps:  DHSCF4            1      10.293      10.293     0.05
elaps:  dfscf             1       9.749       9.749     0.05
elaps:  overfsm           1       0.064       0.064     0.00
elaps:  optical           1       0.001       0.001     0.00
  
>> End of run:  30-APR-2016   5:24:33
