Siesta Version:                                        siesta-3.2-pl-3
Architecture  : x86_64-unknown-linux-gnu--unknown
Compiler flags: mpiifort -g -O2 -fPIC -xSSE4.1 -fp-model source -shared-intel 
PARALLEL version

* Running on   12 nodes in parallel
>> Start of run:   2-MAY-2016   4:21:46

                           ***********************       
                           *  WELCOME TO SIESTA  *       
                           ***********************       

reinit: Reading from standard input
************************** Dump of input data file ****************************
#(1) General system descriptors
SystemName            GRP_doping    # Descriptive name of the system
SystemLabel           GRP_doping    # Short name for naming files
%include STRUCT.fdf
%include KPT.fdf
%include BASIS.fdf
#%include TS.fdf # for transiesta calculation
#(4) DFT, Grid, SCF
XC.functional         GGA           # LDA or GGA (default = LDA)
XC.authors            PBE           # CA (Ceperley-Aldr) = PZ
                                    #    (Perdew-Zunger) - LDA - Default
                                    # PW92 (Perdew-Wang-92) - LDA
                                    # PBE (Perdew-Burke-Ernzerhof) - GGA
MeshCutoff            200.000000    Ry      # Default: 50.0 Ry ~ 0.444 Bohr
                                    #         100.0 Ry ~ 0.314 Bohr
MaxSCFIterations      500           # Default: 50
DM.MixingWeight       0.05          # Default: 0.25
DM.NumberPulay        10            # Default: 0
DM.PulayOnFile        F             # SystemLabel.P1, SystemLabel.P2
DM.Tolerance          1.d-4         # Default: 1.d-4
DM.UseSaveDM          .true.        # because of the bug
SCFMustConverge       .true.
NeglNonOverlapInt     F             # Default: F
#(5) Eigenvalue problem: order-N or diagonalization
SolutionMethod        Diagon        # or Transiesta
ElectronicTemperature 300.0 K       # Default: 300.0 K
#(6) Molecular dynamics and relaxations
#MD.TypeOfRun          CG            # Type of dynamics:
#MD.VariableCell       F
#MD.NumCGsteps         0           # 0 for single-point / 100 for gopt
#MD.MaxCGDispl         0.2 Bohr      # Default: 0.2 Bohr
#MD.MaxForceTol        0.02 eV/Ang   # Default: 0.04 eV/Ang
#MD.MaxStressTol       1.0 GPa       # Default: 1.0 GPa
# Geometry Constraints
#%block GeometryConstraints
#	position from 1 to 44
#%endblock GeometryConstraints
BandLinesScale   pi/a
%block BandLines
 1   0.00000000  0.00000000  0.00000000
50   0.00000000  0.07809418  0.00000000
50   0.04509075  0.07809242  0.00000000
20   0.00000000  0.00000000  0.00000000
%endblock BandLines
************************** End of input data file *****************************

reinit: -----------------------------------------------------------------------
reinit: System Name: GRP_doping
reinit: -----------------------------------------------------------------------
reinit: System Label: GRP_doping                                                  
reinit: -----------------------------------------------------------------------

initatom: Reading input for the pseudopotentials and atomic orbitals ----------
 Species number:            1  Label: B Atomic number:           5
 Species number:            2  Label: C Atomic number:           6
Ground state valence configuration:   2s02  2p01
Reading pseudopotential information in formatted form from B.psf

Valence configuration for pseudopotential generation:
2s( 2.00) rc: 1.74
2p( 1.00) rc: 1.74
3d( 0.00) rc: 1.74
4f( 0.00) rc: 1.74
Ground state valence configuration:   2s02  2p02
Reading pseudopotential information in formatted form from C.psf

Valence configuration for pseudopotential generation:
2s( 2.00) rc: 1.54
2p( 2.00) rc: 1.54
3d( 0.00) rc: 1.54
4f( 0.00) rc: 1.54
For B, standard SIESTA heuristics set lmxkb to 3
 (one more than the basis l, including polarization orbitals).
Use PS.lmax or PS.KBprojectors blocks to override.
For C, standard SIESTA heuristics set lmxkb to 3
 (one more than the basis l, including polarization orbitals).
Use PS.lmax or PS.KBprojectors blocks to override.

<basis_specs>
===============================================================================
B                    Z=   5    Mass=  10.810        Charge= 0.17977+309
Lmxo=1 Lmxkb= 3    BasisType=split      Semic=F
L=0  Nsemic=0  Cnfigmx=2
          n=1  nzeta=2  polorb=0
            splnorm:   0.15000    
               vcte:    0.0000    
               rinn:    0.0000    
                rcs:    0.0000      0.0000    
            lambdas:    1.0000      1.0000    
L=1  Nsemic=0  Cnfigmx=2
          n=1  nzeta=2  polorb=1
            splnorm:   0.15000    
               vcte:    0.0000    
               rinn:    0.0000    
                rcs:    0.0000      0.0000    
            lambdas:    1.0000      1.0000    
-------------------------------------------------------------------------------
L=0  Nkbl=1  erefs: 0.17977+309
L=1  Nkbl=1  erefs: 0.17977+309
L=2  Nkbl=1  erefs: 0.17977+309
L=3  Nkbl=1  erefs: 0.17977+309
===============================================================================
</basis_specs>

atom: Called for B                     (Z =   5)

read_vps: Pseudopotential generation method:
read_vps: ATM3      Troullier-Martins                       
Total valence charge:    3.00000

read_vps: Pseudopotential includes a core correction:
read_vps: Pseudo-core for xc-correction

xc_check: Exchange-correlation functional:
xc_check: GGA Perdew, Burke & Ernzerhof 1996
V l=0 = -2*Zval/r beyond r=  1.7165
V l=1 = -2*Zval/r beyond r=  1.7165
V l=2 = -2*Zval/r beyond r=  1.7165
V l=3 = -2*Zval/r beyond r=  1.6951
All V_l potentials equal beyond r=  1.7165
This should be close to max(r_c) in ps generation
All pots = -2*Zval/r beyond r=  1.7165

VLOCAL1: 99.0% of the norm of Vloc inside     14.733 Ry
VLOCAL1: 99.9% of the norm of Vloc inside     33.577 Ry
atom: Maximum radius for 4*pi*r*r*local-pseudopot. charge    2.04484
atom: Maximum radius for r*vlocal+2*Zval:    1.75994
GHOST: No ghost state for L =  0
GHOST: No ghost state for L =  1
GHOST: No ghost state for L =  2
GHOST: No ghost state for L =  3

KBgen: Kleinman-Bylander projectors: 
   l= 0   rc=  1.897051   el= -0.693730   Ekb=  4.595746   kbcos=  0.286105
   l= 1   rc=  1.920920   el= -0.265236   Ekb= -2.350715   kbcos= -0.315747
   l= 2   rc=  2.044840   el=  0.002055   Ekb= -0.690767   kbcos= -0.013822
   l= 3   rc=  2.149707   el=  0.003188   Ekb= -0.315358   kbcos= -0.002055

KBgen: Total number of  Kleinman-Bylander projectors:   16
atom: -------------------------------------------------------------------------

atom: SANKEY-TYPE ORBITALS:
atom: Selected multiple-zeta basis: split     

SPLIT: Orbitals with angular momentum L= 0

SPLIT: Basis orbitals for state 2s

SPLIT: PAO cut-off radius determined from an
SPLIT: energy shift=  0.007350 Ry

   izeta = 1
                 lambda =    1.000000
                     rc =    5.422032
                 energy =   -0.686029
                kinetic =    0.576707
    potential(screened) =   -1.262736
       potential(ionic) =   -3.271094

   izeta = 2
                 rmatch =    4.222573
              splitnorm =    0.150000
                 energy =   -0.602132
                kinetic =    0.858975
    potential(screened) =   -1.461107
       potential(ionic) =   -3.582536

SPLIT: Orbitals with angular momentum L= 1

SPLIT: Basis orbitals for state 2p

SPLIT: PAO cut-off radius determined from an
SPLIT: energy shift=  0.007350 Ry

   izeta = 1
                 lambda =    1.000000
                     rc =    6.790259
                 energy =   -0.258578
                kinetic =    1.481412
    potential(screened) =   -1.739989
       potential(ionic) =   -3.657461

   izeta = 2
                 rmatch =    4.608740
              splitnorm =    0.150000
                 energy =   -0.173757
                kinetic =    2.186690
    potential(screened) =   -2.360447
       potential(ionic) =   -4.464260

POLgen: Perturbative polarization orbital with L=  2

POLgen: Polarization orbital for state 2p

   izeta = 1
                     rc =    6.790259
                 energy =    0.684082
                kinetic =    1.471481
    potential(screened) =   -0.787399
       potential(ionic) =   -2.406985
atom: Total number of Sankey-type orbitals: 13

atm_pop: Valence configuration (for local Pseudopot. screening):
 2s( 2.00)                                                            
 2p( 1.00)                                                            
Vna: chval, zval:    3.00000   3.00000

Vna:  Cut-off radius for the neutral-atom potential:   6.790259
comcore: Pseudo-core radius Rcore=  2.122997

atom: _________________________________________________________________________

<basis_specs>
===============================================================================
C                    Z=   6    Mass=  12.010        Charge= 0.17977+309
Lmxo=1 Lmxkb= 3    BasisType=split      Semic=F
L=0  Nsemic=0  Cnfigmx=2
          n=1  nzeta=2  polorb=0
            splnorm:   0.15000    
               vcte:    0.0000    
               rinn:    0.0000    
                rcs:    0.0000      0.0000    
            lambdas:    1.0000      1.0000    
L=1  Nsemic=0  Cnfigmx=2
          n=1  nzeta=2  polorb=1
            splnorm:   0.15000    
               vcte:    0.0000    
               rinn:    0.0000    
                rcs:    0.0000      0.0000    
            lambdas:    1.0000      1.0000    
-------------------------------------------------------------------------------
L=0  Nkbl=1  erefs: 0.17977+309
L=1  Nkbl=1  erefs: 0.17977+309
L=2  Nkbl=1  erefs: 0.17977+309
L=3  Nkbl=1  erefs: 0.17977+309
===============================================================================
</basis_specs>

atom: Called for C                     (Z =   6)

read_vps: Pseudopotential generation method:
read_vps: ATM3      Troullier-Martins                       
Total valence charge:    4.00000

read_vps: Pseudopotential includes a core correction:
read_vps: Pseudo-core for xc-correction

xc_check: Exchange-correlation functional:
xc_check: GGA Perdew, Burke & Ernzerhof 1996
V l=0 = -2*Zval/r beyond r=  1.5227
V l=1 = -2*Zval/r beyond r=  1.5227
V l=2 = -2*Zval/r beyond r=  1.5227
V l=3 = -2*Zval/r beyond r=  1.5038
All V_l potentials equal beyond r=  1.5227
This should be close to max(r_c) in ps generation
All pots = -2*Zval/r beyond r=  1.5227

VLOCAL1: 99.0% of the norm of Vloc inside     18.722 Ry
VLOCAL1: 99.9% of the norm of Vloc inside     42.668 Ry
atom: Maximum radius for 4*pi*r*r*local-pseudopot. charge    1.83678
atom: Maximum radius for r*vlocal+2*Zval:    1.58088
GHOST: No ghost state for L =  0
GHOST: No ghost state for L =  1
GHOST: No ghost state for L =  2
GHOST: No ghost state for L =  3

KBgen: Kleinman-Bylander projectors: 
   l= 0   rc=  1.704034   el= -1.009801   Ekb=  5.335044   kbcos=  0.316824
   l= 1   rc=  1.704034   el= -0.388707   Ekb= -3.785862   kbcos= -0.366464
   l= 2   rc=  1.791422   el=  0.001971   Ekb= -0.970471   kbcos= -0.009212
   l= 3   rc=  1.859892   el=  0.003065   Ekb= -0.399525   kbcos= -0.001223

KBgen: Total number of  Kleinman-Bylander projectors:   16
atom: -------------------------------------------------------------------------

atom: SANKEY-TYPE ORBITALS:
atom: Selected multiple-zeta basis: split     

SPLIT: Orbitals with angular momentum L= 0

SPLIT: Basis orbitals for state 2s

SPLIT: PAO cut-off radius determined from an
SPLIT: energy shift=  0.007350 Ry

   izeta = 1
                 lambda =    1.000000
                     rc =    4.632753
                 energy =   -1.002270
                kinetic =    0.855760
    potential(screened) =   -1.858031
       potential(ionic) =   -5.417575

   izeta = 2
                 rmatch =    3.431921
              splitnorm =    0.150000
                 energy =   -0.867111
                kinetic =    1.300804
    potential(screened) =   -2.167915
       potential(ionic) =   -5.962684

SPLIT: Orbitals with angular momentum L= 1

SPLIT: Basis orbitals for state 2p

SPLIT: PAO cut-off radius determined from an
SPLIT: energy shift=  0.007350 Ry

   izeta = 1
                 lambda =    1.000000
                     rc =    5.658549
                 energy =   -0.381140
                kinetic =    2.399701
    potential(screened) =   -2.780841
       potential(ionic) =   -6.206085

   izeta = 2
                 rmatch =    3.653288
              splitnorm =    0.150000
                 energy =   -0.249149
                kinetic =    3.542762
    potential(screened) =   -3.791911
       potential(ionic) =   -7.581078

POLgen: Perturbative polarization orbital with L=  2

POLgen: Polarization orbital for state 2p

   izeta = 1
                     rc =    5.658549
                 energy =    1.109913
                kinetic =    2.304789
    potential(screened) =   -1.194876
       potential(ionic) =   -4.013592
atom: Total number of Sankey-type orbitals: 13

atm_pop: Valence configuration (for local Pseudopot. screening):
 2s( 2.00)                                                            
 2p( 2.00)                                                            
Vna: chval, zval:    4.00000   4.00000

Vna:  Cut-off radius for the neutral-atom potential:   5.658549
comcore: Pseudo-core radius Rcore=  1.791422

atom: _________________________________________________________________________

prinput: Basis input ----------------------------------------------------------

PAO.BasisType split     

%block ChemicalSpeciesLabel
    1    5 B                       # Species index, atomic number, species label
    2    6 C                       # Species index, atomic number, species label
%endblock ChemicalSpeciesLabel

%block PAO.Basis                 # Define Basis set
B                     2                    # Species label, number of l-shells
 n=2   0   2                         # n, l, Nzeta 
   5.422      4.223   
   1.000      1.000   
 n=2   1   2 P   1                   # n, l, Nzeta, Polarization, NzetaPol
   6.790      4.609   
   1.000      1.000   
C                     2                    # Species label, number of l-shells
 n=2   0   2                         # n, l, Nzeta 
   4.633      3.432   
   1.000      1.000   
 n=2   1   2 P   1                   # n, l, Nzeta, Polarization, NzetaPol
   5.659      3.653   
   1.000      1.000   
%endblock PAO.Basis

prinput: ----------------------------------------------------------------------

coor:   Atomic-coordinates input format  =     Fractional

siesta: Atomic coordinates (Bohr) and species
siesta:     -2.35420  38.89134   0.00000  1        1
siesta:     -2.35420  41.57980   0.00000  1        2
siesta:      4.63094  21.41544   0.00000  1        3
siesta:     -0.02582  21.41544   0.00000  1        4
siesta:      2.30256  22.75985   0.00000  1        5
siesta:      2.30256  25.44831   0.00000  1        6
siesta:     -7.01096  17.38257   0.00000  1        7
siesta:     -2.35420  22.75985   0.00000  1        8
siesta:     -2.35420  25.44831   0.00000  1        9
siesta:     -9.33934  18.72698   0.00000  1       10
siesta:     -9.33934  21.41544   0.00000  1       11
siesta:     -0.02582  26.79272   0.00000  1       12
siesta:     -0.02582  29.48119   0.00000  1       13
siesta:     -0.02582  34.85847   0.00000  1       14
siesta:     -0.02582  37.54693   0.00000  1       15
siesta:     -0.02582  42.92421   0.00000  1       16
siesta:     -0.02582   2.59549   0.00000  2       17
siesta:     -0.02582   5.28395   0.00000  2       18
siesta:      2.30256  38.89134   0.00000  2       19
siesta:      2.30256  41.57980   0.00000  2       20
siesta:      4.63094  34.85847   0.00000  2       21
siesta:      4.63094  37.54693   0.00000  2       22
siesta:      6.95932  30.82560   0.00000  2       23
siesta:      6.95932  33.51406   0.00000  2       24
siesta:      9.28770  26.79272   0.00000  2       25
siesta:      9.28770  29.48119   0.00000  2       26
siesta:     -4.68258  34.85847   0.00000  2       27
siesta:     -4.68258  37.54693   0.00000  2       28
siesta:      2.30256   6.62836   0.00000  2       29
siesta:      2.30256   9.31683   0.00000  2       30
siesta:      4.63094  10.66124   0.00000  2       31
siesta:      4.63094  13.34970   0.00000  2       32
siesta:      6.95932  14.69411   0.00000  2       33
siesta:      6.95932  17.38257   0.00000  2       34
siesta:      9.28770  18.72698   0.00000  2       35
siesta:      9.28770  21.41544   0.00000  2       36
siesta:     11.61608  22.75985   0.00000  2       37
siesta:     11.61608  25.44831   0.00000  2       38
siesta:     -2.35420   6.62836   0.00000  2       39
siesta:     -2.35420   9.31683   0.00000  2       40
siesta:     -0.02582  10.66124   0.00000  2       41
siesta:     -0.02582  13.34970   0.00000  2       42
siesta:      2.30256  14.69411   0.00000  2       43
siesta:      2.30256  17.38257   0.00000  2       44
siesta:      4.63094  18.72698   0.00000  2       45
siesta:      6.95932  22.75985   0.00000  2       46
siesta:      6.95932  25.44831   0.00000  2       47
siesta:     -4.68258  10.66124   0.00000  2       48
siesta:     -4.68258  13.34970   0.00000  2       49
siesta:     -2.35420  14.69411   0.00000  2       50
siesta:     -2.35420  17.38257   0.00000  2       51
siesta:     -0.02582  18.72698   0.00000  2       52
siesta:     -7.01096  14.69411   0.00000  2       53
siesta:     -4.68258  18.72698   0.00000  2       54
siesta:     -4.68258  21.41544   0.00000  2       55
siesta:     -7.01096  22.75985   0.00000  2       56
siesta:     -7.01096  25.44831   0.00000  2       57
siesta:    -11.66772  22.75985   0.00000  2       58
siesta:    -11.66772  25.44831   0.00000  2       59
siesta:     -9.33934  26.79272   0.00000  2       60
siesta:     -9.33934  29.48119   0.00000  2       61
siesta:      4.63094  26.79272   0.00000  2       62
siesta:      4.63094  29.48119   0.00000  2       63
siesta:     -4.68258  26.79272   0.00000  2       64
siesta:     -4.68258  29.48119   0.00000  2       65
siesta:      2.30256  30.82560   0.00000  2       66
siesta:      2.30256  33.51406   0.00000  2       67
siesta:     -2.35420  30.82560   0.00000  2       68
siesta:     -2.35420  33.51406   0.00000  2       69
siesta:     -7.01096  30.82560   0.00000  2       70
siesta:     -7.01096  33.51406   0.00000  2       71
siesta:     -0.02582  45.61267   0.00000  2       72

siesta: System type = slab      

initatomlists: Number of atoms, orbitals, and projectors:     72   936  1152

siesta: ******************** Simulation parameters ****************************
siesta:
siesta: The following are some of the parameters of the simulation.
siesta: A complete list of the parameters used, including default values,
siesta: can be found in file out.fdf
siesta:
redata: Non-Collinear-spin run           =     F
redata: SpinPolarized (Up/Down) run      =     F
redata: Number of spin components        =     1
redata: Long output                      =     F
redata: Number of Atomic Species         =        2
redata: Charge density info will appear in .RHO file
redata: Write Mulliken Pop.              =     NO
redata: Mesh Cutoff                      =   200.0000  Ry
redata: Net charge of the system         =     0.0000 |e|
redata: Max. number of SCF Iter          =      500
redata: SCF convergence failure will abort job
redata: Performing Pulay mixing using    =    10 iterations
redata: Mix DM in first SCF step ?       =     F
redata: Write Pulay info on disk?        =     F
redata: Discard 1st Pulay DM after  kick =     F
redata: New DM Mixing Weight             =     0.0500
redata: New DM Occupancy tolerance       = 0.000000000001
redata: No kicks to SCF
redata: DM Mixing Weight for Kicks       =     0.5000
redata: DM Tolerance for SCF             =     0.000100
redata: Require Energy convergence for SCF =     F
redata: DM Energy tolerance for SCF      =     0.000100 eV
redata: Require Harris convergence for SCF =     F
redata: DM Harris energy tolerance for SCF =     0.000100 eV
redata: Using Saved Data (generic)   =     F
redata: Use continuation files for DM    =     T
redata: Neglect nonoverlap interactions  =     F
redata: Method of Calculation            =     Diagonalization
redata: Divide and Conquer               =     T
redata: Electronic Temperature           =     0.0019  Ry
redata: Fix the spin of the system       =     F
redata: Dynamics option                  =     Verlet MD run
redata: Initial MD time step             =        1
redata:   Final MD time step             =        1
redata: Length of MD time step           =     1.0000  fs
redata: Initial Temperature of MD run    =     0.0000  K
redata: Perform a MD quench              =     F
redata: ***********************************************************************
Total number of electrons:   272.000000
Total ionic charge:   272.000000

* ProcessorY, Blocksize:    3  24

k-point displ. along   1 input, could be:     0.50    0.00
k-point displ. along   2 input, could be:     0.50    0.00
 Kpoints in:          231 . Kpoints trimmed:          231

siesta: k-grid: Number of k-points =   231
siesta: k-grid: Cutoff (effective) =     5.000 Ang
siesta: k-grid: Supercell and displacements
siesta: k-grid:   21   0   0      0.500
siesta: k-grid:    0  21   0      0.500
siesta: k-grid:    0   0   1      0.000
Naive supercell factors:     2    2    2

superc: Internal auxiliary supercell:     2 x     2 x     2  =       8
superc: Number of atoms, orbitals, and projectors:    576   7488   9216

* Maximum dynamic memory allocated =     4 MB

siesta:                 ==============================
                            Begin MD step =      1
                        ==============================

superc: Internal auxiliary supercell:     2 x     2 x     2  =       8
superc: Number of atoms, orbitals, and projectors:    576   7488   9216

outcell: Unit cell vectors (Ang):
       12.804619    7.392750    0.000000
        0.000000   14.785500    0.000000
        0.000000    0.000000   10.000000

outcell: Cell vector modules (Ang)   :   14.785500   14.785500   10.000000
outcell: Cell angles (23,13,12) (deg):     90.0000     90.0000     60.0000
outcell: Cell volume (Ang**3)        :   1893.2269
New_DM. Step:     1
Initializing Density Matrix...

InitMesh: MESH =   120 x   120 x    90 =     1296000
InitMesh: Mesh cutoff (required, used) =   200.000   223.865 Ry

* Maximum dynamic memory allocated =   154 MB

stepf: Fermi-Dirac step function

siesta: Program's energy decomposition (eV):
siesta: Ebs     =     -5597.628553
siesta: Eions   =     16354.103692
siesta: Ena     =      4343.525164
siesta: Ekin    =      5534.369168
siesta: Enl     =       777.084244
siesta: DEna    =        -0.000010
siesta: DUscf   =         0.000000
siesta: DUext   =         0.000000
siesta: Exc     =     -4189.282856
siesta: eta*DQ  =         0.000000
siesta: Emadel  =         0.000000
siesta: Emeta   =         0.000000
siesta: Emolmec =         0.000000
siesta: Ekinion =         0.000000
siesta: Eharris =     -9653.198105
siesta: Etot    =     -9888.407982
siesta: FreeEng =     -9888.407982

siesta: iscf   Eharris(eV)      E_KS(eV)   FreeEng(eV)   dDmax  Ef(eV)
siesta:    1    -9653.1981    -9888.4080    -9888.4080  7.2321 -8.3629
timer: Routine,Calls,Time,% = IterSCF        1    3054.729  99.59
elaps: Routine,Calls,Wall,% = IterSCF        1     255.164  99.59
siesta:    2   -14877.9785    -8814.4705    -8814.5764 16.7783 -4.4735
siesta:    3    -9649.8910    -9715.7556    -9715.7958  1.8711 -6.0403
siesta:    4    -9598.1464    -9624.3052    -9624.3713  1.4045 -5.1732
siesta:    5    -9543.6035    -9561.4312    -9561.4380  1.3368 -5.1646
siesta:    6    -9513.7809    -9523.1187    -9523.1336  1.2066 -5.1597
siesta:    7    -9502.9444    -9489.5286    -9489.5836  0.8090 -5.2095
siesta:    8    -9499.1321    -9483.7089    -9483.7764  0.8181 -5.2288
siesta:    9    -9497.2540    -9482.9821    -9483.0326  0.7550 -5.2739
siesta:   10    -9495.9189    -9479.8998    -9479.9339  0.6845 -5.2439
siesta:   11    -9495.0832    -9472.4205    -9472.4828  0.3711 -5.1683
siesta:   12    -9495.3869    -9472.0325    -9472.0965  0.6977 -5.0982
siesta:   13    -9495.7341    -9468.6856    -9468.7405  0.3208 -5.1112
siesta:   14    -9494.2197    -9471.2374    -9471.3184  0.2499 -5.1373
siesta:   15    -9493.7287    -9473.9130    -9473.9770  0.2276 -5.1403
siesta:   16    -9493.5603    -9479.6109    -9479.6813  0.3190 -5.1555
siesta:   17    -9493.5409    -9476.8977    -9476.9777  0.2162 -5.1538
siesta:   18    -9493.1369    -9484.1530    -9484.2242  0.2888 -5.1726
siesta:   19    -9492.9901    -9486.0959    -9486.1726  0.1717 -5.1916
siesta:   20    -9492.9892    -9487.8028    -9487.8766  0.1197 -5.1958
siesta:   21    -9492.9507    -9490.5206    -9490.5920  0.0719 -5.2002
siesta:   22    -9492.9251    -9490.0260    -9490.1029  0.0561 -5.1929
siesta:   23    -9492.9011    -9490.5483    -9490.6226  0.0583 -5.1884
siesta:   24    -9492.8850    -9489.9822    -9490.0596  0.0392 -5.1758
siesta:   25    -9492.8828    -9490.0993    -9490.1754  0.0349 -5.1728
siesta:   26    -9492.8818    -9490.7908    -9490.8663  0.0297 -5.1727
siesta:   27    -9492.8833    -9491.4061    -9491.4829  0.0320 -5.1770
siesta:   28    -9492.8809    -9491.9422    -9492.0167  0.0176 -5.1802
siesta:   29    -9492.8790    -9492.3427    -9492.4168  0.0078 -5.1815
siesta:   30    -9492.8790    -9492.5600    -9492.6349  0.0087 -5.1830
siesta:   31    -9492.8788    -9492.6894    -9492.7643  0.0084 -5.1833
siesta:   32    -9492.8784    -9492.9734    -9493.0483  0.0054 -5.1833
siesta:   33    -9492.8784    -9493.0017    -9493.0768  0.0035 -5.1829
siesta:   34    -9492.8784    -9492.9622    -9493.0372  0.0028 -5.1822
siesta:   35    -9492.8785    -9492.9055    -9492.9805  0.0016 -5.1820
siesta:   36    -9492.8785    -9492.9016    -9492.9765  0.0021 -5.1818
siesta:   37    -9492.8786    -9492.8956    -9492.9705  0.0009 -5.1818
siesta:   38    -9492.8786    -9492.8962    -9492.9710  0.0004 -5.1818
siesta:   39    -9492.8785    -9492.8862    -9492.9610  0.0005 -5.1818
siesta:   40    -9492.8785    -9492.8767    -9492.9515  0.0004 -5.1818
siesta:   41    -9492.8785    -9492.8717    -9492.9465  0.0003 -5.1818
siesta:   42    -9492.8785    -9492.8755    -9492.9504  0.0002 -5.1819
siesta:   43    -9492.8785    -9492.8782    -9492.9531  0.0001 -5.1819
siesta:   44    -9492.8785    -9492.8793    -9492.9541  0.0001 -5.1819

siesta: E_KS(eV) =            -9492.8788

siesta: E_KS - E_eggbox =     -9492.8788

siesta: Atomic forces (eV/Ang):
----------------------------------------
   Tot   -0.110518   -0.198726    0.000000
----------------------------------------
   Max  571.611107
   Res  148.470498    sqrt( Sum f_i^2 / 3N )
----------------------------------------
   Max  571.611107    constrained

Stress-tensor-Voigt (kbar):     -761.75    -2654.93       -0.52        9.19        0.00        0.00
(Free)E + p*V (eV/cell)    -8146.9778
Target enthalpy (eV/cell)    -9492.9536

siesta: Stress tensor (static) (eV/Ang**3):
        -0.475441    0.005737    0.000000
         0.005737   -1.657062    0.000000
         0.000000    0.000000   -0.000326

siesta: Pressure (static):       1139.06804583  kBar

siesta: Stress tensor (total) (eV/Ang**3):
        -0.475441    0.005737    0.000000
         0.005737   -1.657062    0.000000
         0.000000    0.000000   -0.000326

siesta: Pressure (total):       1139.06804583  kBar

siesta: Temp_ion =       0.000 K

* Maximum dynamic memory allocated =   167 MB
Computing bands...

siesta: Program's energy decomposition (eV):
siesta: Ebs     =     -4226.484404
siesta: Eions   =     16354.103692
siesta: Ena     =      4343.525164
siesta: Ekin    =      8396.997929
siesta: Enl     =      -850.044566
siesta: DEna    =      -776.609349
siesta: DUscf   =       105.533169
siesta: DUext   =         0.000000
siesta: Exc     =     -4358.177424
siesta: eta*DQ  =         0.000000
siesta: Emadel  =         0.000000
siesta: Emeta   =         0.000000
siesta: Emolmec =         0.000000
siesta: Ekinion =         0.000000
siesta: Eharris =     -9492.878531
siesta: Etot    =     -9492.878768
siesta: FreeEng =     -9492.953608

siesta: Final energy (eV):
siesta:  Band Struct. =   -4226.484404
siesta:       Kinetic =    8396.997929
siesta:       Hartree =   27085.967966
siesta:    Ext. field =       0.000000
siesta:   Exch.-corr. =   -4358.177424
siesta:  Ion-electron =  -62259.577633
siesta:       Ion-ion =   21641.910393
siesta:       Ekinion =       0.000000
siesta:         Total =   -9492.878768

siesta: Atomic forces (eV/Ang):
siesta:      1    2.345690  105.113383    0.000000
siesta:      2   -0.321395 -392.268958    0.000000
siesta:      3    4.138965   -1.301417    0.000000
siesta:      4    1.430662   -4.289782    0.000000
siesta:      5   -3.060634   -1.653378    0.000000
siesta:      6    6.025891    3.843474    0.000000
siesta:      7    0.352594   -4.878946    0.000000
siesta:      8   -4.080442   -3.429080    0.000000
siesta:      9   -3.522310    4.203204    0.000000
siesta:     10   -4.155273   -2.874322    0.000000
siesta:     11   -3.679132    2.426517    0.000000
siesta:     12   -0.778678   -0.182486    0.000000
siesta:     13    0.390171 -411.927856    0.000000
siesta:     14    0.985824  113.444910    0.000000
siesta:     15   -5.658561 -392.555243    0.000000
siesta:     16   -5.244644  108.551951    0.000000
siesta:     17   -0.019847  410.194258    0.000000
siesta:     18    0.354123 -125.853311    0.000000
siesta:     19   -6.765051  118.296599    0.000000
siesta:     20    5.945003 -546.238911    0.000000
siesta:     21   26.874602    3.842486    0.000000
siesta:     22   34.565622 -546.969655    0.000000
siesta:     23    2.957174   -0.005597    0.000000
siesta:     24   -3.055932    2.393435    0.000000
siesta:     25    1.957769    1.741708    0.000000
siesta:     26   -0.927565    0.843779    0.000000
siesta:     27  -27.233068    4.278877    0.000000
siesta:     28  -25.358599 -543.304809    0.000000
siesta:     29   22.757673  548.483752    0.000000
siesta:     30   -3.090648 -128.019402    0.000000
siesta:     31   34.659918  547.899678    0.000000
siesta:     32   26.671372   -3.018091    0.000000
siesta:     33   -2.731866   -2.135997    0.000000
siesta:     34    2.528279   -0.523525    0.000000
siesta:     35   -1.234785   -0.628875    0.000000
siesta:     36    2.578856   -1.307875    0.000000
siesta:     37   -0.342990    6.658693    0.000000
siesta:     38    0.127043   -6.534428    0.000000
siesta:     39  -22.749395  551.670595    0.000000
siesta:     40    3.377216 -128.984189    0.000000
siesta:     41    2.246292  408.702636    0.000000
siesta:     42   -5.779093 -123.650498    0.000000
siesta:     43   34.691257  559.153439    0.000000
siesta:     44   18.668223   -7.339956    0.000000
siesta:     45   -1.636853   -1.840204    0.000000
siesta:     46    2.665101    2.331619    0.000000
siesta:     47    0.604473   -0.588586    0.000000
siesta:     48  -36.378759  549.623105    0.000000
siesta:     49  -23.886977   -2.819751    0.000000
siesta:     50  -30.795260  408.085364    0.000000
siesta:     51  -19.767024   -2.685982    0.000000
siesta:     52   -1.158766  571.611107    0.000000
siesta:     53    2.702239   -4.596990    0.000000
siesta:     54    4.245017    2.464165    0.000000
siesta:     55   -1.914298   -0.604128    0.000000
siesta:     56    2.377550    2.026228    0.000000
siesta:     57    0.305836   -0.497420    0.000000
siesta:     58   -2.499244    8.940677    0.000000
siesta:     59   -0.269627   -6.827648    0.000000
siesta:     60   -2.641332    1.874674    0.000000
siesta:     61    1.142592   -0.053206    0.000000
siesta:     62    2.441047    1.631287    0.000000
siesta:     63   -1.226215   -1.069504    0.000000
siesta:     64   -2.806480    1.220302    0.000000
siesta:     65    0.808901   -1.196154    0.000000
siesta:     66   21.154807    2.252043    0.000000
siesta:     67   17.916825 -550.006503    0.000000
siesta:     68  -21.028076    2.524943    0.000000
siesta:     69  -18.073606 -550.814787    0.000000
siesta:     70   -2.452773    0.786762    0.000000
siesta:     71    2.656091    2.055293    0.000000
siesta:     72    0.563985 -555.892218    0.000000
siesta: ----------------------------------------
siesta:    Tot   -0.110518   -0.198726    0.000000

siesta: Stress tensor (static) (eV/Ang**3):
siesta:    -0.475441    0.005737    0.000000
siesta:     0.005737   -1.657062    0.000000
siesta:     0.000000    0.000000   -0.000326

siesta: Cell volume =       1893.226884 Ang**3

siesta: Pressure (static):
siesta:                Solid            Molecule  Units
siesta:           0.00774307          0.11439405  Ry/Bohr**3
siesta:           0.71094267         10.50327256  eV/Ang**3
siesta:        1139.06804583      16828.27976810  kBar
(Free)E+ p_basis*V_orbitals  =       -9457.160736
(Free)Eharris+ p_basis*V_orbitals  =       -9457.160007

siesta: Electric dipole (a.u.)  =    0.000000    0.000000    0.000000
siesta: Electric dipole (Debye) =    0.000000    0.000000    0.000000

* Maximum dynamic memory allocated : Node    0 =   167 MB
* Maximum dynamic memory allocated : Node    1 =    65 MB
* Maximum dynamic memory allocated : Node    2 =    69 MB
* Maximum dynamic memory allocated : Node    3 =   155 MB
* Maximum dynamic memory allocated : Node    4 =   166 MB
* Maximum dynamic memory allocated : Node    5 =    61 MB
* Maximum dynamic memory allocated : Node    6 =    63 MB
* Maximum dynamic memory allocated : Node    7 =   155 MB
* Maximum dynamic memory allocated : Node    8 =   154 MB
* Maximum dynamic memory allocated : Node    9 =    62 MB
* Maximum dynamic memory allocated : Node   10 =    64 MB
* Maximum dynamic memory allocated : Node   11 =   147 MB

* Maximum memory occured during matrixMtoO                    

timer: CPU execution times:
timer:  Routine       Calls   Time/call    Tot.time        %
timer:  siesta            1  131164.161  131164.161   100.00
timer:  Setup             1       3.371       3.371     0.00
timer:  bands             3     227.022     681.065     0.52
timer:  writewave         1       0.022       0.022     0.00
timer:  KSV_init          1       0.007       0.007     0.00
timer:  IterMD            1  130472.659  130472.659    99.47
timer:  hsparse           1       0.283       0.283     0.00
timer:  overlap           1       7.420       7.420     0.01
timer:  IterSCF          44    2961.793  130318.877    99.36
timer:  kinefsm           2       3.781       7.562     0.01
timer:  nlefsm            2      20.203      40.407     0.03
timer:  DHSCF            45      84.392    3797.632     2.90
timer:  DHSCF1            1       1.191       1.191     0.00
timer:  DHSCF2            1      32.668      32.668     0.02
timer:  REORD           362       0.002       0.836     0.00
timer:  POISON           46       0.452      20.800     0.02
timer:  DHSCF3           45      83.008    3735.355     2.85
timer:  rhoofd           45      17.361     781.252     0.60
timer:  cellXC           45       2.412     108.533     0.08
timer:  vmat             45      42.317    1904.278     1.45
timer:  MolMec            2       0.000       0.000     0.00
timer:  diagon           44    2876.196  126552.620    96.48
timer:  c-eigval      10285       5.589   57487.797    43.83
timer:  c-buildHS     10285       0.036     372.653     0.28
timer:  cdiag         20449       5.691  116377.220    88.73
timer:  cdiag1        20449       0.262    5362.045     4.09
timer:  cdiag2        20449       1.835   37527.424    28.61
timer:  cdiag3        20449       3.380   69111.974    52.69
timer:  cdiag4        20449       0.087    1769.004     1.35
timer:  c-eigvec      10164       5.861   59575.611    45.42
timer:  c-buildD      10164       0.995   10114.486     7.71
timer:  DHSCF4            1      28.120      28.120     0.02
timer:  dfscf             1      26.011      26.011     0.02
timer:  overfsm           1       0.327       0.327     0.00
timer:  optical           1       6.450       6.450     0.00
  

elaps: ELAPSED times:
elaps:  Routine       Calls   Time/call    Tot.time        %
elaps:  siesta            1   10956.070   10956.070   100.00
elaps:  Setup             1       0.281       0.281     0.00
elaps:  bands             3      18.979      56.936     0.52
elaps:  writewave         1       0.002       0.002     0.00
elaps:  KSV_init          1       0.000       0.000     0.00
elaps:  IterMD            1   10898.310   10898.310    99.47
elaps:  hsparse           1       0.029       0.029     0.00
elaps:  overlap           1       0.715       0.715     0.01
elaps:  IterSCF          44     247.397   10885.464    99.36
elaps:  kinefsm           2       0.367       0.734     0.01
elaps:  nlefsm            2       1.714       3.427     0.03
elaps:  DHSCF            45       7.098     319.423     2.92
elaps:  DHSCF1            1       0.101       0.101     0.00
elaps:  DHSCF2            1       2.728       2.728     0.02
elaps:  REORD           362       0.000       0.109     0.00
elaps:  POISON           46       0.038       1.756     0.02
elaps:  DHSCF3           45       6.935     312.065     2.85
elaps:  rhoofd           45       2.973     133.772     1.22
elaps:  cellXC           45       0.201       9.045     0.08
elaps:  vmat             45       3.536     159.111     1.45
elaps:  MolMec            2       0.000       0.000     0.00
elaps:  diagon           44     240.254   10571.163    96.49
elaps:  c-eigval      10285       0.467    4801.868    43.83
elaps:  c-buildHS     10285       0.004      39.176     0.36
elaps:  cdiag         20449       0.470    9620.638    87.81
elaps:  cdiag1        20449       0.021     438.553     4.00
elaps:  cdiag2        20449       0.153    3137.521    28.64
elaps:  cdiag3        20449       0.283    5781.012    52.77
elaps:  cdiag4        20449       0.007     140.994     1.29
elaps:  c-eigvec      10164       0.481    4890.595    44.64
elaps:  c-buildD      10164       0.092     930.392     8.49
elaps:  DHSCF4            1       4.481       4.481     0.04
elaps:  dfscf             1       4.224       4.224     0.04
elaps:  overfsm           1       0.034       0.034     0.00
elaps:  optical           1       0.000       0.000     0.00
  
>> End of run:   2-MAY-2016   7:24:22
