Siesta Version:                                        siesta-3.2-pl-3
Architecture  : x86_64-unknown-linux-gnu--unknown
Compiler flags: mpiifort -g -O2 -fPIC -xSSE4.1 -fp-model source -shared-intel 
PARALLEL version

* Running on    8 nodes in parallel
>> Start of run:  26-APR-2016   2:07:50

                           ***********************       
                           *  WELCOME TO SIESTA  *       
                           ***********************       

reinit: Reading from standard input
************************** Dump of input data file ****************************
#(1) General system descriptors
SystemName            GRP_doping    # Descriptive name of the system
SystemLabel           GRP_doping    # Short name for naming files
%include STRUCT.fdf
%include KPT.fdf
%include BASIS.fdf
#%include TS.fdf # for transiesta calculation
#(4) DFT, Grid, SCF
XC.functional         GGA           # LDA or GGA (default = LDA)
XC.authors            PBE           # CA (Ceperley-Aldr) = PZ
                                    #    (Perdew-Zunger) - LDA - Default
                                    # PW92 (Perdew-Wang-92) - LDA
                                    # PBE (Perdew-Burke-Ernzerhof) - GGA
MeshCutoff            200.000000    Ry      # Default: 50.0 Ry ~ 0.444 Bohr
                                    #         100.0 Ry ~ 0.314 Bohr
MaxSCFIterations      500           # Default: 50
DM.MixingWeight       0.05          # Default: 0.25
DM.NumberPulay        10            # Default: 0
DM.PulayOnFile        F             # SystemLabel.P1, SystemLabel.P2
DM.Tolerance          1.d-4         # Default: 1.d-4
DM.UseSaveDM          .true.        # because of the bug
SCFMustConverge       .true.
NeglNonOverlapInt     F             # Default: F
#(5) Eigenvalue problem: order-N or diagonalization
SolutionMethod        Diagon        # or Transiesta
ElectronicTemperature 300.0 K       # Default: 300.0 K
#(6) Molecular dynamics and relaxations
#MD.TypeOfRun          CG            # Type of dynamics:
#MD.VariableCell       F
#MD.NumCGsteps         0           # 0 for single-point / 100 for gopt
#MD.MaxCGDispl         0.2 Bohr      # Default: 0.2 Bohr
#MD.MaxForceTol        0.02 eV/Ang   # Default: 0.04 eV/Ang
#MD.MaxStressTol       1.0 GPa       # Default: 1.0 GPa
# Geometry Constraints
#%block GeometryConstraints
#	position from 1 to 44
#%endblock GeometryConstraints
BandLinesScale   pi/a
%block BandLines
 1   0.00000000  0.00000000  0.00000000
50   0.00000000  0.07809418  0.00000000
50   0.04509075  0.07809242  0.00000000
20   0.00000000  0.00000000  0.00000000
%endblock BandLines
************************** End of input data file *****************************

reinit: -----------------------------------------------------------------------
reinit: System Name: GRP_doping
reinit: -----------------------------------------------------------------------
reinit: System Label: GRP_doping                                                  
reinit: -----------------------------------------------------------------------

initatom: Reading input for the pseudopotentials and atomic orbitals ----------
 Species number:            1  Label: N Atomic number:           7
 Species number:            2  Label: C Atomic number:           6
Ground state valence configuration:   2s02  2p03
Reading pseudopotential information in formatted form from N.psf

Valence configuration for pseudopotential generation:
2s( 2.00) rc: 1.48
2p( 3.00) rc: 1.48
3d( 0.00) rc: 1.48
4f( 0.00) rc: 1.48
Ground state valence configuration:   2s02  2p02
Reading pseudopotential information in formatted form from C.psf

Valence configuration for pseudopotential generation:
2s( 2.00) rc: 1.54
2p( 2.00) rc: 1.54
3d( 0.00) rc: 1.54
4f( 0.00) rc: 1.54
For N, standard SIESTA heuristics set lmxkb to 3
 (one more than the basis l, including polarization orbitals).
Use PS.lmax or PS.KBprojectors blocks to override.
For C, standard SIESTA heuristics set lmxkb to 3
 (one more than the basis l, including polarization orbitals).
Use PS.lmax or PS.KBprojectors blocks to override.

<basis_specs>
===============================================================================
N                    Z=   7    Mass=  14.010        Charge= 0.17977+309
Lmxo=1 Lmxkb= 3    BasisType=split      Semic=F
L=0  Nsemic=0  Cnfigmx=2
          n=1  nzeta=2  polorb=0
            splnorm:   0.15000    
               vcte:    0.0000    
               rinn:    0.0000    
                rcs:    0.0000      0.0000    
            lambdas:    1.0000      1.0000    
L=1  Nsemic=0  Cnfigmx=2
          n=1  nzeta=2  polorb=1
            splnorm:   0.15000    
               vcte:    0.0000    
               rinn:    0.0000    
                rcs:    0.0000      0.0000    
            lambdas:    1.0000      1.0000    
-------------------------------------------------------------------------------
L=0  Nkbl=1  erefs: 0.17977+309
L=1  Nkbl=1  erefs: 0.17977+309
L=2  Nkbl=1  erefs: 0.17977+309
L=3  Nkbl=1  erefs: 0.17977+309
===============================================================================
</basis_specs>

atom: Called for N                     (Z =   7)

read_vps: Pseudopotential generation method:
read_vps: ATM3      Troullier-Martins                       
Total valence charge:    5.00000

read_vps: Pseudopotential includes a core correction:
read_vps: Pseudo-core for xc-correction

xc_check: Exchange-correlation functional:
xc_check: GGA Perdew, Burke & Ernzerhof 1996
V l=0 = -2*Zval/r beyond r=  1.4606
V l=1 = -2*Zval/r beyond r=  1.4606
V l=2 = -2*Zval/r beyond r=  1.4606
V l=3 = -2*Zval/r beyond r=  1.4606
All V_l potentials equal beyond r=  1.4606
This should be close to max(r_c) in ps generation
All pots = -2*Zval/r beyond r=  1.4606

VLOCAL1: 99.0% of the norm of Vloc inside     20.347 Ry
VLOCAL1: 99.9% of the norm of Vloc inside     46.372 Ry
atom: Maximum radius for 4*pi*r*r*local-pseudopot. charge    1.76189
atom: Maximum radius for r*vlocal+2*Zval:    1.53550
GHOST: No ghost state for L =  0
GHOST: No ghost state for L =  1
GHOST: No ghost state for L =  2
GHOST: No ghost state for L =  3

KBgen: Kleinman-Bylander projectors: 
   l= 0   rc=  1.634559   el= -1.363963   Ekb=  5.296955   kbcos=  0.335621
   l= 1   rc=  1.614250   el= -0.521451   Ekb= -5.259161   kbcos= -0.433408
   l= 2   rc=  1.718383   el=  0.001991   Ekb= -1.271464   kbcos= -0.007566
   l= 3   rc=  1.761893   el=  0.003093   Ekb= -0.494769   kbcos= -0.001015

KBgen: Total number of  Kleinman-Bylander projectors:   16
atom: -------------------------------------------------------------------------

atom: SANKEY-TYPE ORBITALS:
atom: Selected multiple-zeta basis: split     

SPLIT: Orbitals with angular momentum L= 0

SPLIT: Basis orbitals for state 2s

SPLIT: PAO cut-off radius determined from an
SPLIT: energy shift=  0.007350 Ry

   izeta = 1
                 lambda =    1.000000
                     rc =    4.071465
                 energy =   -1.356470
                kinetic =    1.176977
    potential(screened) =   -2.533447
       potential(ionic) =   -8.057990

   izeta = 2
                 rmatch =    2.905100
              splitnorm =    0.150000
                 energy =   -1.158343
                kinetic =    1.813009
    potential(screened) =   -2.971352
       potential(ionic) =   -8.901931

SPLIT: Orbitals with angular momentum L= 1

SPLIT: Basis orbitals for state 2p

SPLIT: PAO cut-off radius determined from an
SPLIT: energy shift=  0.007350 Ry

   izeta = 1
                 lambda =    1.000000
                     rc =    4.972977
                 energy =   -0.513884
                kinetic =    3.441732
    potential(screened) =   -3.955616
       potential(ionic) =   -9.287901

   izeta = 2
                 rmatch =    3.054066
              splitnorm =    0.150000
                 energy =   -0.318226
                kinetic =    5.125348
    potential(screened) =   -5.443573
       potential(ionic) =  -11.380999

POLgen: Perturbative polarization orbital with L=  2

POLgen: Polarization orbital for state 2p

   izeta = 1
                     rc =    4.972977
                 energy =    1.607437
                kinetic =    3.268125
    potential(screened) =   -1.660688
       potential(ionic) =   -5.973652
atom: Total number of Sankey-type orbitals: 13

atm_pop: Valence configuration (for local Pseudopot. screening):
 2s( 2.00)                                                            
 2p( 3.00)                                                            
Vna: chval, zval:    5.00000   5.00000

Vna:  Cut-off radius for the neutral-atom potential:   4.972977
comcore: Pseudo-core radius Rcore=  1.554824

atom: _________________________________________________________________________

<basis_specs>
===============================================================================
C                    Z=   6    Mass=  12.010        Charge= 0.17977+309
Lmxo=1 Lmxkb= 3    BasisType=split      Semic=F
L=0  Nsemic=0  Cnfigmx=2
          n=1  nzeta=2  polorb=0
            splnorm:   0.15000    
               vcte:    0.0000    
               rinn:    0.0000    
                rcs:    0.0000      0.0000    
            lambdas:    1.0000      1.0000    
L=1  Nsemic=0  Cnfigmx=2
          n=1  nzeta=2  polorb=1
            splnorm:   0.15000    
               vcte:    0.0000    
               rinn:    0.0000    
                rcs:    0.0000      0.0000    
            lambdas:    1.0000      1.0000    
-------------------------------------------------------------------------------
L=0  Nkbl=1  erefs: 0.17977+309
L=1  Nkbl=1  erefs: 0.17977+309
L=2  Nkbl=1  erefs: 0.17977+309
L=3  Nkbl=1  erefs: 0.17977+309
===============================================================================
</basis_specs>

atom: Called for C                     (Z =   6)

read_vps: Pseudopotential generation method:
read_vps: ATM3      Troullier-Martins                       
Total valence charge:    4.00000

read_vps: Pseudopotential includes a core correction:
read_vps: Pseudo-core for xc-correction

xc_check: Exchange-correlation functional:
xc_check: GGA Perdew, Burke & Ernzerhof 1996
V l=0 = -2*Zval/r beyond r=  1.5227
V l=1 = -2*Zval/r beyond r=  1.5227
V l=2 = -2*Zval/r beyond r=  1.5227
V l=3 = -2*Zval/r beyond r=  1.5038
All V_l potentials equal beyond r=  1.5227
This should be close to max(r_c) in ps generation
All pots = -2*Zval/r beyond r=  1.5227

VLOCAL1: 99.0% of the norm of Vloc inside     18.722 Ry
VLOCAL1: 99.9% of the norm of Vloc inside     42.668 Ry
atom: Maximum radius for 4*pi*r*r*local-pseudopot. charge    1.83678
atom: Maximum radius for r*vlocal+2*Zval:    1.58088
GHOST: No ghost state for L =  0
GHOST: No ghost state for L =  1
GHOST: No ghost state for L =  2
GHOST: No ghost state for L =  3

KBgen: Kleinman-Bylander projectors: 
   l= 0   rc=  1.704034   el= -1.009801   Ekb=  5.335044   kbcos=  0.316824
   l= 1   rc=  1.704034   el= -0.388707   Ekb= -3.785862   kbcos= -0.366464
   l= 2   rc=  1.791422   el=  0.001971   Ekb= -0.970471   kbcos= -0.009212
   l= 3   rc=  1.859892   el=  0.003065   Ekb= -0.399525   kbcos= -0.001223

KBgen: Total number of  Kleinman-Bylander projectors:   16
atom: -------------------------------------------------------------------------

atom: SANKEY-TYPE ORBITALS:
atom: Selected multiple-zeta basis: split     

SPLIT: Orbitals with angular momentum L= 0

SPLIT: Basis orbitals for state 2s

SPLIT: PAO cut-off radius determined from an
SPLIT: energy shift=  0.007350 Ry

   izeta = 1
                 lambda =    1.000000
                     rc =    4.632753
                 energy =   -1.002270
                kinetic =    0.855760
    potential(screened) =   -1.858031
       potential(ionic) =   -5.417575

   izeta = 2
                 rmatch =    3.431921
              splitnorm =    0.150000
                 energy =   -0.867111
                kinetic =    1.300804
    potential(screened) =   -2.167915
       potential(ionic) =   -5.962684

SPLIT: Orbitals with angular momentum L= 1

SPLIT: Basis orbitals for state 2p

SPLIT: PAO cut-off radius determined from an
SPLIT: energy shift=  0.007350 Ry

   izeta = 1
                 lambda =    1.000000
                     rc =    5.658549
                 energy =   -0.381140
                kinetic =    2.399701
    potential(screened) =   -2.780841
       potential(ionic) =   -6.206085

   izeta = 2
                 rmatch =    3.653288
              splitnorm =    0.150000
                 energy =   -0.249149
                kinetic =    3.542762
    potential(screened) =   -3.791911
       potential(ionic) =   -7.581078

POLgen: Perturbative polarization orbital with L=  2

POLgen: Polarization orbital for state 2p

   izeta = 1
                     rc =    5.658549
                 energy =    1.109913
                kinetic =    2.304789
    potential(screened) =   -1.194876
       potential(ionic) =   -4.013592
atom: Total number of Sankey-type orbitals: 13

atm_pop: Valence configuration (for local Pseudopot. screening):
 2s( 2.00)                                                            
 2p( 2.00)                                                            
Vna: chval, zval:    4.00000   4.00000

Vna:  Cut-off radius for the neutral-atom potential:   5.658549
comcore: Pseudo-core radius Rcore=  1.791422

atom: _________________________________________________________________________

prinput: Basis input ----------------------------------------------------------

PAO.BasisType split     

%block ChemicalSpeciesLabel
    1    7 N                       # Species index, atomic number, species label
    2    6 C                       # Species index, atomic number, species label
%endblock ChemicalSpeciesLabel

%block PAO.Basis                 # Define Basis set
N                     2                    # Species label, number of l-shells
 n=2   0   2                         # n, l, Nzeta 
   4.071      2.905   
   1.000      1.000   
 n=2   1   2 P   1                   # n, l, Nzeta, Polarization, NzetaPol
   4.973      3.054   
   1.000      1.000   
C                     2                    # Species label, number of l-shells
 n=2   0   2                         # n, l, Nzeta 
   4.633      3.432   
   1.000      1.000   
 n=2   1   2 P   1                   # n, l, Nzeta, Polarization, NzetaPol
   5.659      3.653   
   1.000      1.000   
%endblock PAO.Basis

prinput: ----------------------------------------------------------------------

coor:   Atomic-coordinates input format  =     Fractional

siesta: Atomic coordinates (Bohr) and species
siesta:     -2.35420  38.89134   0.00000  1        1
siesta:     -4.68258  34.85847   0.00000  1        2
siesta:     -4.68258  37.54693   0.00000  1        3
siesta:     -0.02582  10.66124   0.00000  1        4
siesta:     -0.02582  13.34970   0.00000  1        5
siesta:     -2.35420  14.69411   0.00000  1        6
siesta:     -2.35420  17.38257   0.00000  1        7
siesta:     -0.02582  18.72698   0.00000  1        8
siesta:     -0.02582  21.41544   0.00000  1        9
siesta:     -4.68258  21.41544   0.00000  1       10
siesta:     -2.35420  22.75985   0.00000  1       11
siesta:     -7.01096  22.75985   0.00000  1       12
siesta:     -7.01096  25.44831   0.00000  1       13
siesta:     -9.33934  26.79272   0.00000  1       14
siesta:     -9.33934  29.48119   0.00000  1       15
siesta:     -4.68258  26.79272   0.00000  1       16
siesta:     -4.68258  29.48119   0.00000  1       17
siesta:     -2.35420  30.82560   0.00000  1       18
siesta:     -2.35420  33.51406   0.00000  1       19
siesta:     -7.01096  30.82560   0.00000  1       20
siesta:     -7.01096  33.51406   0.00000  1       21
siesta:     -0.02582  34.85847   0.00000  1       22
siesta:     -0.02582  37.54693   0.00000  1       23
siesta:     -0.02582   2.59549   0.00000  2       24
siesta:     -0.02582   5.28395   0.00000  2       25
siesta:     -2.35420  41.57980   0.00000  2       26
siesta:      2.30256  38.89134   0.00000  2       27
siesta:      2.30256  41.57980   0.00000  2       28
siesta:      4.63094  34.85847   0.00000  2       29
siesta:      4.63094  37.54693   0.00000  2       30
siesta:      6.95932  30.82560   0.00000  2       31
siesta:      6.95932  33.51406   0.00000  2       32
siesta:      9.28770  26.79272   0.00000  2       33
siesta:      9.28770  29.48119   0.00000  2       34
siesta:      2.30256   6.62836   0.00000  2       35
siesta:      2.30256   9.31683   0.00000  2       36
siesta:      4.63094  10.66124   0.00000  2       37
siesta:      4.63094  13.34970   0.00000  2       38
siesta:      6.95932  14.69411   0.00000  2       39
siesta:      6.95932  17.38257   0.00000  2       40
siesta:      9.28770  18.72698   0.00000  2       41
siesta:      9.28770  21.41544   0.00000  2       42
siesta:     11.61608  22.75985   0.00000  2       43
siesta:     11.61608  25.44831   0.00000  2       44
siesta:     -2.35420   6.62836   0.00000  2       45
siesta:     -2.35420   9.31683   0.00000  2       46
siesta:      2.30256  14.69411   0.00000  2       47
siesta:      2.30256  17.38257   0.00000  2       48
siesta:      4.63094  18.72698   0.00000  2       49
siesta:      4.63094  21.41544   0.00000  2       50
siesta:      6.95932  22.75985   0.00000  2       51
siesta:      6.95932  25.44831   0.00000  2       52
siesta:     -4.68258  10.66124   0.00000  2       53
siesta:     -4.68258  13.34970   0.00000  2       54
siesta:      2.30256  22.75985   0.00000  2       55
siesta:      2.30256  25.44831   0.00000  2       56
siesta:     -7.01096  14.69411   0.00000  2       57
siesta:     -7.01096  17.38257   0.00000  2       58
siesta:     -4.68258  18.72698   0.00000  2       59
siesta:     -2.35420  25.44831   0.00000  2       60
siesta:     -9.33934  18.72698   0.00000  2       61
siesta:     -9.33934  21.41544   0.00000  2       62
siesta:    -11.66772  22.75985   0.00000  2       63
siesta:    -11.66772  25.44831   0.00000  2       64
siesta:      4.63094  26.79272   0.00000  2       65
siesta:      4.63094  29.48119   0.00000  2       66
siesta:     -0.02582  26.79272   0.00000  2       67
siesta:     -0.02582  29.48119   0.00000  2       68
siesta:      2.30256  30.82560   0.00000  2       69
siesta:      2.30256  33.51406   0.00000  2       70
siesta:     -0.02582  42.92421   0.00000  2       71
siesta:     -0.02582  45.61267   0.00000  2       72

siesta: System type = slab      

initatomlists: Number of atoms, orbitals, and projectors:     72   936  1152

siesta: ******************** Simulation parameters ****************************
siesta:
siesta: The following are some of the parameters of the simulation.
siesta: A complete list of the parameters used, including default values,
siesta: can be found in file out.fdf
siesta:
redata: Non-Collinear-spin run           =     F
redata: SpinPolarized (Up/Down) run      =     F
redata: Number of spin components        =     1
redata: Long output                      =     F
redata: Number of Atomic Species         =        2
redata: Charge density info will appear in .RHO file
redata: Write Mulliken Pop.              =     NO
redata: Mesh Cutoff                      =   200.0000  Ry
redata: Net charge of the system         =     0.0000 |e|
redata: Max. number of SCF Iter          =      500
redata: SCF convergence failure will abort job
redata: Performing Pulay mixing using    =    10 iterations
redata: Mix DM in first SCF step ?       =     F
redata: Write Pulay info on disk?        =     F
redata: Discard 1st Pulay DM after  kick =     F
redata: New DM Mixing Weight             =     0.0500
redata: New DM Occupancy tolerance       = 0.000000000001
redata: No kicks to SCF
redata: DM Mixing Weight for Kicks       =     0.5000
redata: DM Tolerance for SCF             =     0.000100
redata: Require Energy convergence for SCF =     F
redata: DM Energy tolerance for SCF      =     0.000100 eV
redata: Require Harris convergence for SCF =     F
redata: DM Harris energy tolerance for SCF =     0.000100 eV
redata: Using Saved Data (generic)   =     F
redata: Use continuation files for DM    =     T
redata: Neglect nonoverlap interactions  =     F
redata: Method of Calculation            =     Diagonalization
redata: Divide and Conquer               =     T
redata: Electronic Temperature           =     0.0019  Ry
redata: Fix the spin of the system       =     F
redata: Dynamics option                  =     Verlet MD run
redata: Initial MD time step             =        1
redata:   Final MD time step             =        1
redata: Length of MD time step           =     1.0000  fs
redata: Initial Temperature of MD run    =     0.0000  K
redata: Perform a MD quench              =     F
redata: ***********************************************************************
Total number of electrons:   311.000000
Total ionic charge:   311.000000

* ProcessorY, Blocksize:    2  24

k-point displ. along   1 input, could be:     0.50    0.00
k-point displ. along   2 input, could be:     0.50    0.00
 Kpoints in:          231 . Kpoints trimmed:          231

siesta: k-grid: Number of k-points =   231
siesta: k-grid: Cutoff (effective) =     5.000 Ang
siesta: k-grid: Supercell and displacements
siesta: k-grid:   21   0   0      0.500
siesta: k-grid:    0  21   0      0.500
siesta: k-grid:    0   0   1      0.000
Naive supercell factors:     2    2    2

superc: Internal auxiliary supercell:     2 x     2 x     2  =       8
superc: Number of atoms, orbitals, and projectors:    576   7488   9216

* Maximum dynamic memory allocated =     4 MB

siesta:                 ==============================
                            Begin MD step =      1
                        ==============================

superc: Internal auxiliary supercell:     2 x     2 x     2  =       8
superc: Number of atoms, orbitals, and projectors:    576   7488   9216

outcell: Unit cell vectors (Ang):
       12.804619    7.392750    0.000000
        0.000000   14.785500    0.000000
        0.000000    0.000000   10.000000

outcell: Cell vector modules (Ang)   :   14.785500   14.785500   10.000000
outcell: Cell angles (23,13,12) (deg):     90.0000     90.0000     60.0000
outcell: Cell volume (Ang**3)        :   1893.2269
New_DM. Step:     1
Initializing Density Matrix...

InitMesh: MESH =   120 x   120 x    90 =     1296000
InitMesh: Mesh cutoff (required, used) =   200.000   223.865 Ry

* Maximum dynamic memory allocated =   180 MB

stepf: Fermi-Dirac step function

siesta: Program's energy decomposition (eV):
siesta: Ebs     =     -6353.413839
siesta: Eions   =     22100.188487
siesta: Ena     =      4972.509411
siesta: Ekin    =      8308.399223
siesta: Enl     =       -48.759963
siesta: DEna    =        -0.000015
siesta: DUscf   =         0.000000
siesta: DUext   =         0.000000
siesta: Exc     =     -4754.093802
siesta: eta*DQ  =         0.000000
siesta: Emadel  =         0.000000
siesta: Emeta   =         0.000000
siesta: Emolmec =         0.000000
siesta: Ekinion =         0.000000
siesta: Eharris =    -13221.141558
siesta: Etot    =    -13622.133634
siesta: FreeEng =    -13622.133634

siesta: iscf   Eharris(eV)      E_KS(eV)   FreeEng(eV)   dDmax  Ef(eV)
siesta:    1   -13221.1416   -13622.1336   -13622.1336  6.3739 -6.6295
timer: Routine,Calls,Time,% = IterSCF        1    4178.101  99.73
elaps: Routine,Calls,Wall,% = IterSCF        1     522.878  99.73
siesta:    2   -17271.7430   -12626.9225   -12626.9416 24.9778 -3.0814
siesta:    3   -13113.1466   -13449.0326   -13449.0835  2.7786 -5.2855
siesta:    4   -13100.4990   -13245.7170   -13245.7908  0.9627 -4.2503
siesta:    5   -13069.6547   -13185.3290   -13185.3937  0.9433 -3.8469
siesta:    6   -13065.4166   -13162.3298   -13162.3825  0.9028 -3.7787
siesta:    7   -13062.1891   -13133.0123   -13133.0746  0.8231 -3.8883
siesta:    8   -13061.0702   -13122.3645   -13122.4150  0.7509 -3.8325
siesta:    9   -13060.3276   -13089.7302   -13089.7871  0.5465 -3.9006
siesta:   10   -13059.7152   -13067.8376   -13067.8908  0.4352 -3.8545
siesta:   11   -13059.1366   -13052.8695   -13052.9219  0.4096 -3.7508
siesta:   12   -13058.8249   -13043.9086   -13043.9604  0.3109 -3.7189
siesta:   13   -13058.4403   -13040.9911   -13041.0636  0.2152 -3.7293
siesta:   14   -13057.9665   -13044.6278   -13044.6934  0.1096 -3.7777
siesta:   15   -13057.9115   -13044.7511   -13044.8304  0.1266 -3.7727
siesta:   16   -13057.8105   -13046.5629   -13046.6371  0.1303 -3.7857
siesta:   17   -13057.7757   -13047.0365   -13047.1129  0.1124 -3.7900
siesta:   18   -13057.7585   -13047.8761   -13047.9511  0.0318 -3.7924
siesta:   19   -13057.7415   -13049.7349   -13049.8086  0.0438 -3.7933
siesta:   20   -13057.7343   -13053.3424   -13053.4170  0.0288 -3.7890
siesta:   21   -13057.7322   -13054.9340   -13055.0083  0.0423 -3.7885
siesta:   22   -13057.7290   -13056.4633   -13056.5399  0.0202 -3.7877
siesta:   23   -13057.7263   -13056.9554   -13057.0324  0.0168 -3.7884
siesta:   24   -13057.7255   -13057.1466   -13057.2230  0.0210 -3.7884
siesta:   25   -13057.7251   -13057.3232   -13057.3991  0.0068 -3.7872
siesta:   26   -13057.7249   -13057.3245   -13057.4002  0.0077 -3.7852
siesta:   27   -13057.7247   -13057.4028   -13057.4786  0.0035 -3.7840
siesta:   28   -13057.7250   -13057.6101   -13057.6861  0.0022 -3.7837
siesta:   29   -13057.7249   -13057.6456   -13057.7213  0.0010 -3.7836
siesta:   30   -13057.7248   -13057.6650   -13057.7407  0.0006 -3.7837
siesta:   31   -13057.7248   -13057.6816   -13057.7574  0.0008 -3.7838
siesta:   32   -13057.7248   -13057.7181   -13057.7939  0.0004 -3.7839
siesta:   33   -13057.7248   -13057.7291   -13057.8049  0.0003 -3.7840
siesta:   34   -13057.7248   -13057.7267   -13057.8025  0.0003 -3.7842
siesta:   35   -13057.7248   -13057.7240   -13057.7998  0.0001 -3.7842
siesta:   36   -13057.7248   -13057.7212   -13057.7970  0.0001 -3.7842
siesta:   37   -13057.7248   -13057.7208   -13057.7966  0.0001 -3.7842
siesta:   38   -13057.7248   -13057.7223   -13057.7981  0.0001 -3.7842
siesta:   39   -13057.7248   -13057.7218   -13057.7976  0.0000 -3.7842

siesta: E_KS(eV) =           -13057.7212

siesta: E_KS - E_eggbox =    -13057.7212

siesta: Atomic forces (eV/Ang):
----------------------------------------
   Tot   -0.037645    0.113550    0.000000
----------------------------------------
   Max  757.506454
   Res  183.464052    sqrt( Sum f_i^2 / 3N )
----------------------------------------
   Max  757.506454    constrained

Stress-tensor-Voigt (kbar):     -656.04    -3313.86       -0.08        5.03        0.00        0.00
(Free)E + p*V (eV/cell)   -11494.0961
Target enthalpy (eV/cell)   -13057.7970

siesta: Stress tensor (static) (eV/Ang**3):
        -0.409462    0.003141    0.000000
         0.003141   -2.068325    0.000000
         0.000000    0.000000   -0.000047

siesta: Pressure (static):       1323.32383445  kBar

siesta: Stress tensor (total) (eV/Ang**3):
        -0.409462    0.003141    0.000000
         0.003141   -2.068325    0.000000
         0.000000    0.000000   -0.000047

siesta: Pressure (total):       1323.32383445  kBar

siesta: Temp_ion =       0.000 K

* Maximum dynamic memory allocated =   196 MB
Computing bands...

siesta: Program's energy decomposition (eV):
siesta: Ebs     =     -5103.891445
siesta: Eions   =     22100.188487
siesta: Ena     =      4972.509411
siesta: Ekin    =     11493.237041
siesta: Enl     =     -1777.412234
siesta: DEna    =      -823.746585
siesta: DUscf   =       113.641711
siesta: DUext   =         0.000000
siesta: Exc     =     -4935.762103
siesta: eta*DQ  =         0.000000
siesta: Emadel  =         0.000000
siesta: Emeta   =         0.000000
siesta: Emolmec =         0.000000
siesta: Ekinion =         0.000000
siesta: Eharris =    -13057.724798
siesta: Etot    =    -13057.721245
siesta: FreeEng =    -13057.797045

siesta: Final energy (eV):
siesta:  Band Struct. =   -5103.891445
siesta:       Kinetic =   11493.237041
siesta:       Hartree =   37516.061240
siesta:    Ext. field =       0.000000
siesta:   Exch.-corr. =   -4935.762103
siesta:  Ion-electron =  -86010.231052
siesta:       Ion-ion =   28878.973628
siesta:       Ekinion =       0.000000
siesta:         Total =  -13057.721245

siesta: Atomic forces (eV/Ang):
siesta:      1   -0.683806  116.122321    0.000000
siesta:      2  -30.565654    7.567624    0.000000
siesta:      3  -25.095009 -659.748266    0.000000
siesta:      4   -2.387845  756.915277    0.000000
siesta:      5   -0.258113 -108.743460    0.000000
siesta:      6   -3.734793  682.534284    0.000000
siesta:      7  -36.240029   -9.699501    0.000000
siesta:      8   21.730003  682.227421    0.000000
siesta:      9    1.497878   -3.954923    0.000000
siesta:     10    0.687388   -1.242812    0.000000
siesta:     11   -2.899450    1.476304    0.000000
siesta:     12   -0.021479    0.142548    0.000000
siesta:     13    1.814231   -0.048331    0.000000
siesta:     14   -2.723695    0.955597    0.000000
siesta:     15    0.916807    0.310942    0.000000
siesta:     16    0.341529   -1.935037    0.000000
siesta:     17   -2.290870   -3.710543    0.000000
siesta:     18  -27.250209    7.083326    0.000000
siesta:     19    2.820237 -677.280866    0.000000
siesta:     20   -1.344205   -0.368275    0.000000
siesta:     21   -1.115287   -3.644820    0.000000
siesta:     22    1.888369  106.241359    0.000000
siesta:     23   -3.043931 -757.506454    0.000000
siesta:     24  -13.923866  549.077319    0.000000
siesta:     25   -0.278793 -120.903414    0.000000
siesta:     26  -18.753102 -656.542925    0.000000
siesta:     27    0.258297  123.739485    0.000000
siesta:     28   -7.794631 -544.349639    0.000000
siesta:     29   26.600297    5.309191    0.000000
siesta:     30   32.034648 -551.952755    0.000000
siesta:     31    1.971213    0.337937    0.000000
siesta:     32   -2.644981    1.760238    0.000000
siesta:     33    2.261828    2.510249    0.000000
siesta:     34   -1.367128   -0.147616    0.000000
siesta:     35   -6.478265  547.110435    0.000000
siesta:     36   -1.144776 -124.468295    0.000000
siesta:     37   31.436690  551.945328    0.000000
siesta:     38   26.878486   -5.072888    0.000000
siesta:     39   -2.920312   -2.029775    0.000000
siesta:     40    1.847235   -0.083888    0.000000
siesta:     41   -1.447898    0.150586    0.000000
siesta:     42    1.712763   -2.427498    0.000000
siesta:     43    0.106952    7.555162    0.000000
siesta:     44   -0.349913   -7.503029    0.000000
siesta:     45  -23.959377  654.872504    0.000000
siesta:     46   -1.586988 -116.397921    0.000000
siesta:     47   30.298188  562.004692    0.000000
siesta:     48   25.975999   -9.229059    0.000000
siesta:     49   -1.426600    2.932770    0.000000
siesta:     50   -0.478362   -0.825714    0.000000
siesta:     51   -0.048254    1.194128    0.000000
siesta:     52   -0.214501   -0.881592    0.000000
siesta:     53  -21.334444  659.565585    0.000000
siesta:     54  -28.808095   -5.258085    0.000000
siesta:     55    0.780986    1.291474    0.000000
siesta:     56   -0.365656   -1.492203    0.000000
siesta:     57    2.147029   -1.024279    0.000000
siesta:     58   -1.061369   -0.294325    0.000000
siesta:     59    0.650003    3.290363    0.000000
siesta:     60   -0.344986    1.647579    0.000000
siesta:     61    0.519762    0.515147    0.000000
siesta:     62   -1.910089   -1.650375    0.000000
siesta:     63    1.098994    3.747772    0.000000
siesta:     64    1.798024   -1.169513    0.000000
siesta:     65    0.484610    0.310734    0.000000
siesta:     66   -1.425372   -2.592465    0.000000
siesta:     67   -1.141571   -0.756999    0.000000
siesta:     68   19.693306 -575.098227    0.000000
siesta:     69   23.936038    4.631103    0.000000
siesta:     70   29.497098 -563.352718    0.000000
siesta:     71    3.434965  116.301108    0.000000
siesta:     72  -16.293792 -639.875856    0.000000
siesta: ----------------------------------------
siesta:    Tot   -0.037645    0.113550    0.000000

siesta: Stress tensor (static) (eV/Ang**3):
siesta:    -0.409462    0.003141    0.000000
siesta:     0.003141   -2.068325    0.000000
siesta:     0.000000    0.000000   -0.000047

siesta: Cell volume =       1893.226884 Ang**3

siesta: Pressure (static):
siesta:                Solid            Molecule  Units
siesta:           0.00899559          0.14585001  Ry/Bohr**3
siesta:           0.82594484         13.39145164  eV/Ang**3
siesta:        1323.32383445      21455.70282401  kBar
(Free)E+ p_basis*V_orbitals  =      -13030.347590
(Free)Eharris+ p_basis*V_orbitals  =      -13030.350542

siesta: Electric dipole (a.u.)  =    0.000000    0.000000    0.000000
siesta: Electric dipole (Debye) =    0.000000    0.000000    0.000000

* Maximum dynamic memory allocated : Node    0 =   196 MB
* Maximum dynamic memory allocated : Node    1 =    70 MB
* Maximum dynamic memory allocated : Node    2 =    72 MB
* Maximum dynamic memory allocated : Node    3 =   186 MB
* Maximum dynamic memory allocated : Node    4 =   189 MB
* Maximum dynamic memory allocated : Node    5 =    71 MB
* Maximum dynamic memory allocated : Node    6 =    72 MB
* Maximum dynamic memory allocated : Node    7 =   171 MB

* Maximum memory occured during matrixMtoO                    

timer: CPU execution times:
timer:  Routine       Calls   Time/call    Tot.time        %
timer:  siesta            1  159627.037  159627.037   100.00
timer:  Setup             1       3.099       3.099     0.00
timer:  bands             3     272.303     816.908     0.51
timer:  writewave         1       0.019       0.019     0.00
timer:  KSV_init          1       0.003       0.003     0.00
timer:  IterMD            1  158801.079  158801.079    99.48
timer:  hsparse           1       0.235       0.235     0.00
timer:  overlap           1       7.706       7.706     0.00
timer:  IterSCF          39    4067.738  158641.770    99.38
timer:  kinefsm           2       3.992       7.983     0.01
timer:  nlefsm            2      18.454      36.907     0.02
timer:  DHSCF            40      82.747    3309.879     2.07
timer:  DHSCF1            1       0.770       0.770     0.00
timer:  DHSCF2            1      32.804      32.804     0.02
timer:  REORD           322       0.011       3.600     0.00
timer:  POISON           41       2.558     104.877     0.07
timer:  DHSCF3           40      81.120    3244.803     2.03
timer:  rhoofd           40      16.190     647.585     0.41
timer:  cellXC           40       3.483     139.313     0.09
timer:  vmat             40      38.794    1551.777     0.97
timer:  MolMec            2       0.000       0.000     0.00
timer:  diagon           39    3983.780  155367.423    97.33
timer:  c-eigval       9130       6.742   61554.942    38.56
timer:  c-buildHS      9130       0.122    1118.049     0.70
timer:  cdiag         18139       6.901  125171.516    78.41
timer:  cdiag1        18139       0.434    7865.168     4.93
timer:  cdiag2        18139       1.916   34749.665    21.77
timer:  cdiag3        18139       3.973   72059.274    45.14
timer:  cdiag4        18139       0.211    3829.727     2.40
timer:  c-eigvec       9009       7.260   65406.111    40.97
timer:  c-buildD       9009       3.238   29172.778    18.28
timer:  DHSCF4            1      29.152      29.152     0.02
timer:  dfscf             1      27.373      27.373     0.02
timer:  overfsm           1       0.396       0.396     0.00
timer:  optical           1       5.199       5.199     0.00
  

elaps: ELAPSED times:
elaps:  Routine       Calls   Time/call    Tot.time        %
elaps:  siesta            1   19975.054   19975.054   100.00
elaps:  Setup             1       0.387       0.387     0.00
elaps:  bands             3      34.091     102.274     0.51
elaps:  writewave         1       0.002       0.002     0.00
elaps:  KSV_init          1       0.000       0.000     0.00
elaps:  IterMD            1   19871.710   19871.710    99.48
elaps:  hsparse           1       0.029       0.029     0.00
elaps:  overlap           1       0.971       0.971     0.00
elaps:  IterSCF          39     509.020   19851.781    99.38
elaps:  kinefsm           2       0.499       0.997     0.00
elaps:  nlefsm            2       2.345       4.691     0.02
elaps:  DHSCF            40      10.446     417.857     2.09
elaps:  DHSCF1            1       0.099       0.099     0.00
elaps:  DHSCF2            1       4.099       4.099     0.02
elaps:  REORD           322       0.001       0.482     0.00
elaps:  POISON           41       0.320      13.137     0.07
elaps:  DHSCF3           40      10.149     405.947     2.03
elaps:  rhoofd           40       4.409     176.356     0.88
elaps:  cellXC           40       0.435      17.395     0.09
elaps:  vmat             40       4.853     194.124     0.97
elaps:  MolMec            2       0.000       0.000     0.00
elaps:  diagon           39     498.529   19442.639    97.33
elaps:  c-eigval       9130       0.844    7701.723    38.56
elaps:  c-buildHS      9130       0.017     153.189     0.77
elaps:  cdiag         18139       0.855   15505.046    77.62
elaps:  cdiag1        18139       0.054     986.643     4.94
elaps:  cdiag2        18139       0.240    4348.504    21.77
elaps:  cdiag3        18139       0.498    9028.451    45.20
elaps:  cdiag4        18139       0.027     485.413     2.43
elaps:  c-eigvec       9009       0.896    8075.443    40.43
elaps:  c-buildD       9009       0.417    3759.939    18.82
elaps:  DHSCF4            1       7.380       7.380     0.04
elaps:  dfscf             1       7.002       7.002     0.04
elaps:  overfsm           1       0.052       0.052     0.00
elaps:  optical           1       0.000       0.000     0.00
  
>> End of run:  26-APR-2016   7:40:45
