Siesta Version:                                        siesta-3.2-pl-3
Architecture  : x86_64-unknown-linux-gnu--unknown
Compiler flags: mpiifort -g -O2 -fPIC -xSSE4.1 -fp-model source -shared-intel 
PARALLEL version

* Running on    8 nodes in parallel
>> Start of run:  30-APR-2016   3:34:21

                           ***********************       
                           *  WELCOME TO SIESTA  *       
                           ***********************       

reinit: Reading from standard input
************************** Dump of input data file ****************************
#(1) General system descriptors
SystemName            GRP_doping    # Descriptive name of the system
SystemLabel           GRP_doping    # Short name for naming files
%include STRUCT.fdf
%include KPT.fdf
%include BASIS.fdf
#%include TS.fdf # for transiesta calculation
#(4) DFT, Grid, SCF
XC.functional         GGA           # LDA or GGA (default = LDA)
XC.authors            PBE           # CA (Ceperley-Aldr) = PZ
                                    #    (Perdew-Zunger) - LDA - Default
                                    # PW92 (Perdew-Wang-92) - LDA
                                    # PBE (Perdew-Burke-Ernzerhof) - GGA
MeshCutoff            200.000000    Ry      # Default: 50.0 Ry ~ 0.444 Bohr
                                    #         100.0 Ry ~ 0.314 Bohr
MaxSCFIterations      500           # Default: 50
DM.MixingWeight       0.05          # Default: 0.25
DM.NumberPulay        10            # Default: 0
DM.PulayOnFile        F             # SystemLabel.P1, SystemLabel.P2
DM.Tolerance          1.d-4         # Default: 1.d-4
DM.UseSaveDM          .true.        # because of the bug
SCFMustConverge       .true.
NeglNonOverlapInt     F             # Default: F
#(5) Eigenvalue problem: order-N or diagonalization
SolutionMethod        Diagon        # or Transiesta
ElectronicTemperature 300.0 K       # Default: 300.0 K
#(6) Molecular dynamics and relaxations
#MD.TypeOfRun          CG            # Type of dynamics:
#MD.VariableCell       F
#MD.NumCGsteps         0           # 0 for single-point / 100 for gopt
#MD.MaxCGDispl         0.2 Bohr      # Default: 0.2 Bohr
#MD.MaxForceTol        0.02 eV/Ang   # Default: 0.04 eV/Ang
#MD.MaxStressTol       1.0 GPa       # Default: 1.0 GPa
# Geometry Constraints
#%block GeometryConstraints
#	position from 1 to 44
#%endblock GeometryConstraints
BandLinesScale   pi/a
%block BandLines
 1   0.00000000  0.00000000  0.00000000
50   0.00000000  0.07809418  0.00000000
50   0.04509075  0.07809242  0.00000000
20   0.00000000  0.00000000  0.00000000
%endblock BandLines
************************** End of input data file *****************************

reinit: -----------------------------------------------------------------------
reinit: System Name: GRP_doping
reinit: -----------------------------------------------------------------------
reinit: System Label: GRP_doping                                                  
reinit: -----------------------------------------------------------------------

initatom: Reading input for the pseudopotentials and atomic orbitals ----------
 Species number:            1  Label: B Atomic number:           5
 Species number:            2  Label: C Atomic number:           6
Ground state valence configuration:   2s02  2p01
Reading pseudopotential information in formatted form from B.psf

Valence configuration for pseudopotential generation:
2s( 2.00) rc: 1.74
2p( 1.00) rc: 1.74
3d( 0.00) rc: 1.74
4f( 0.00) rc: 1.74
Ground state valence configuration:   2s02  2p02
Reading pseudopotential information in formatted form from C.psf

Valence configuration for pseudopotential generation:
2s( 2.00) rc: 1.54
2p( 2.00) rc: 1.54
3d( 0.00) rc: 1.54
4f( 0.00) rc: 1.54
For B, standard SIESTA heuristics set lmxkb to 3
 (one more than the basis l, including polarization orbitals).
Use PS.lmax or PS.KBprojectors blocks to override.
For C, standard SIESTA heuristics set lmxkb to 3
 (one more than the basis l, including polarization orbitals).
Use PS.lmax or PS.KBprojectors blocks to override.

<basis_specs>
===============================================================================
B                    Z=   5    Mass=  10.810        Charge= 0.17977+309
Lmxo=1 Lmxkb= 3    BasisType=split      Semic=F
L=0  Nsemic=0  Cnfigmx=2
          n=1  nzeta=2  polorb=0
            splnorm:   0.15000    
               vcte:    0.0000    
               rinn:    0.0000    
                rcs:    0.0000      0.0000    
            lambdas:    1.0000      1.0000    
L=1  Nsemic=0  Cnfigmx=2
          n=1  nzeta=2  polorb=1
            splnorm:   0.15000    
               vcte:    0.0000    
               rinn:    0.0000    
                rcs:    0.0000      0.0000    
            lambdas:    1.0000      1.0000    
-------------------------------------------------------------------------------
L=0  Nkbl=1  erefs: 0.17977+309
L=1  Nkbl=1  erefs: 0.17977+309
L=2  Nkbl=1  erefs: 0.17977+309
L=3  Nkbl=1  erefs: 0.17977+309
===============================================================================
</basis_specs>

atom: Called for B                     (Z =   5)

read_vps: Pseudopotential generation method:
read_vps: ATM3      Troullier-Martins                       
Total valence charge:    3.00000

read_vps: Pseudopotential includes a core correction:
read_vps: Pseudo-core for xc-correction

xc_check: Exchange-correlation functional:
xc_check: GGA Perdew, Burke & Ernzerhof 1996
V l=0 = -2*Zval/r beyond r=  1.7165
V l=1 = -2*Zval/r beyond r=  1.7165
V l=2 = -2*Zval/r beyond r=  1.7165
V l=3 = -2*Zval/r beyond r=  1.6951
All V_l potentials equal beyond r=  1.7165
This should be close to max(r_c) in ps generation
All pots = -2*Zval/r beyond r=  1.7165

VLOCAL1: 99.0% of the norm of Vloc inside     14.733 Ry
VLOCAL1: 99.9% of the norm of Vloc inside     33.577 Ry
atom: Maximum radius for 4*pi*r*r*local-pseudopot. charge    2.04484
atom: Maximum radius for r*vlocal+2*Zval:    1.75994
GHOST: No ghost state for L =  0
GHOST: No ghost state for L =  1
GHOST: No ghost state for L =  2
GHOST: No ghost state for L =  3

KBgen: Kleinman-Bylander projectors: 
   l= 0   rc=  1.897051   el= -0.693730   Ekb=  4.595746   kbcos=  0.286105
   l= 1   rc=  1.920920   el= -0.265236   Ekb= -2.350715   kbcos= -0.315747
   l= 2   rc=  2.044840   el=  0.002055   Ekb= -0.690767   kbcos= -0.013822
   l= 3   rc=  2.149707   el=  0.003188   Ekb= -0.315358   kbcos= -0.002055

KBgen: Total number of  Kleinman-Bylander projectors:   16
atom: -------------------------------------------------------------------------

atom: SANKEY-TYPE ORBITALS:
atom: Selected multiple-zeta basis: split     

SPLIT: Orbitals with angular momentum L= 0

SPLIT: Basis orbitals for state 2s

SPLIT: PAO cut-off radius determined from an
SPLIT: energy shift=  0.007350 Ry

   izeta = 1
                 lambda =    1.000000
                     rc =    5.422032
                 energy =   -0.686029
                kinetic =    0.576707
    potential(screened) =   -1.262736
       potential(ionic) =   -3.271094

   izeta = 2
                 rmatch =    4.222573
              splitnorm =    0.150000
                 energy =   -0.602132
                kinetic =    0.858975
    potential(screened) =   -1.461107
       potential(ionic) =   -3.582536

SPLIT: Orbitals with angular momentum L= 1

SPLIT: Basis orbitals for state 2p

SPLIT: PAO cut-off radius determined from an
SPLIT: energy shift=  0.007350 Ry

   izeta = 1
                 lambda =    1.000000
                     rc =    6.790259
                 energy =   -0.258578
                kinetic =    1.481412
    potential(screened) =   -1.739989
       potential(ionic) =   -3.657461

   izeta = 2
                 rmatch =    4.608740
              splitnorm =    0.150000
                 energy =   -0.173757
                kinetic =    2.186690
    potential(screened) =   -2.360447
       potential(ionic) =   -4.464260

POLgen: Perturbative polarization orbital with L=  2

POLgen: Polarization orbital for state 2p

   izeta = 1
                     rc =    6.790259
                 energy =    0.684082
                kinetic =    1.471481
    potential(screened) =   -0.787399
       potential(ionic) =   -2.406985
atom: Total number of Sankey-type orbitals: 13

atm_pop: Valence configuration (for local Pseudopot. screening):
 2s( 2.00)                                                            
 2p( 1.00)                                                            
Vna: chval, zval:    3.00000   3.00000

Vna:  Cut-off radius for the neutral-atom potential:   6.790259
comcore: Pseudo-core radius Rcore=  2.122997

atom: _________________________________________________________________________

<basis_specs>
===============================================================================
C                    Z=   6    Mass=  12.010        Charge= 0.17977+309
Lmxo=1 Lmxkb= 3    BasisType=split      Semic=F
L=0  Nsemic=0  Cnfigmx=2
          n=1  nzeta=2  polorb=0
            splnorm:   0.15000    
               vcte:    0.0000    
               rinn:    0.0000    
                rcs:    0.0000      0.0000    
            lambdas:    1.0000      1.0000    
L=1  Nsemic=0  Cnfigmx=2
          n=1  nzeta=2  polorb=1
            splnorm:   0.15000    
               vcte:    0.0000    
               rinn:    0.0000    
                rcs:    0.0000      0.0000    
            lambdas:    1.0000      1.0000    
-------------------------------------------------------------------------------
L=0  Nkbl=1  erefs: 0.17977+309
L=1  Nkbl=1  erefs: 0.17977+309
L=2  Nkbl=1  erefs: 0.17977+309
L=3  Nkbl=1  erefs: 0.17977+309
===============================================================================
</basis_specs>

atom: Called for C                     (Z =   6)

read_vps: Pseudopotential generation method:
read_vps: ATM3      Troullier-Martins                       
Total valence charge:    4.00000

read_vps: Pseudopotential includes a core correction:
read_vps: Pseudo-core for xc-correction

xc_check: Exchange-correlation functional:
xc_check: GGA Perdew, Burke & Ernzerhof 1996
V l=0 = -2*Zval/r beyond r=  1.5227
V l=1 = -2*Zval/r beyond r=  1.5227
V l=2 = -2*Zval/r beyond r=  1.5227
V l=3 = -2*Zval/r beyond r=  1.5038
All V_l potentials equal beyond r=  1.5227
This should be close to max(r_c) in ps generation
All pots = -2*Zval/r beyond r=  1.5227

VLOCAL1: 99.0% of the norm of Vloc inside     18.722 Ry
VLOCAL1: 99.9% of the norm of Vloc inside     42.668 Ry
atom: Maximum radius for 4*pi*r*r*local-pseudopot. charge    1.83678
atom: Maximum radius for r*vlocal+2*Zval:    1.58088
GHOST: No ghost state for L =  0
GHOST: No ghost state for L =  1
GHOST: No ghost state for L =  2
GHOST: No ghost state for L =  3

KBgen: Kleinman-Bylander projectors: 
   l= 0   rc=  1.704034   el= -1.009801   Ekb=  5.335044   kbcos=  0.316824
   l= 1   rc=  1.704034   el= -0.388707   Ekb= -3.785862   kbcos= -0.366464
   l= 2   rc=  1.791422   el=  0.001971   Ekb= -0.970471   kbcos= -0.009212
   l= 3   rc=  1.859892   el=  0.003065   Ekb= -0.399525   kbcos= -0.001223

KBgen: Total number of  Kleinman-Bylander projectors:   16
atom: -------------------------------------------------------------------------

atom: SANKEY-TYPE ORBITALS:
atom: Selected multiple-zeta basis: split     

SPLIT: Orbitals with angular momentum L= 0

SPLIT: Basis orbitals for state 2s

SPLIT: PAO cut-off radius determined from an
SPLIT: energy shift=  0.007350 Ry

   izeta = 1
                 lambda =    1.000000
                     rc =    4.632753
                 energy =   -1.002270
                kinetic =    0.855760
    potential(screened) =   -1.858031
       potential(ionic) =   -5.417575

   izeta = 2
                 rmatch =    3.431921
              splitnorm =    0.150000
                 energy =   -0.867111
                kinetic =    1.300804
    potential(screened) =   -2.167915
       potential(ionic) =   -5.962684

SPLIT: Orbitals with angular momentum L= 1

SPLIT: Basis orbitals for state 2p

SPLIT: PAO cut-off radius determined from an
SPLIT: energy shift=  0.007350 Ry

   izeta = 1
                 lambda =    1.000000
                     rc =    5.658549
                 energy =   -0.381140
                kinetic =    2.399701
    potential(screened) =   -2.780841
       potential(ionic) =   -6.206085

   izeta = 2
                 rmatch =    3.653288
              splitnorm =    0.150000
                 energy =   -0.249149
                kinetic =    3.542762
    potential(screened) =   -3.791911
       potential(ionic) =   -7.581078

POLgen: Perturbative polarization orbital with L=  2

POLgen: Polarization orbital for state 2p

   izeta = 1
                     rc =    5.658549
                 energy =    1.109913
                kinetic =    2.304789
    potential(screened) =   -1.194876
       potential(ionic) =   -4.013592
atom: Total number of Sankey-type orbitals: 13

atm_pop: Valence configuration (for local Pseudopot. screening):
 2s( 2.00)                                                            
 2p( 2.00)                                                            
Vna: chval, zval:    4.00000   4.00000

Vna:  Cut-off radius for the neutral-atom potential:   5.658549
comcore: Pseudo-core radius Rcore=  1.791422

atom: _________________________________________________________________________

prinput: Basis input ----------------------------------------------------------

PAO.BasisType split     

%block ChemicalSpeciesLabel
    1    5 B                       # Species index, atomic number, species label
    2    6 C                       # Species index, atomic number, species label
%endblock ChemicalSpeciesLabel

%block PAO.Basis                 # Define Basis set
B                     2                    # Species label, number of l-shells
 n=2   0   2                         # n, l, Nzeta 
   5.422      4.223   
   1.000      1.000   
 n=2   1   2 P   1                   # n, l, Nzeta, Polarization, NzetaPol
   6.790      4.609   
   1.000      1.000   
C                     2                    # Species label, number of l-shells
 n=2   0   2                         # n, l, Nzeta 
   4.633      3.432   
   1.000      1.000   
 n=2   1   2 P   1                   # n, l, Nzeta, Polarization, NzetaPol
   5.659      3.653   
   1.000      1.000   
%endblock PAO.Basis

prinput: ----------------------------------------------------------------------

coor:   Atomic-coordinates input format  =     Fractional

siesta: Atomic coordinates (Bohr) and species
siesta:      2.30256  38.89134   0.00000  1        1
siesta:      2.30256  41.57980   0.00000  1        2
siesta:      4.63094  34.85847   0.00000  1        3
siesta:      4.63094  37.54693   0.00000  1        4
siesta:      6.95932  30.82560   0.00000  1        5
siesta:      6.95932  33.51406   0.00000  1        6
siesta:      4.63094  13.34970   0.00000  1        7
siesta:      2.30256  14.69411   0.00000  1        8
siesta:      2.30256  17.38257   0.00000  1        9
siesta:     -0.02582  18.72698   0.00000  1       10
siesta:     -0.02582  21.41544   0.00000  1       11
siesta:      2.30256  25.44831   0.00000  1       12
siesta:     -4.68258  21.41544   0.00000  1       13
siesta:     -2.35420  22.75985   0.00000  1       14
siesta:     -7.01096  22.75985   0.00000  1       15
siesta:     -7.01096  25.44831   0.00000  1       16
siesta:     -9.33934  26.79272   0.00000  1       17
siesta:     -0.02582  26.79272   0.00000  1       18
siesta:     -0.02582  29.48119   0.00000  1       19
siesta:     -0.02582   2.59549   0.00000  2       20
siesta:     -0.02582   5.28395   0.00000  2       21
siesta:     -2.35420  38.89134   0.00000  2       22
siesta:     -2.35420  41.57980   0.00000  2       23
siesta:      9.28770  26.79272   0.00000  2       24
siesta:      9.28770  29.48119   0.00000  2       25
siesta:     -4.68258  34.85847   0.00000  2       26
siesta:     -4.68258  37.54693   0.00000  2       27
siesta:      2.30256   6.62836   0.00000  2       28
siesta:      2.30256   9.31683   0.00000  2       29
siesta:      4.63094  10.66124   0.00000  2       30
siesta:      6.95932  14.69411   0.00000  2       31
siesta:      6.95932  17.38257   0.00000  2       32
siesta:      9.28770  18.72698   0.00000  2       33
siesta:      9.28770  21.41544   0.00000  2       34
siesta:     11.61608  22.75985   0.00000  2       35
siesta:     11.61608  25.44831   0.00000  2       36
siesta:     -2.35420   6.62836   0.00000  2       37
siesta:     -2.35420   9.31683   0.00000  2       38
siesta:     -0.02582  10.66124   0.00000  2       39
siesta:     -0.02582  13.34970   0.00000  2       40
siesta:      4.63094  18.72698   0.00000  2       41
siesta:      4.63094  21.41544   0.00000  2       42
siesta:      6.95932  22.75985   0.00000  2       43
siesta:      6.95932  25.44831   0.00000  2       44
siesta:     -4.68258  10.66124   0.00000  2       45
siesta:     -4.68258  13.34970   0.00000  2       46
siesta:     -2.35420  14.69411   0.00000  2       47
siesta:     -2.35420  17.38257   0.00000  2       48
siesta:      2.30256  22.75985   0.00000  2       49
siesta:     -7.01096  14.69411   0.00000  2       50
siesta:     -7.01096  17.38257   0.00000  2       51
siesta:     -4.68258  18.72698   0.00000  2       52
siesta:     -2.35420  25.44831   0.00000  2       53
siesta:     -9.33934  18.72698   0.00000  2       54
siesta:     -9.33934  21.41544   0.00000  2       55
siesta:    -11.66772  22.75985   0.00000  2       56
siesta:    -11.66772  25.44831   0.00000  2       57
siesta:     -9.33934  29.48119   0.00000  2       58
siesta:      4.63094  26.79272   0.00000  2       59
siesta:      4.63094  29.48119   0.00000  2       60
siesta:     -4.68258  26.79272   0.00000  2       61
siesta:     -4.68258  29.48119   0.00000  2       62
siesta:      2.30256  30.82560   0.00000  2       63
siesta:      2.30256  33.51406   0.00000  2       64
siesta:     -2.35420  30.82560   0.00000  2       65
siesta:     -2.35420  33.51406   0.00000  2       66
siesta:     -7.01096  30.82560   0.00000  2       67
siesta:     -7.01096  33.51406   0.00000  2       68
siesta:     -0.02582  34.85847   0.00000  2       69
siesta:     -0.02582  37.54693   0.00000  2       70
siesta:     -0.02582  42.92421   0.00000  2       71
siesta:     -0.02582  45.61267   0.00000  2       72

siesta: System type = slab      

initatomlists: Number of atoms, orbitals, and projectors:     72   936  1152

siesta: ******************** Simulation parameters ****************************
siesta:
siesta: The following are some of the parameters of the simulation.
siesta: A complete list of the parameters used, including default values,
siesta: can be found in file out.fdf
siesta:
redata: Non-Collinear-spin run           =     F
redata: SpinPolarized (Up/Down) run      =     F
redata: Number of spin components        =     1
redata: Long output                      =     F
redata: Number of Atomic Species         =        2
redata: Charge density info will appear in .RHO file
redata: Write Mulliken Pop.              =     NO
redata: Mesh Cutoff                      =   200.0000  Ry
redata: Net charge of the system         =     0.0000 |e|
redata: Max. number of SCF Iter          =      500
redata: SCF convergence failure will abort job
redata: Performing Pulay mixing using    =    10 iterations
redata: Mix DM in first SCF step ?       =     F
redata: Write Pulay info on disk?        =     F
redata: Discard 1st Pulay DM after  kick =     F
redata: New DM Mixing Weight             =     0.0500
redata: New DM Occupancy tolerance       = 0.000000000001
redata: No kicks to SCF
redata: DM Mixing Weight for Kicks       =     0.5000
redata: DM Tolerance for SCF             =     0.000100
redata: Require Energy convergence for SCF =     F
redata: DM Energy tolerance for SCF      =     0.000100 eV
redata: Require Harris convergence for SCF =     F
redata: DM Harris energy tolerance for SCF =     0.000100 eV
redata: Using Saved Data (generic)   =     F
redata: Use continuation files for DM    =     T
redata: Neglect nonoverlap interactions  =     F
redata: Method of Calculation            =     Diagonalization
redata: Divide and Conquer               =     T
redata: Electronic Temperature           =     0.0019  Ry
redata: Fix the spin of the system       =     F
redata: Dynamics option                  =     Verlet MD run
redata: Initial MD time step             =        1
redata:   Final MD time step             =        1
redata: Length of MD time step           =     1.0000  fs
redata: Initial Temperature of MD run    =     0.0000  K
redata: Perform a MD quench              =     F
redata: ***********************************************************************
Total number of electrons:   269.000000
Total ionic charge:   269.000000

* ProcessorY, Blocksize:    2  24

k-point displ. along   1 input, could be:     0.50    0.00
k-point displ. along   2 input, could be:     0.50    0.00
 Kpoints in:          231 . Kpoints trimmed:          231

siesta: k-grid: Number of k-points =   231
siesta: k-grid: Cutoff (effective) =     5.000 Ang
siesta: k-grid: Supercell and displacements
siesta: k-grid:   21   0   0      0.500
siesta: k-grid:    0  21   0      0.500
siesta: k-grid:    0   0   1      0.000
Naive supercell factors:     2    2    2

superc: Internal auxiliary supercell:     2 x     2 x     2  =       8
superc: Number of atoms, orbitals, and projectors:    576   7488   9216

* Maximum dynamic memory allocated =     4 MB

siesta:                 ==============================
                            Begin MD step =      1
                        ==============================

superc: Internal auxiliary supercell:     2 x     2 x     2  =       8
superc: Number of atoms, orbitals, and projectors:    576   7488   9216

outcell: Unit cell vectors (Ang):
       12.804619    7.392750    0.000000
        0.000000   14.785500    0.000000
        0.000000    0.000000   10.000000

outcell: Cell vector modules (Ang)   :   14.785500   14.785500   10.000000
outcell: Cell angles (23,13,12) (deg):     90.0000     90.0000     60.0000
outcell: Cell volume (Ang**3)        :   1893.2269
New_DM. Step:     1
Initializing Density Matrix...

InitMesh: MESH =   120 x   120 x    90 =     1296000
InitMesh: Mesh cutoff (required, used) =   200.000   223.865 Ry

* Maximum dynamic memory allocated =   224 MB

stepf: Fermi-Dirac step function

siesta: Program's energy decomposition (eV):
siesta: Ebs     =     -5528.860758
siesta: Eions   =     15969.933558
siesta: Ena     =      4249.462432
siesta: Ekin    =      5376.155659
siesta: Enl     =       791.696357
siesta: DEna    =        -0.000008
siesta: DUscf   =         0.000000
siesta: DUext   =         0.000000
siesta: Exc     =     -4194.990438
siesta: eta*DQ  =         0.000000
siesta: Emadel  =         0.000000
siesta: Emeta   =         0.000000
siesta: Emolmec =         0.000000
siesta: Ekinion =         0.000000
siesta: Eharris =     -9503.415806
siesta: Etot    =     -9747.609557
siesta: FreeEng =     -9747.609557

siesta: iscf   Eharris(eV)      E_KS(eV)   FreeEng(eV)   dDmax  Ef(eV)
siesta:    1    -9503.4158    -9747.6096    -9747.6096  7.7399 -8.3821
timer: Routine,Calls,Time,% = IterSCF        1    4671.165  99.75
elaps: Routine,Calls,Wall,% = IterSCF        1     584.665  99.75
siesta:    2   -14805.9681    -8677.8846    -8677.9500 19.5221 -4.2640
siesta:    3    -9487.1838    -9593.6058    -9593.6413  2.7377 -6.6899
siesta:    4    -9447.5613    -9499.5499    -9499.6197  1.5397 -5.9147
siesta:    5    -9375.2524    -9401.5616    -9401.5832  1.0828 -5.3949
siesta:    6    -9359.7480    -9370.7215    -9370.7601  0.8605 -5.3361
siesta:    7    -9355.7326    -9362.6761    -9362.7076  0.8402 -5.2663
siesta:    8    -9350.5740    -9356.6857    -9356.7320  0.7179 -5.3093
siesta:    9    -9348.3247    -9347.6646    -9347.6939  0.6519 -5.2477
siesta:   10    -9348.5423    -9335.6414    -9335.6858  0.4084 -5.1936
siesta:   11    -9347.4575    -9331.9603    -9332.0235  0.3338 -5.1633
siesta:   12    -9347.6830    -9327.2170    -9327.2819  0.4348 -5.1030
siesta:   13    -9346.8577    -9327.5593    -9327.6134  0.3402 -5.0385
siesta:   14    -9346.5677    -9330.7483    -9330.7901  0.3077 -5.0561
siesta:   15    -9346.4203    -9331.5454    -9331.5819  0.2271 -5.0725
siesta:   16    -9346.3596    -9333.4689    -9333.5141  0.1955 -5.0900
siesta:   17    -9346.1993    -9337.7116    -9337.7527  0.1153 -5.1427
siesta:   18    -9346.1466    -9341.3472    -9341.3927  0.0638 -5.1685
siesta:   19    -9346.1351    -9343.2455    -9343.2879  0.0476 -5.1730
siesta:   20    -9346.1314    -9345.1678    -9345.2102  0.0467 -5.1751
siesta:   21    -9346.1320    -9345.8937    -9345.9371  0.0447 -5.1775
siesta:   22    -9346.1299    -9346.9663    -9347.0093  0.0453 -5.1813
siesta:   23    -9346.1301    -9346.9946    -9347.0370  0.0452 -5.1807
siesta:   24    -9346.1292    -9346.9348    -9346.9771  0.0466 -5.1824
siesta:   25    -9346.1347    -9347.1692    -9347.2119  0.0370 -5.1736
siesta:   26    -9346.1285    -9347.0390    -9347.0793  0.0254 -5.1571
siesta:   27    -9346.1233    -9346.2460    -9346.2851  0.0126 -5.1562
siesta:   28    -9346.1216    -9346.3946    -9346.4351  0.0078 -5.1558
siesta:   29    -9346.1210    -9346.4790    -9346.5199  0.0052 -5.1585
siesta:   30    -9346.1208    -9346.5072    -9346.5480  0.0028 -5.1594
siesta:   31    -9346.1207    -9346.4763    -9346.5171  0.0021 -5.1602
siesta:   32    -9346.1207    -9346.4340    -9346.4749  0.0026 -5.1601
siesta:   33    -9346.1207    -9346.2503    -9346.2912  0.0013 -5.1599
siesta:   34    -9346.1208    -9346.1278    -9346.1686  0.0006 -5.1596
siesta:   35    -9346.1207    -9346.1005    -9346.1412  0.0006 -5.1598
siesta:   36    -9346.1207    -9346.1052    -9346.1460  0.0005 -5.1598
siesta:   37    -9346.1207    -9346.1185    -9346.1593  0.0002 -5.1598
siesta:   38    -9346.1207    -9346.1173    -9346.1581  0.0001 -5.1598
siesta:   39    -9346.1207    -9346.1207    -9346.1615  0.0002 -5.1599
siesta:   40    -9346.1207    -9346.1230    -9346.1638  0.0001 -5.1598
siesta:   41    -9346.1207    -9346.1231    -9346.1639  0.0001 -5.1598

siesta: E_KS(eV) =            -9346.1200

siesta: E_KS - E_eggbox =     -9346.1200

siesta: Atomic forces (eV/Ang):
----------------------------------------
   Tot   -0.175480    0.063919    0.000000
----------------------------------------
   Max  558.335417
   Res  141.274116    sqrt( Sum f_i^2 / 3N )
----------------------------------------
   Max  558.335417    constrained

Stress-tensor-Voigt (kbar):     -762.36    -2578.51       -0.66        5.22        0.00        0.00
(Free)E + p*V (eV/cell)    -8029.9919
Target enthalpy (eV/cell)    -9346.1608

siesta: Stress tensor (static) (eV/Ang**3):
        -0.475820    0.003260    0.000000
         0.003260   -1.609365    0.000000
         0.000000    0.000000   -0.000411

siesta: Pressure (static):       1113.84317624  kBar

siesta: Stress tensor (total) (eV/Ang**3):
        -0.475820    0.003260    0.000000
         0.003260   -1.609365    0.000000
         0.000000    0.000000   -0.000411

siesta: Pressure (total):       1113.84317624  kBar

siesta: Temp_ion =       0.000 K

* Maximum dynamic memory allocated =   241 MB
Computing bands...

siesta: Program's energy decomposition (eV):
siesta: Ebs     =     -4184.339296
siesta: Eions   =     15969.933558
siesta: Ena     =      4249.462432
siesta: Ekin    =      8206.099254
siesta: Enl     =      -812.014969
siesta: DEna    =      -761.426405
siesta: DUscf   =       102.465847
siesta: DUext   =         0.000000
siesta: Exc     =     -4360.772585
siesta: eta*DQ  =         0.000000
siesta: Emadel  =         0.000000
siesta: Emeta   =         0.000000
siesta: Emolmec =         0.000000
siesta: Ekinion =         0.000000
siesta: Eharris =     -9346.120696
siesta: Etot    =     -9346.119983
siesta: FreeEng =     -9346.160786

siesta: Final energy (eV):
siesta:  Band Struct. =   -4184.339296
siesta:       Kinetic =    8206.099254
siesta:       Hartree =   26678.104022
siesta:    Ext. field =       0.000000
siesta:   Exch.-corr. =   -4360.772585
siesta:  Ion-electron =  -61282.918825
siesta:       Ion-ion =   21413.368151
siesta:       Ekinion =       0.000000
siesta:         Total =   -9346.119983

siesta: Atomic forces (eV/Ang):
siesta:      1    2.158918  105.055176    0.000000
siesta:      2    8.379928 -288.675005    0.000000
siesta:      3   16.620635    0.517509    0.000000
siesta:      4   21.367470 -395.410688    0.000000
siesta:      5    3.744163   -2.334199    0.000000
siesta:      6    3.119232    5.064853    0.000000
siesta:      7   21.264497    2.021600    0.000000
siesta:      8   22.700357  294.073771    0.000000
siesta:      9   18.828945    2.769655    0.000000
siesta:     10    1.678852  408.981410    0.000000
siesta:     11    3.487737   -0.056291    0.000000
siesta:     12    3.778635   -1.773413    0.000000
siesta:     13    0.203660   -5.276066    0.000000
siesta:     14   -0.631143    5.696246    0.000000
siesta:     15   -3.262993   -1.321884    0.000000
siesta:     16    4.435945    2.674234    0.000000
siesta:     17   -8.512581    3.809620    0.000000
siesta:     18   -3.783779   -0.437831    0.000000
siesta:     19   -0.699255 -408.239341    0.000000
siesta:     20   -0.780144  405.404019    0.000000
siesta:     21    1.613793 -125.657766    0.000000
siesta:     22    1.718820  129.561856    0.000000
siesta:     23  -21.698067 -550.957454    0.000000
siesta:     24    3.279251    2.790804    0.000000
siesta:     25    1.195999   -2.614986    0.000000
siesta:     26  -26.667859    3.253704    0.000000
siesta:     27  -31.825737 -549.375010    0.000000
siesta:     28    9.049700  546.493641    0.000000
siesta:     29    8.283954 -127.576290    0.000000
siesta:     30   27.367189  400.865917    0.000000
siesta:     31    0.404046    0.418176    0.000000
siesta:     32    2.154895   -1.777133    0.000000
siesta:     33    0.145438    0.711363    0.000000
siesta:     34    2.300797   -3.037455    0.000000
siesta:     35    0.003699    7.815179    0.000000
siesta:     36    0.061280   -7.980010    0.000000
siesta:     37  -13.593104  547.361973    0.000000
siesta:     38   -0.577226 -125.657002    0.000000
siesta:     39   -4.803083  550.152699    0.000000
siesta:     40    9.432732 -121.539692    0.000000
siesta:     41    0.174815    1.323977    0.000000
siesta:     42   -0.279908    0.334993    0.000000
siesta:     43   -0.293668    1.520896    0.000000
siesta:     44   -0.345125   -0.699733    0.000000
siesta:     45  -33.466338  548.857890    0.000000
siesta:     46  -25.988735   -4.534348    0.000000
siesta:     47  -25.285621  558.335417    0.000000
siesta:     48  -23.077453   -3.083498    0.000000
siesta:     49    2.840499   -2.107320    0.000000
siesta:     50    2.603218   -1.473320    0.000000
siesta:     51   -2.575646   -1.689759    0.000000
siesta:     52    1.808115   -1.837057    0.000000
siesta:     53   -2.238608    2.347313    0.000000
siesta:     54    1.137332    0.206167    0.000000
siesta:     55   -5.794621   -4.378487    0.000000
siesta:     56   -0.811710    5.012798    0.000000
siesta:     57   -2.428193   -7.452587    0.000000
siesta:     58    2.918250    2.982994    0.000000
siesta:     59    2.713254    1.918715    0.000000
siesta:     60   -3.349169   -3.023281    0.000000
siesta:     61    2.731200    1.362238    0.000000
siesta:     62    1.851166   -1.053026    0.000000
siesta:     63   20.856718    2.629962    0.000000
siesta:     64   32.252736 -552.034866    0.000000
siesta:     65  -21.732543    2.049755    0.000000
siesta:     66  -26.405758 -555.979339    0.000000
siesta:     67   -2.524854    1.453986    0.000000
siesta:     68    2.605302    2.072644    0.000000
siesta:     69    0.926478  127.954650    0.000000
siesta:     70   10.978034 -542.701340    0.000000
siesta:     71   11.032023  121.468560    0.000000
siesta:     72   -2.952267 -405.516960    0.000000
siesta: ----------------------------------------
siesta:    Tot   -0.175480    0.063919    0.000000

siesta: Stress tensor (static) (eV/Ang**3):
siesta:    -0.475820    0.003260    0.000000
siesta:     0.003260   -1.609365    0.000000
siesta:     0.000000    0.000000   -0.000411

siesta: Cell volume =       1893.226884 Ang**3

siesta: Pressure (static):
siesta:                Solid            Molecule  Units
siesta:           0.00757160          0.10672190  Ry/Bohr**3
siesta:           0.69519871          9.79884220  eV/Ang**3
siesta:        1113.84317624      15699.64571259  kBar
(Free)E+ p_basis*V_orbitals  =       -9309.420054
(Free)Eharris+ p_basis*V_orbitals  =       -9309.417606

siesta: Electric dipole (a.u.)  =    0.000000    0.000000    0.000000
siesta: Electric dipole (Debye) =    0.000000    0.000000    0.000000

* Maximum dynamic memory allocated : Node    0 =   241 MB
* Maximum dynamic memory allocated : Node    1 =    85 MB
* Maximum dynamic memory allocated : Node    2 =    86 MB
* Maximum dynamic memory allocated : Node    3 =   228 MB
* Maximum dynamic memory allocated : Node    4 =   225 MB
* Maximum dynamic memory allocated : Node    5 =    82 MB
* Maximum dynamic memory allocated : Node    6 =    84 MB
* Maximum dynamic memory allocated : Node    7 =   207 MB

* Maximum memory occured during matrixMtoO                    

timer: CPU execution times:
timer:  Routine       Calls   Time/call    Tot.time        %
timer:  siesta            1  188900.380  188900.380   100.00
timer:  Setup             1       3.033       3.033     0.00
timer:  bands             3     274.058     822.173     0.44
timer:  writewave         1       0.020       0.020     0.00
timer:  KSV_init          1       0.002       0.002     0.00
timer:  IterMD            1  188069.337  188069.337    99.56
timer:  hsparse           1       0.396       0.396     0.00
timer:  overlap           1       7.786       7.786     0.00
timer:  IterSCF          41    4581.511  187841.942    99.44
timer:  kinefsm           2       4.041       8.081     0.00
timer:  nlefsm            2      21.407      42.815     0.02
timer:  DHSCF            42     120.261    5050.976     2.67
timer:  DHSCF1            1       1.001       1.001     0.00
timer:  DHSCF2            1      45.508      45.508     0.02
timer:  REORD           338       0.011       3.754     0.00
timer:  POISON           43       2.463     105.906     0.06
timer:  DHSCF3           42     118.081    4959.382     2.63
timer:  rhoofd           42      25.131    1055.515     0.56
timer:  cellXC           42       3.551     149.135     0.08
timer:  vmat             42      57.476    2414.013     1.28
timer:  MolMec            2       0.000       0.000     0.00
timer:  diagon           41    4460.027  182861.091    96.80
timer:  c-eigval       9592       6.794   65163.845    34.50
timer:  c-buildHS      9592       0.140    1341.727     0.71
timer:  cdiag         19063       7.015  133723.147    70.79
timer:  cdiag1        19063       0.436    8320.976     4.40
timer:  cdiag2        19063       1.939   36971.400    19.57
timer:  cdiag3        19063       3.991   76081.868    40.28
timer:  cdiag4        19063       0.234    4466.131     2.36
timer:  c-eigvec       9471       7.449   70552.155    37.35
timer:  c-buildD       9471       5.059   47914.343    25.36
timer:  DHSCF4            1      42.559      42.559     0.02
timer:  dfscf             1      39.896      39.896     0.02
timer:  overfsm           1       0.480       0.480     0.00
timer:  optical           1       5.090       5.090     0.00
  

elaps: ELAPSED times:
elaps:  Routine       Calls   Time/call    Tot.time        %
elaps:  siesta            1   23641.978   23641.978   100.00
elaps:  Setup             1       0.378       0.378     0.00
elaps:  bands             3      34.309     102.928     0.44
elaps:  writewave         1       0.002       0.002     0.00
elaps:  KSV_init          1       0.000       0.000     0.00
elaps:  IterMD            1   23537.999   23537.999    99.56
elaps:  hsparse           1       0.051       0.051     0.00
elaps:  overlap           1       0.979       0.979     0.00
elaps:  IterSCF          41     573.404   23509.551    99.44
elaps:  kinefsm           2       0.512       1.025     0.00
elaps:  nlefsm            2       2.732       5.464     0.02
elaps:  DHSCF            42      15.173     637.253     2.70
elaps:  DHSCF1            1       0.128       0.128     0.00
elaps:  DHSCF2            1       5.692       5.692     0.02
elaps:  REORD           338       0.001       0.489     0.00
elaps:  POISON           43       0.308      13.253     0.06
elaps:  DHSCF3           42      14.772     620.427     2.62
elaps:  rhoofd           42       6.774     284.521     1.20
elaps:  cellXC           42       0.444      18.630     0.08
elaps:  vmat             42       7.190     301.978     1.28
elaps:  MolMec            2       0.000       0.000     0.00
elaps:  diagon           41     558.236   22887.667    96.81
elaps:  c-eigval       9592       0.850    8153.325    34.49
elaps:  c-buildHS      9592       0.019     181.291     0.77
elaps:  cdiag         19063       0.861   16408.003    69.40
elaps:  cdiag1        19063       0.054    1026.467     4.34
elaps:  cdiag2        19063       0.243    4626.214    19.57
elaps:  cdiag3        19063       0.500    9533.307    40.32
elaps:  cdiag4        19063       0.030     564.600     2.39
elaps:  c-eigvec       9471       0.902    8543.199    36.14
elaps:  c-buildD       9471       0.664    6286.345    26.59
elaps:  DHSCF4            1      10.660      10.660     0.05
elaps:  dfscf             1      10.129      10.129     0.04
elaps:  overfsm           1       0.062       0.062     0.00
elaps:  optical           1       0.000       0.000     0.00
  
>> End of run:  30-APR-2016  10:08:23
