Siesta Version:                                        siesta-3.2-pl-3
Architecture  : x86_64-unknown-linux-gnu--unknown
Compiler flags: mpiifort -g -O2 -fPIC -xSSE4.1 -fp-model source -shared-intel 
PARALLEL version

* Running on   12 nodes in parallel
>> Start of run:   4-MAY-2016  12:36:49

                           ***********************       
                           *  WELCOME TO SIESTA  *       
                           ***********************       

reinit: Reading from standard input
************************** Dump of input data file ****************************
#(1) General system descriptors
SystemName            GRP_doping    # Descriptive name of the system
SystemLabel           GRP_doping    # Short name for naming files
%include STRUCT.fdf
%include KPT.fdf
%include BASIS.fdf
#%include TS.fdf # for transiesta calculation
#(4) DFT, Grid, SCF
XC.functional         GGA           # LDA or GGA (default = LDA)
XC.authors            PBE           # CA (Ceperley-Aldr) = PZ
                                    #    (Perdew-Zunger) - LDA - Default
                                    # PW92 (Perdew-Wang-92) - LDA
                                    # PBE (Perdew-Burke-Ernzerhof) - GGA
MeshCutoff            200.000000    Ry      # Default: 50.0 Ry ~ 0.444 Bohr
                                    #         100.0 Ry ~ 0.314 Bohr
MaxSCFIterations      500           # Default: 50
DM.MixingWeight       0.05          # Default: 0.25
DM.NumberPulay        10            # Default: 0
DM.PulayOnFile        F             # SystemLabel.P1, SystemLabel.P2
DM.Tolerance          1.d-4         # Default: 1.d-4
DM.UseSaveDM          .true.        # because of the bug
SCFMustConverge       .true.
NeglNonOverlapInt     F             # Default: F
#(5) Eigenvalue problem: order-N or diagonalization
SolutionMethod        Diagon        # or Transiesta
ElectronicTemperature 300.0 K       # Default: 300.0 K
#(6) Molecular dynamics and relaxations
#MD.TypeOfRun          CG            # Type of dynamics:
#MD.VariableCell       F
#MD.NumCGsteps         0           # 0 for single-point / 100 for gopt
#MD.MaxCGDispl         0.2 Bohr      # Default: 0.2 Bohr
#MD.MaxForceTol        0.02 eV/Ang   # Default: 0.04 eV/Ang
#MD.MaxStressTol       1.0 GPa       # Default: 1.0 GPa
# Geometry Constraints
#%block GeometryConstraints
#	position from 1 to 44
#%endblock GeometryConstraints
BandLinesScale   pi/a
%block BandLines
 1   0.00000000  0.00000000  0.00000000
50   0.00000000  0.07809418  0.00000000
50   0.04509075  0.07809242  0.00000000
20   0.00000000  0.00000000  0.00000000
%endblock BandLines
************************** End of input data file *****************************

reinit: -----------------------------------------------------------------------
reinit: System Name: GRP_doping
reinit: -----------------------------------------------------------------------
reinit: System Label: GRP_doping                                                  
reinit: -----------------------------------------------------------------------

initatom: Reading input for the pseudopotentials and atomic orbitals ----------
 Species number:            1  Label: B Atomic number:           5
 Species number:            2  Label: C Atomic number:           6
Ground state valence configuration:   2s02  2p01
Reading pseudopotential information in formatted form from B.psf

Valence configuration for pseudopotential generation:
2s( 2.00) rc: 1.74
2p( 1.00) rc: 1.74
3d( 0.00) rc: 1.74
4f( 0.00) rc: 1.74
Ground state valence configuration:   2s02  2p02
Reading pseudopotential information in formatted form from C.psf

Valence configuration for pseudopotential generation:
2s( 2.00) rc: 1.54
2p( 2.00) rc: 1.54
3d( 0.00) rc: 1.54
4f( 0.00) rc: 1.54
For B, standard SIESTA heuristics set lmxkb to 3
 (one more than the basis l, including polarization orbitals).
Use PS.lmax or PS.KBprojectors blocks to override.
For C, standard SIESTA heuristics set lmxkb to 3
 (one more than the basis l, including polarization orbitals).
Use PS.lmax or PS.KBprojectors blocks to override.

<basis_specs>
===============================================================================
B                    Z=   5    Mass=  10.810        Charge= 0.17977+309
Lmxo=1 Lmxkb= 3    BasisType=split      Semic=F
L=0  Nsemic=0  Cnfigmx=2
          n=1  nzeta=2  polorb=0
            splnorm:   0.15000    
               vcte:    0.0000    
               rinn:    0.0000    
                rcs:    0.0000      0.0000    
            lambdas:    1.0000      1.0000    
L=1  Nsemic=0  Cnfigmx=2
          n=1  nzeta=2  polorb=1
            splnorm:   0.15000    
               vcte:    0.0000    
               rinn:    0.0000    
                rcs:    0.0000      0.0000    
            lambdas:    1.0000      1.0000    
-------------------------------------------------------------------------------
L=0  Nkbl=1  erefs: 0.17977+309
L=1  Nkbl=1  erefs: 0.17977+309
L=2  Nkbl=1  erefs: 0.17977+309
L=3  Nkbl=1  erefs: 0.17977+309
===============================================================================
</basis_specs>

atom: Called for B                     (Z =   5)

read_vps: Pseudopotential generation method:
read_vps: ATM3      Troullier-Martins                       
Total valence charge:    3.00000

read_vps: Pseudopotential includes a core correction:
read_vps: Pseudo-core for xc-correction

xc_check: Exchange-correlation functional:
xc_check: GGA Perdew, Burke & Ernzerhof 1996
V l=0 = -2*Zval/r beyond r=  1.7165
V l=1 = -2*Zval/r beyond r=  1.7165
V l=2 = -2*Zval/r beyond r=  1.7165
V l=3 = -2*Zval/r beyond r=  1.6951
All V_l potentials equal beyond r=  1.7165
This should be close to max(r_c) in ps generation
All pots = -2*Zval/r beyond r=  1.7165

VLOCAL1: 99.0% of the norm of Vloc inside     14.733 Ry
VLOCAL1: 99.9% of the norm of Vloc inside     33.577 Ry
atom: Maximum radius for 4*pi*r*r*local-pseudopot. charge    2.04484
atom: Maximum radius for r*vlocal+2*Zval:    1.75994
GHOST: No ghost state for L =  0
GHOST: No ghost state for L =  1
GHOST: No ghost state for L =  2
GHOST: No ghost state for L =  3

KBgen: Kleinman-Bylander projectors: 
   l= 0   rc=  1.897051   el= -0.693730   Ekb=  4.595746   kbcos=  0.286105
   l= 1   rc=  1.920920   el= -0.265236   Ekb= -2.350715   kbcos= -0.315747
   l= 2   rc=  2.044840   el=  0.002055   Ekb= -0.690767   kbcos= -0.013822
   l= 3   rc=  2.149707   el=  0.003188   Ekb= -0.315358   kbcos= -0.002055

KBgen: Total number of  Kleinman-Bylander projectors:   16
atom: -------------------------------------------------------------------------

atom: SANKEY-TYPE ORBITALS:
atom: Selected multiple-zeta basis: split     

SPLIT: Orbitals with angular momentum L= 0

SPLIT: Basis orbitals for state 2s

SPLIT: PAO cut-off radius determined from an
SPLIT: energy shift=  0.007350 Ry

   izeta = 1
                 lambda =    1.000000
                     rc =    5.422032
                 energy =   -0.686029
                kinetic =    0.576707
    potential(screened) =   -1.262736
       potential(ionic) =   -3.271094

   izeta = 2
                 rmatch =    4.222573
              splitnorm =    0.150000
                 energy =   -0.602132
                kinetic =    0.858975
    potential(screened) =   -1.461107
       potential(ionic) =   -3.582536

SPLIT: Orbitals with angular momentum L= 1

SPLIT: Basis orbitals for state 2p

SPLIT: PAO cut-off radius determined from an
SPLIT: energy shift=  0.007350 Ry

   izeta = 1
                 lambda =    1.000000
                     rc =    6.790259
                 energy =   -0.258578
                kinetic =    1.481412
    potential(screened) =   -1.739989
       potential(ionic) =   -3.657461

   izeta = 2
                 rmatch =    4.608740
              splitnorm =    0.150000
                 energy =   -0.173757
                kinetic =    2.186690
    potential(screened) =   -2.360447
       potential(ionic) =   -4.464260

POLgen: Perturbative polarization orbital with L=  2

POLgen: Polarization orbital for state 2p

   izeta = 1
                     rc =    6.790259
                 energy =    0.684082
                kinetic =    1.471481
    potential(screened) =   -0.787399
       potential(ionic) =   -2.406985
atom: Total number of Sankey-type orbitals: 13

atm_pop: Valence configuration (for local Pseudopot. screening):
 2s( 2.00)                                                            
 2p( 1.00)                                                            
Vna: chval, zval:    3.00000   3.00000

Vna:  Cut-off radius for the neutral-atom potential:   6.790259
comcore: Pseudo-core radius Rcore=  2.122997

atom: _________________________________________________________________________

<basis_specs>
===============================================================================
C                    Z=   6    Mass=  12.010        Charge= 0.17977+309
Lmxo=1 Lmxkb= 3    BasisType=split      Semic=F
L=0  Nsemic=0  Cnfigmx=2
          n=1  nzeta=2  polorb=0
            splnorm:   0.15000    
               vcte:    0.0000    
               rinn:    0.0000    
                rcs:    0.0000      0.0000    
            lambdas:    1.0000      1.0000    
L=1  Nsemic=0  Cnfigmx=2
          n=1  nzeta=2  polorb=1
            splnorm:   0.15000    
               vcte:    0.0000    
               rinn:    0.0000    
                rcs:    0.0000      0.0000    
            lambdas:    1.0000      1.0000    
-------------------------------------------------------------------------------
L=0  Nkbl=1  erefs: 0.17977+309
L=1  Nkbl=1  erefs: 0.17977+309
L=2  Nkbl=1  erefs: 0.17977+309
L=3  Nkbl=1  erefs: 0.17977+309
===============================================================================
</basis_specs>

atom: Called for C                     (Z =   6)

read_vps: Pseudopotential generation method:
read_vps: ATM3      Troullier-Martins                       
Total valence charge:    4.00000

read_vps: Pseudopotential includes a core correction:
read_vps: Pseudo-core for xc-correction

xc_check: Exchange-correlation functional:
xc_check: GGA Perdew, Burke & Ernzerhof 1996
V l=0 = -2*Zval/r beyond r=  1.5227
V l=1 = -2*Zval/r beyond r=  1.5227
V l=2 = -2*Zval/r beyond r=  1.5227
V l=3 = -2*Zval/r beyond r=  1.5038
All V_l potentials equal beyond r=  1.5227
This should be close to max(r_c) in ps generation
All pots = -2*Zval/r beyond r=  1.5227

VLOCAL1: 99.0% of the norm of Vloc inside     18.722 Ry
VLOCAL1: 99.9% of the norm of Vloc inside     42.668 Ry
atom: Maximum radius for 4*pi*r*r*local-pseudopot. charge    1.83678
atom: Maximum radius for r*vlocal+2*Zval:    1.58088
GHOST: No ghost state for L =  0
GHOST: No ghost state for L =  1
GHOST: No ghost state for L =  2
GHOST: No ghost state for L =  3

KBgen: Kleinman-Bylander projectors: 
   l= 0   rc=  1.704034   el= -1.009801   Ekb=  5.335044   kbcos=  0.316824
   l= 1   rc=  1.704034   el= -0.388707   Ekb= -3.785862   kbcos= -0.366464
   l= 2   rc=  1.791422   el=  0.001971   Ekb= -0.970471   kbcos= -0.009212
   l= 3   rc=  1.859892   el=  0.003065   Ekb= -0.399525   kbcos= -0.001223

KBgen: Total number of  Kleinman-Bylander projectors:   16
atom: -------------------------------------------------------------------------

atom: SANKEY-TYPE ORBITALS:
atom: Selected multiple-zeta basis: split     

SPLIT: Orbitals with angular momentum L= 0

SPLIT: Basis orbitals for state 2s

SPLIT: PAO cut-off radius determined from an
SPLIT: energy shift=  0.007350 Ry

   izeta = 1
                 lambda =    1.000000
                     rc =    4.632753
                 energy =   -1.002270
                kinetic =    0.855760
    potential(screened) =   -1.858031
       potential(ionic) =   -5.417575

   izeta = 2
                 rmatch =    3.431921
              splitnorm =    0.150000
                 energy =   -0.867111
                kinetic =    1.300804
    potential(screened) =   -2.167915
       potential(ionic) =   -5.962684

SPLIT: Orbitals with angular momentum L= 1

SPLIT: Basis orbitals for state 2p

SPLIT: PAO cut-off radius determined from an
SPLIT: energy shift=  0.007350 Ry

   izeta = 1
                 lambda =    1.000000
                     rc =    5.658549
                 energy =   -0.381140
                kinetic =    2.399701
    potential(screened) =   -2.780841
       potential(ionic) =   -6.206085

   izeta = 2
                 rmatch =    3.653288
              splitnorm =    0.150000
                 energy =   -0.249149
                kinetic =    3.542762
    potential(screened) =   -3.791911
       potential(ionic) =   -7.581078

POLgen: Perturbative polarization orbital with L=  2

POLgen: Polarization orbital for state 2p

   izeta = 1
                     rc =    5.658549
                 energy =    1.109913
                kinetic =    2.304789
    potential(screened) =   -1.194876
       potential(ionic) =   -4.013592
atom: Total number of Sankey-type orbitals: 13

atm_pop: Valence configuration (for local Pseudopot. screening):
 2s( 2.00)                                                            
 2p( 2.00)                                                            
Vna: chval, zval:    4.00000   4.00000

Vna:  Cut-off radius for the neutral-atom potential:   5.658549
comcore: Pseudo-core radius Rcore=  1.791422

atom: _________________________________________________________________________

prinput: Basis input ----------------------------------------------------------

PAO.BasisType split     

%block ChemicalSpeciesLabel
    1    5 B                       # Species index, atomic number, species label
    2    6 C                       # Species index, atomic number, species label
%endblock ChemicalSpeciesLabel

%block PAO.Basis                 # Define Basis set
B                     2                    # Species label, number of l-shells
 n=2   0   2                         # n, l, Nzeta 
   5.422      4.223   
   1.000      1.000   
 n=2   1   2 P   1                   # n, l, Nzeta, Polarization, NzetaPol
   6.790      4.609   
   1.000      1.000   
C                     2                    # Species label, number of l-shells
 n=2   0   2                         # n, l, Nzeta 
   4.633      3.432   
   1.000      1.000   
 n=2   1   2 P   1                   # n, l, Nzeta, Polarization, NzetaPol
   5.659      3.653   
   1.000      1.000   
%endblock PAO.Basis

prinput: ----------------------------------------------------------------------

coor:   Atomic-coordinates input format  =     Fractional

siesta: Atomic coordinates (Bohr) and species
siesta:     -0.02582  18.72698   0.00000  1        1
siesta:     -0.02582  21.41544   0.00000  1        2
siesta:      2.30256  22.75985   0.00000  1        3
siesta:     -2.35420  22.75985   0.00000  1        4
siesta:     -2.35420  25.44831   0.00000  1        5
siesta:     -7.01096  22.75985   0.00000  1        6
siesta:     -7.01096  25.44831   0.00000  1        7
siesta:     -4.68258  26.79272   0.00000  1        8
siesta:     -4.68258  29.48119   0.00000  1        9
siesta:     -2.35420  30.82560   0.00000  1       10
siesta:     -0.02582   2.59549   0.00000  2       11
siesta:     -0.02582   5.28395   0.00000  2       12
siesta:     -2.35420  38.89134   0.00000  2       13
siesta:     -2.35420  41.57980   0.00000  2       14
siesta:      2.30256  38.89134   0.00000  2       15
siesta:      2.30256  41.57980   0.00000  2       16
siesta:      4.63094  34.85847   0.00000  2       17
siesta:      4.63094  37.54693   0.00000  2       18
siesta:      6.95932  30.82560   0.00000  2       19
siesta:      6.95932  33.51406   0.00000  2       20
siesta:      9.28770  26.79272   0.00000  2       21
siesta:      9.28770  29.48119   0.00000  2       22
siesta:     -4.68258  34.85847   0.00000  2       23
siesta:     -4.68258  37.54693   0.00000  2       24
siesta:      2.30256   6.62836   0.00000  2       25
siesta:      2.30256   9.31683   0.00000  2       26
siesta:      4.63094  10.66124   0.00000  2       27
siesta:      4.63094  13.34970   0.00000  2       28
siesta:      6.95932  14.69411   0.00000  2       29
siesta:      6.95932  17.38257   0.00000  2       30
siesta:      9.28770  18.72698   0.00000  2       31
siesta:      9.28770  21.41544   0.00000  2       32
siesta:     11.61608  22.75985   0.00000  2       33
siesta:     11.61608  25.44831   0.00000  2       34
siesta:     -2.35420   6.62836   0.00000  2       35
siesta:     -2.35420   9.31683   0.00000  2       36
siesta:     -0.02582  10.66124   0.00000  2       37
siesta:     -0.02582  13.34970   0.00000  2       38
siesta:      2.30256  14.69411   0.00000  2       39
siesta:      2.30256  17.38257   0.00000  2       40
siesta:      4.63094  18.72698   0.00000  2       41
siesta:      4.63094  21.41544   0.00000  2       42
siesta:      6.95932  22.75985   0.00000  2       43
siesta:      6.95932  25.44831   0.00000  2       44
siesta:     -4.68258  10.66124   0.00000  2       45
siesta:     -4.68258  13.34970   0.00000  2       46
siesta:     -2.35420  14.69411   0.00000  2       47
siesta:     -2.35420  17.38257   0.00000  2       48
siesta:      2.30256  25.44831   0.00000  2       49
siesta:     -7.01096  14.69411   0.00000  2       50
siesta:     -7.01096  17.38257   0.00000  2       51
siesta:     -4.68258  18.72698   0.00000  2       52
siesta:     -4.68258  21.41544   0.00000  2       53
siesta:     -9.33934  18.72698   0.00000  2       54
siesta:     -9.33934  21.41544   0.00000  2       55
siesta:    -11.66772  22.75985   0.00000  2       56
siesta:    -11.66772  25.44831   0.00000  2       57
siesta:     -9.33934  26.79272   0.00000  2       58
siesta:     -9.33934  29.48119   0.00000  2       59
siesta:      4.63094  26.79272   0.00000  2       60
siesta:      4.63094  29.48119   0.00000  2       61
siesta:     -0.02582  26.79272   0.00000  2       62
siesta:     -0.02582  29.48119   0.00000  2       63
siesta:      2.30256  30.82560   0.00000  2       64
siesta:      2.30256  33.51406   0.00000  2       65
siesta:     -2.35420  33.51406   0.00000  2       66
siesta:     -7.01096  30.82560   0.00000  2       67
siesta:     -7.01096  33.51406   0.00000  2       68
siesta:     -0.02582  34.85847   0.00000  2       69
siesta:     -0.02582  37.54693   0.00000  2       70
siesta:     -0.02582  42.92421   0.00000  2       71
siesta:     -0.02582  45.61267   0.00000  2       72

siesta: System type = slab      

initatomlists: Number of atoms, orbitals, and projectors:     72   936  1152

siesta: ******************** Simulation parameters ****************************
siesta:
siesta: The following are some of the parameters of the simulation.
siesta: A complete list of the parameters used, including default values,
siesta: can be found in file out.fdf
siesta:
redata: Non-Collinear-spin run           =     F
redata: SpinPolarized (Up/Down) run      =     F
redata: Number of spin components        =     1
redata: Long output                      =     F
redata: Number of Atomic Species         =        2
redata: Charge density info will appear in .RHO file
redata: Write Mulliken Pop.              =     NO
redata: Mesh Cutoff                      =   200.0000  Ry
redata: Net charge of the system         =     0.0000 |e|
redata: Max. number of SCF Iter          =      500
redata: SCF convergence failure will abort job
redata: Performing Pulay mixing using    =    10 iterations
redata: Mix DM in first SCF step ?       =     F
redata: Write Pulay info on disk?        =     F
redata: Discard 1st Pulay DM after  kick =     F
redata: New DM Mixing Weight             =     0.0500
redata: New DM Occupancy tolerance       = 0.000000000001
redata: No kicks to SCF
redata: DM Mixing Weight for Kicks       =     0.5000
redata: DM Tolerance for SCF             =     0.000100
redata: Require Energy convergence for SCF =     F
redata: DM Energy tolerance for SCF      =     0.000100 eV
redata: Require Harris convergence for SCF =     F
redata: DM Harris energy tolerance for SCF =     0.000100 eV
redata: Using Saved Data (generic)   =     F
redata: Use continuation files for DM    =     T
redata: Neglect nonoverlap interactions  =     F
redata: Method of Calculation            =     Diagonalization
redata: Divide and Conquer               =     T
redata: Electronic Temperature           =     0.0019  Ry
redata: Fix the spin of the system       =     F
redata: Dynamics option                  =     Verlet MD run
redata: Initial MD time step             =        1
redata:   Final MD time step             =        1
redata: Length of MD time step           =     1.0000  fs
redata: Initial Temperature of MD run    =     0.0000  K
redata: Perform a MD quench              =     F
redata: ***********************************************************************
Total number of electrons:   278.000000
Total ionic charge:   278.000000

* ProcessorY, Blocksize:    3  24

k-point displ. along   1 input, could be:     0.50    0.00
k-point displ. along   2 input, could be:     0.50    0.00
 Kpoints in:          231 . Kpoints trimmed:          231

siesta: k-grid: Number of k-points =   231
siesta: k-grid: Cutoff (effective) =     5.000 Ang
siesta: k-grid: Supercell and displacements
siesta: k-grid:   21   0   0      0.500
siesta: k-grid:    0  21   0      0.500
siesta: k-grid:    0   0   1      0.000
Naive supercell factors:     2    2    2

superc: Internal auxiliary supercell:     2 x     2 x     2  =       8
superc: Number of atoms, orbitals, and projectors:    576   7488   9216

* Maximum dynamic memory allocated =     4 MB

siesta:                 ==============================
                            Begin MD step =      1
                        ==============================

superc: Internal auxiliary supercell:     2 x     2 x     2  =       8
superc: Number of atoms, orbitals, and projectors:    576   7488   9216

outcell: Unit cell vectors (Ang):
       12.804619    7.392750    0.000000
        0.000000   14.785500    0.000000
        0.000000    0.000000   10.000000

outcell: Cell vector modules (Ang)   :   14.785500   14.785500   10.000000
outcell: Cell angles (23,13,12) (deg):     90.0000     90.0000     60.0000
outcell: Cell volume (Ang**3)        :   1893.2269
New_DM. Step:     1
Initializing Density Matrix...

InitMesh: MESH =   120 x   120 x    90 =     1296000
InitMesh: Mesh cutoff (required, used) =   200.000   223.865 Ry

* Maximum dynamic memory allocated =   153 MB

stepf: Fermi-Dirac step function

siesta: Program's energy decomposition (eV):
siesta: Ebs     =     -5715.369184
siesta: Eions   =     17122.443959
siesta: Ena     =      4477.581056
siesta: Ekin    =      5850.796185
siesta: Enl     =       712.284077
siesta: DEna    =        -0.000012
siesta: DUscf   =         0.000000
siesta: DUext   =         0.000000
siesta: Exc     =     -4187.207627
siesta: eta*DQ  =         0.000000
siesta: Emadel  =         0.000000
siesta: Emeta   =         0.000000
siesta: Emolmec =         0.000000
siesta: Ekinion =         0.000000
siesta: Eharris =     -9957.942739
siesta: Etot    =    -10268.990279
siesta: FreeEng =    -10268.990279

siesta: iscf   Eharris(eV)      E_KS(eV)   FreeEng(eV)   dDmax  Ef(eV)
siesta:    1    -9957.9427   -10268.9903   -10268.9903  6.4280 -8.0509
timer: Routine,Calls,Time,% = IterSCF        1    3045.203  99.59
elaps: Routine,Calls,Wall,% = IterSCF        1     254.369  99.59
siesta:    2   -14028.4873    -9304.4885    -9304.6182 16.5498 -2.5844
siesta:    3    -9898.6567   -10116.9164   -10116.9851  3.5484 -6.6955
siesta:    4    -9874.8197    -9960.9577    -9961.0033  1.3807 -5.5550
siesta:    5    -9834.5308    -9868.6706    -9868.7138  0.7961 -5.2191
siesta:    6    -9819.9902    -9854.5633    -9854.5883  0.8242 -5.0989
siesta:    7    -9817.0748    -9850.7094    -9850.7536  0.8219 -5.0919
siesta:    8    -9811.1576    -9834.3729    -9834.4201  0.7210 -5.1464
siesta:    9    -9810.3332    -9826.4426    -9826.4614  0.6594 -5.1367
siesta:   10    -9809.7271    -9812.6050    -9812.6356  0.4699 -4.9837
siesta:   11    -9810.3613    -9799.2998    -9799.3558  0.2867 -4.9451
siesta:   12    -9809.6913    -9793.0382    -9793.1222  0.2010 -4.9253
siesta:   13    -9809.5403    -9787.2816    -9787.3220  0.1628 -4.8384
siesta:   14    -9809.2126    -9788.6877    -9788.7390  0.1223 -4.8345
siesta:   15    -9808.6933    -9791.2754    -9791.3368  0.0897 -4.8787
siesta:   16    -9808.5208    -9797.3397    -9797.4014  0.0645 -4.9229
siesta:   17    -9808.4872    -9799.4762    -9799.5339  0.0582 -4.9288
siesta:   18    -9808.4236    -9801.3789    -9801.4374  0.0359 -4.9435
siesta:   19    -9808.4121    -9802.9527    -9803.0082  0.0264 -4.9438
siesta:   20    -9808.4095    -9804.7811    -9804.8372  0.0226 -4.9493
siesta:   21    -9808.4053    -9805.7385    -9805.7950  0.0180 -4.9542
siesta:   22    -9808.4028    -9806.9233    -9806.9788  0.0123 -4.9553
siesta:   23    -9808.4023    -9807.3203    -9807.3763  0.0100 -4.9555
siesta:   24    -9808.4010    -9808.1045    -9808.1606  0.0079 -4.9544
siesta:   25    -9808.4005    -9808.4377    -9808.4941  0.0060 -4.9521
siesta:   26    -9808.4006    -9808.5382    -9808.5950  0.0038 -4.9508
siesta:   27    -9808.4006    -9808.6107    -9808.6674  0.0016 -4.9502
siesta:   28    -9808.4006    -9808.5474    -9808.6039  0.0009 -4.9505
siesta:   29    -9808.4005    -9808.5125    -9808.5689  0.0006 -4.9507
siesta:   30    -9808.4004    -9808.5135    -9808.5700  0.0005 -4.9508
siesta:   31    -9808.4005    -9808.4715    -9808.5281  0.0004 -4.9509
siesta:   32    -9808.4004    -9808.4387    -9808.4952  0.0004 -4.9509
siesta:   33    -9808.4005    -9808.3984    -9808.4550  0.0004 -4.9510
siesta:   34    -9808.4004    -9808.4117    -9808.4682  0.0001 -4.9511
siesta:   35    -9808.4004    -9808.4078    -9808.4643  0.0001 -4.9511

siesta: E_KS(eV) =            -9808.4041

siesta: E_KS - E_eggbox =     -9808.4041

siesta: Atomic forces (eV/Ang):
----------------------------------------
   Tot   -0.201533   -0.018649    0.000000
----------------------------------------
   Max  559.650045
   Res  157.093914    sqrt( Sum f_i^2 / 3N )
----------------------------------------
   Max  559.650045    constrained

Stress-tensor-Voigt (kbar):     -783.50    -2810.97       -0.45        2.41        0.00        0.00
(Free)E + p*V (eV/cell)    -8392.4803
Target enthalpy (eV/cell)    -9808.4606

siesta: Stress tensor (static) (eV/Ang**3):
        -0.489020    0.001506    0.000000
         0.001506   -1.754453    0.000000
         0.000000    0.000000   -0.000284

siesta: Pressure (static):       1198.31131349  kBar

siesta: Stress tensor (total) (eV/Ang**3):
        -0.489020    0.001506    0.000000
         0.001506   -1.754453    0.000000
         0.000000    0.000000   -0.000284

siesta: Pressure (total):       1198.31131349  kBar

siesta: Temp_ion =       0.000 K

* Maximum dynamic memory allocated =   165 MB
Computing bands...

siesta: Program's energy decomposition (eV):
siesta: Ebs     =     -4388.368436
siesta: Eions   =     17122.443959
siesta: Ena     =      4477.581056
siesta: Ekin    =      8788.924379
siesta: Enl     =      -908.594666
siesta: DEna    =      -789.614009
siesta: DUscf   =       104.287770
siesta: DUext   =         0.000000
siesta: Exc     =     -4358.544664
siesta: eta*DQ  =         0.000000
siesta: Emadel  =         0.000000
siesta: Emeta   =         0.000000
siesta: Emolmec =         0.000000
siesta: Ekinion =         0.000000
siesta: Eharris =     -9808.400450
siesta: Etot    =     -9808.404092
siesta: FreeEng =     -9808.460641

siesta: Final energy (eV):
siesta:  Band Struct. =   -4388.368436
siesta:       Kinetic =    8788.924379
siesta:       Hartree =   28917.843492
siesta:    Ext. field =       0.000000
siesta:   Exch.-corr. =   -4358.544664
siesta:  Ion-electron =  -66323.319934
siesta:       Ion-ion =   23166.692634
siesta:       Ekinion =       0.000000
siesta:         Total =   -9808.404092

siesta: Atomic forces (eV/Ang):
siesta:      1   -0.506691  409.539368    0.000000
siesta:      2    1.065472   -0.915237    0.000000
siesta:      3    3.195428    1.016713    0.000000
siesta:      4   -5.857011   -4.123627    0.000000
siesta:      5    5.865186    5.523271    0.000000
siesta:      6    0.748763   -4.511897    0.000000
siesta:      7   -3.326957    3.620041    0.000000
siesta:      8   -0.416191   -2.624208    0.000000
siesta:      9   -1.255802    3.019729    0.000000
siesta:     10  -15.490257    4.718233    0.000000
siesta:     11    4.685556  546.988369    0.000000
siesta:     12   -2.309471 -131.997894    0.000000
siesta:     13    1.815000  126.870504    0.000000
siesta:     14  -15.921029 -548.721245    0.000000
siesta:     15   -2.161337  127.381367    0.000000
siesta:     16   17.473454 -548.614416    0.000000
siesta:     17   27.075048    4.803565    0.000000
siesta:     18   33.115385 -548.915669    0.000000
siesta:     19    1.822067    0.095710    0.000000
siesta:     20   -2.587765    2.080505    0.000000
siesta:     21    2.193836    1.685834    0.000000
siesta:     22   -0.934304    0.491597    0.000000
siesta:     23  -25.616872    4.896055    0.000000
siesta:     24  -32.427751 -549.099660    0.000000
siesta:     25   12.718151  546.556325    0.000000
siesta:     26   -1.361695 -126.379424    0.000000
siesta:     27   32.774137  548.616312    0.000000
siesta:     28   26.612727   -4.991236    0.000000
siesta:     29   -2.448661   -1.936625    0.000000
siesta:     30    2.301933   -0.248419    0.000000
siesta:     31   -1.044361   -0.613339    0.000000
siesta:     32    2.269448   -1.571878    0.000000
siesta:     33   -0.175582    7.365266    0.000000
siesta:     34   -0.238669   -7.397751    0.000000
siesta:     35  -17.081861  551.835766    0.000000
siesta:     36    1.728694 -126.768002    0.000000
siesta:     37    0.551897  545.419071    0.000000
siesta:     38   -0.210886 -125.467619    0.000000
siesta:     39   23.907970  557.749396    0.000000
siesta:     40   21.006238   -2.327358    0.000000
siesta:     41   -0.576605    1.667492    0.000000
siesta:     42    2.637697   -1.474031    0.000000
siesta:     43    0.188281    0.307480    0.000000
siesta:     44    0.063458   -0.751367    0.000000
siesta:     45  -33.593784  549.219916    0.000000
siesta:     46  -26.512072   -5.372536    0.000000
siesta:     47  -24.357501  557.083293    0.000000
siesta:     48  -21.014806   -2.455093    0.000000
siesta:     49    0.449596    4.230033    0.000000
siesta:     50    2.189515   -1.434008    0.000000
siesta:     51   -2.180424   -0.971922    0.000000
siesta:     52    1.009493    1.470412    0.000000
siesta:     53    0.825618   -3.256224    0.000000
siesta:     54    1.797891    0.132007    0.000000
siesta:     55   -7.190561   -3.590274    0.000000
siesta:     56    0.290111    6.366530    0.000000
siesta:     57    0.499227   -6.453153    0.000000
siesta:     58   -6.669307    3.442051    0.000000
siesta:     59    1.999662    0.443200    0.000000
siesta:     60   -0.228075    0.627283    0.000000
siesta:     61   -0.866499   -2.176308    0.000000
siesta:     62    2.850847    0.710064    0.000000
siesta:     63   -2.533458 -559.650045    0.000000
siesta:     64   22.181968    6.064554    0.000000
siesta:     65   26.443777 -556.455128    0.000000
siesta:     66  -23.240386 -555.315757    0.000000
siesta:     67   -6.944316    2.831843    0.000000
siesta:     68    2.349956    0.759151    0.000000
siesta:     69   -0.875062  125.563044    0.000000
siesta:     70   -0.484729 -543.792931    0.000000
siesta:     71   -0.296614  125.292935    0.000000
siesta:     72    0.032332 -406.128657    0.000000
siesta: ----------------------------------------
siesta:    Tot   -0.201533   -0.018649    0.000000

siesta: Stress tensor (static) (eV/Ang**3):
siesta:    -0.489020    0.001506    0.000000
siesta:     0.001506   -1.754453    0.000000
siesta:     0.000000    0.000000   -0.000284

siesta: Cell volume =       1893.226884 Ang**3

siesta: Pressure (static):
siesta:                Solid            Molecule  Units
siesta:           0.00814579          0.12170417  Ry/Bohr**3
siesta:           0.74791901         11.17446325  eV/Ang**3
siesta:        1198.31131349      17903.65742885  kBar
(Free)E+ p_basis*V_orbitals  =       -9774.563488
(Free)Eharris+ p_basis*V_orbitals  =       -9774.556176

siesta: Electric dipole (a.u.)  =    0.000000    0.000000    0.000000
siesta: Electric dipole (Debye) =    0.000000    0.000000    0.000000

* Maximum dynamic memory allocated : Node    0 =   165 MB
* Maximum dynamic memory allocated : Node    1 =    66 MB
* Maximum dynamic memory allocated : Node    2 =    68 MB
* Maximum dynamic memory allocated : Node    3 =   150 MB
* Maximum dynamic memory allocated : Node    4 =   157 MB
* Maximum dynamic memory allocated : Node    5 =    57 MB
* Maximum dynamic memory allocated : Node    6 =    58 MB
* Maximum dynamic memory allocated : Node    7 =   148 MB
* Maximum dynamic memory allocated : Node    8 =   149 MB
* Maximum dynamic memory allocated : Node    9 =    60 MB
* Maximum dynamic memory allocated : Node   10 =    61 MB
* Maximum dynamic memory allocated : Node   11 =   140 MB

* Maximum memory occured during matrixMtoO                    

timer: CPU execution times:
timer:  Routine       Calls   Time/call    Tot.time        %
timer:  siesta            1  103979.438  103979.438   100.00
timer:  Setup             1       3.487       3.487     0.00
timer:  bands             3     226.027     678.082     0.65
timer:  writewave         1       0.024       0.024     0.00
timer:  KSV_init          1       0.005       0.005     0.00
timer:  IterMD            1  103290.909  103290.909    99.34
timer:  hsparse           1       0.278       0.278     0.00
timer:  overlap           1       6.384       6.384     0.01
timer:  IterSCF          35    2947.082  103147.884    99.20
timer:  kinefsm           2       3.253       6.506     0.01
timer:  nlefsm            2      19.609      39.217     0.04
timer:  DHSCF            36      72.298    2602.724     2.50
timer:  DHSCF1            1       1.192       1.192     0.00
timer:  DHSCF2            1      32.685      32.685     0.03
timer:  REORD           290       0.002       0.609     0.00
timer:  POISON           37       0.451      16.693     0.02
timer:  DHSCF3           36      70.620    2542.332     2.45
timer:  rhoofd           36      15.985     575.469     0.55
timer:  cellXC           36       2.416      86.983     0.08
timer:  vmat             36      33.583    1208.988     1.16
timer:  MolMec            2       0.000       0.000     0.00
timer:  diagon           35    2873.582  100575.379    96.73
timer:  c-eigval       8206       5.585   45831.038    44.08
timer:  c-buildHS      8206       0.035     287.808     0.28
timer:  cdiag         16291       5.686   92632.085    89.09
timer:  cdiag1        16291       0.262    4272.766     4.11
timer:  cdiag2        16291       1.835   29893.796    28.75
timer:  cdiag3        16291       3.374   54958.911    52.86
timer:  cdiag4        16291       0.089    1443.016     1.39
timer:  c-eigvec       8085       5.854   47327.729    45.52
timer:  c-buildD       8085       0.996    8050.470     7.74
timer:  DHSCF4            1      26.268      26.268     0.03
timer:  dfscf             1      24.205      24.205     0.02
timer:  overfsm           1       0.319       0.319     0.00
timer:  optical           1       6.354       6.354     0.01
  

elaps: ELAPSED times:
elaps:  Routine       Calls   Time/call    Tot.time        %
elaps:  siesta            1    8685.289    8685.289   100.00
elaps:  Setup             1       0.291       0.291     0.00
elaps:  bands             3      18.896      56.687     0.65
elaps:  writewave         1       0.002       0.002     0.00
elaps:  KSV_init          1       0.000       0.000     0.00
elaps:  IterMD            1    8627.777    8627.777    99.34
elaps:  hsparse           1       0.027       0.027     0.00
elaps:  overlap           1       0.716       0.716     0.01
elaps:  IterSCF          35     246.167    8615.830    99.20
elaps:  kinefsm           2       0.368       0.736     0.01
elaps:  nlefsm            2       1.712       3.425     0.04
elaps:  DHSCF            36       6.098     219.518     2.53
elaps:  DHSCF1            1       0.102       0.102     0.00
elaps:  DHSCF2            1       2.728       2.728     0.03
elaps:  REORD           290       0.000       0.086     0.00
elaps:  POISON           37       0.038       1.406     0.02
elaps:  DHSCF3           36       5.900     212.384     2.45
elaps:  rhoofd           36       2.811     101.191     1.17
elaps:  cellXC           36       0.201       7.248     0.08
elaps:  vmat             36       2.806     101.016     1.16
elaps:  MolMec            2       0.000       0.000     0.00
elaps:  diagon           35     240.032    8401.117    96.73
elaps:  c-eigval       8206       0.467    3828.153    44.08
elaps:  c-buildHS      8206       0.004      31.644     0.36
elaps:  cdiag         16291       0.471    7665.093    88.25
elaps:  cdiag1        16291       0.021     348.649     4.01
elaps:  cdiag2        16291       0.153    2499.278    28.78
elaps:  cdiag3        16291       0.282    4597.943    52.94
elaps:  cdiag4        16291       0.007     115.749     1.33
elaps:  c-eigvec       8085       0.482    3895.571    44.85
elaps:  c-buildD       8085       0.090     729.862     8.40
elaps:  DHSCF4            1       4.257       4.257     0.05
elaps:  dfscf             1       4.003       4.003     0.05
elaps:  overfsm           1       0.036       0.036     0.00
elaps:  optical           1       0.000       0.000     0.00
  
>> End of run:   4-MAY-2016  15:01:34
