Siesta Version:                                        siesta-3.2-pl-3
Architecture  : x86_64-unknown-linux-gnu--unknown
Compiler flags: mpiifort -g -O2 -fPIC -xSSE4.1 -fp-model source -shared-intel 
PARALLEL version

* Running on    8 nodes in parallel
>> Start of run:  29-APR-2016   4:44:02

                           ***********************       
                           *  WELCOME TO SIESTA  *       
                           ***********************       

reinit: Reading from standard input
************************** Dump of input data file ****************************
#(1) General system descriptors
SystemName            GRP_doping    # Descriptive name of the system
SystemLabel           GRP_doping    # Short name for naming files
%include STRUCT.fdf
%include KPT.fdf
%include BASIS.fdf
#%include TS.fdf # for transiesta calculation
#(4) DFT, Grid, SCF
XC.functional         GGA           # LDA or GGA (default = LDA)
XC.authors            PBE           # CA (Ceperley-Aldr) = PZ
                                    #    (Perdew-Zunger) - LDA - Default
                                    # PW92 (Perdew-Wang-92) - LDA
                                    # PBE (Perdew-Burke-Ernzerhof) - GGA
MeshCutoff            200.000000    Ry      # Default: 50.0 Ry ~ 0.444 Bohr
                                    #         100.0 Ry ~ 0.314 Bohr
MaxSCFIterations      500           # Default: 50
DM.MixingWeight       0.05          # Default: 0.25
DM.NumberPulay        10            # Default: 0
DM.PulayOnFile        F             # SystemLabel.P1, SystemLabel.P2
DM.Tolerance          1.d-4         # Default: 1.d-4
DM.UseSaveDM          .true.        # because of the bug
SCFMustConverge       .true.
NeglNonOverlapInt     F             # Default: F
#(5) Eigenvalue problem: order-N or diagonalization
SolutionMethod        Diagon        # or Transiesta
ElectronicTemperature 300.0 K       # Default: 300.0 K
#(6) Molecular dynamics and relaxations
#MD.TypeOfRun          CG            # Type of dynamics:
#MD.VariableCell       F
#MD.NumCGsteps         0           # 0 for single-point / 100 for gopt
#MD.MaxCGDispl         0.2 Bohr      # Default: 0.2 Bohr
#MD.MaxForceTol        0.02 eV/Ang   # Default: 0.04 eV/Ang
#MD.MaxStressTol       1.0 GPa       # Default: 1.0 GPa
# Geometry Constraints
#%block GeometryConstraints
#	position from 1 to 44
#%endblock GeometryConstraints
BandLinesScale   pi/a
%block BandLines
 1   0.00000000  0.00000000  0.00000000
50   0.00000000  0.07809418  0.00000000
50   0.04509075  0.07809242  0.00000000
20   0.00000000  0.00000000  0.00000000
%endblock BandLines
************************** End of input data file *****************************

reinit: -----------------------------------------------------------------------
reinit: System Name: GRP_doping
reinit: -----------------------------------------------------------------------
reinit: System Label: GRP_doping                                                  
reinit: -----------------------------------------------------------------------

initatom: Reading input for the pseudopotentials and atomic orbitals ----------
 Species number:            1  Label: N Atomic number:           7
 Species number:            2  Label: C Atomic number:           6
Ground state valence configuration:   2s02  2p03
Reading pseudopotential information in formatted form from N.psf

Valence configuration for pseudopotential generation:
2s( 2.00) rc: 1.48
2p( 3.00) rc: 1.48
3d( 0.00) rc: 1.48
4f( 0.00) rc: 1.48
Ground state valence configuration:   2s02  2p02
Reading pseudopotential information in formatted form from C.psf

Valence configuration for pseudopotential generation:
2s( 2.00) rc: 1.54
2p( 2.00) rc: 1.54
3d( 0.00) rc: 1.54
4f( 0.00) rc: 1.54
For N, standard SIESTA heuristics set lmxkb to 3
 (one more than the basis l, including polarization orbitals).
Use PS.lmax or PS.KBprojectors blocks to override.
For C, standard SIESTA heuristics set lmxkb to 3
 (one more than the basis l, including polarization orbitals).
Use PS.lmax or PS.KBprojectors blocks to override.

<basis_specs>
===============================================================================
N                    Z=   7    Mass=  14.010        Charge= 0.17977+309
Lmxo=1 Lmxkb= 3    BasisType=split      Semic=F
L=0  Nsemic=0  Cnfigmx=2
          n=1  nzeta=2  polorb=0
            splnorm:   0.15000    
               vcte:    0.0000    
               rinn:    0.0000    
                rcs:    0.0000      0.0000    
            lambdas:    1.0000      1.0000    
L=1  Nsemic=0  Cnfigmx=2
          n=1  nzeta=2  polorb=1
            splnorm:   0.15000    
               vcte:    0.0000    
               rinn:    0.0000    
                rcs:    0.0000      0.0000    
            lambdas:    1.0000      1.0000    
-------------------------------------------------------------------------------
L=0  Nkbl=1  erefs: 0.17977+309
L=1  Nkbl=1  erefs: 0.17977+309
L=2  Nkbl=1  erefs: 0.17977+309
L=3  Nkbl=1  erefs: 0.17977+309
===============================================================================
</basis_specs>

atom: Called for N                     (Z =   7)

read_vps: Pseudopotential generation method:
read_vps: ATM3      Troullier-Martins                       
Total valence charge:    5.00000

read_vps: Pseudopotential includes a core correction:
read_vps: Pseudo-core for xc-correction

xc_check: Exchange-correlation functional:
xc_check: GGA Perdew, Burke & Ernzerhof 1996
V l=0 = -2*Zval/r beyond r=  1.4606
V l=1 = -2*Zval/r beyond r=  1.4606
V l=2 = -2*Zval/r beyond r=  1.4606
V l=3 = -2*Zval/r beyond r=  1.4606
All V_l potentials equal beyond r=  1.4606
This should be close to max(r_c) in ps generation
All pots = -2*Zval/r beyond r=  1.4606

VLOCAL1: 99.0% of the norm of Vloc inside     20.347 Ry
VLOCAL1: 99.9% of the norm of Vloc inside     46.372 Ry
atom: Maximum radius for 4*pi*r*r*local-pseudopot. charge    1.76189
atom: Maximum radius for r*vlocal+2*Zval:    1.53550
GHOST: No ghost state for L =  0
GHOST: No ghost state for L =  1
GHOST: No ghost state for L =  2
GHOST: No ghost state for L =  3

KBgen: Kleinman-Bylander projectors: 
   l= 0   rc=  1.634559   el= -1.363963   Ekb=  5.296955   kbcos=  0.335621
   l= 1   rc=  1.614250   el= -0.521451   Ekb= -5.259161   kbcos= -0.433408
   l= 2   rc=  1.718383   el=  0.001991   Ekb= -1.271464   kbcos= -0.007566
   l= 3   rc=  1.761893   el=  0.003093   Ekb= -0.494769   kbcos= -0.001015

KBgen: Total number of  Kleinman-Bylander projectors:   16
atom: -------------------------------------------------------------------------

atom: SANKEY-TYPE ORBITALS:
atom: Selected multiple-zeta basis: split     

SPLIT: Orbitals with angular momentum L= 0

SPLIT: Basis orbitals for state 2s

SPLIT: PAO cut-off radius determined from an
SPLIT: energy shift=  0.007350 Ry

   izeta = 1
                 lambda =    1.000000
                     rc =    4.071465
                 energy =   -1.356470
                kinetic =    1.176977
    potential(screened) =   -2.533447
       potential(ionic) =   -8.057990

   izeta = 2
                 rmatch =    2.905100
              splitnorm =    0.150000
                 energy =   -1.158343
                kinetic =    1.813009
    potential(screened) =   -2.971352
       potential(ionic) =   -8.901931

SPLIT: Orbitals with angular momentum L= 1

SPLIT: Basis orbitals for state 2p

SPLIT: PAO cut-off radius determined from an
SPLIT: energy shift=  0.007350 Ry

   izeta = 1
                 lambda =    1.000000
                     rc =    4.972977
                 energy =   -0.513884
                kinetic =    3.441732
    potential(screened) =   -3.955616
       potential(ionic) =   -9.287901

   izeta = 2
                 rmatch =    3.054066
              splitnorm =    0.150000
                 energy =   -0.318226
                kinetic =    5.125348
    potential(screened) =   -5.443573
       potential(ionic) =  -11.380999

POLgen: Perturbative polarization orbital with L=  2

POLgen: Polarization orbital for state 2p

   izeta = 1
                     rc =    4.972977
                 energy =    1.607437
                kinetic =    3.268125
    potential(screened) =   -1.660688
       potential(ionic) =   -5.973652
atom: Total number of Sankey-type orbitals: 13

atm_pop: Valence configuration (for local Pseudopot. screening):
 2s( 2.00)                                                            
 2p( 3.00)                                                            
Vna: chval, zval:    5.00000   5.00000

Vna:  Cut-off radius for the neutral-atom potential:   4.972977
comcore: Pseudo-core radius Rcore=  1.554824

atom: _________________________________________________________________________

<basis_specs>
===============================================================================
C                    Z=   6    Mass=  12.010        Charge= 0.17977+309
Lmxo=1 Lmxkb= 3    BasisType=split      Semic=F
L=0  Nsemic=0  Cnfigmx=2
          n=1  nzeta=2  polorb=0
            splnorm:   0.15000    
               vcte:    0.0000    
               rinn:    0.0000    
                rcs:    0.0000      0.0000    
            lambdas:    1.0000      1.0000    
L=1  Nsemic=0  Cnfigmx=2
          n=1  nzeta=2  polorb=1
            splnorm:   0.15000    
               vcte:    0.0000    
               rinn:    0.0000    
                rcs:    0.0000      0.0000    
            lambdas:    1.0000      1.0000    
-------------------------------------------------------------------------------
L=0  Nkbl=1  erefs: 0.17977+309
L=1  Nkbl=1  erefs: 0.17977+309
L=2  Nkbl=1  erefs: 0.17977+309
L=3  Nkbl=1  erefs: 0.17977+309
===============================================================================
</basis_specs>

atom: Called for C                     (Z =   6)

read_vps: Pseudopotential generation method:
read_vps: ATM3      Troullier-Martins                       
Total valence charge:    4.00000

read_vps: Pseudopotential includes a core correction:
read_vps: Pseudo-core for xc-correction

xc_check: Exchange-correlation functional:
xc_check: GGA Perdew, Burke & Ernzerhof 1996
V l=0 = -2*Zval/r beyond r=  1.5227
V l=1 = -2*Zval/r beyond r=  1.5227
V l=2 = -2*Zval/r beyond r=  1.5227
V l=3 = -2*Zval/r beyond r=  1.5038
All V_l potentials equal beyond r=  1.5227
This should be close to max(r_c) in ps generation
All pots = -2*Zval/r beyond r=  1.5227

VLOCAL1: 99.0% of the norm of Vloc inside     18.722 Ry
VLOCAL1: 99.9% of the norm of Vloc inside     42.668 Ry
atom: Maximum radius for 4*pi*r*r*local-pseudopot. charge    1.83678
atom: Maximum radius for r*vlocal+2*Zval:    1.58088
GHOST: No ghost state for L =  0
GHOST: No ghost state for L =  1
GHOST: No ghost state for L =  2
GHOST: No ghost state for L =  3

KBgen: Kleinman-Bylander projectors: 
   l= 0   rc=  1.704034   el= -1.009801   Ekb=  5.335044   kbcos=  0.316824
   l= 1   rc=  1.704034   el= -0.388707   Ekb= -3.785862   kbcos= -0.366464
   l= 2   rc=  1.791422   el=  0.001971   Ekb= -0.970471   kbcos= -0.009212
   l= 3   rc=  1.859892   el=  0.003065   Ekb= -0.399525   kbcos= -0.001223

KBgen: Total number of  Kleinman-Bylander projectors:   16
atom: -------------------------------------------------------------------------

atom: SANKEY-TYPE ORBITALS:
atom: Selected multiple-zeta basis: split     

SPLIT: Orbitals with angular momentum L= 0

SPLIT: Basis orbitals for state 2s

SPLIT: PAO cut-off radius determined from an
SPLIT: energy shift=  0.007350 Ry

   izeta = 1
                 lambda =    1.000000
                     rc =    4.632753
                 energy =   -1.002270
                kinetic =    0.855760
    potential(screened) =   -1.858031
       potential(ionic) =   -5.417575

   izeta = 2
                 rmatch =    3.431921
              splitnorm =    0.150000
                 energy =   -0.867111
                kinetic =    1.300804
    potential(screened) =   -2.167915
       potential(ionic) =   -5.962684

SPLIT: Orbitals with angular momentum L= 1

SPLIT: Basis orbitals for state 2p

SPLIT: PAO cut-off radius determined from an
SPLIT: energy shift=  0.007350 Ry

   izeta = 1
                 lambda =    1.000000
                     rc =    5.658549
                 energy =   -0.381140
                kinetic =    2.399701
    potential(screened) =   -2.780841
       potential(ionic) =   -6.206085

   izeta = 2
                 rmatch =    3.653288
              splitnorm =    0.150000
                 energy =   -0.249149
                kinetic =    3.542762
    potential(screened) =   -3.791911
       potential(ionic) =   -7.581078

POLgen: Perturbative polarization orbital with L=  2

POLgen: Polarization orbital for state 2p

   izeta = 1
                     rc =    5.658549
                 energy =    1.109913
                kinetic =    2.304789
    potential(screened) =   -1.194876
       potential(ionic) =   -4.013592
atom: Total number of Sankey-type orbitals: 13

atm_pop: Valence configuration (for local Pseudopot. screening):
 2s( 2.00)                                                            
 2p( 2.00)                                                            
Vna: chval, zval:    4.00000   4.00000

Vna:  Cut-off radius for the neutral-atom potential:   5.658549
comcore: Pseudo-core radius Rcore=  1.791422

atom: _________________________________________________________________________

prinput: Basis input ----------------------------------------------------------

PAO.BasisType split     

%block ChemicalSpeciesLabel
    1    7 N                       # Species index, atomic number, species label
    2    6 C                       # Species index, atomic number, species label
%endblock ChemicalSpeciesLabel

%block PAO.Basis                 # Define Basis set
N                     2                    # Species label, number of l-shells
 n=2   0   2                         # n, l, Nzeta 
   4.071      2.905   
   1.000      1.000   
 n=2   1   2 P   1                   # n, l, Nzeta, Polarization, NzetaPol
   4.973      3.054   
   1.000      1.000   
C                     2                    # Species label, number of l-shells
 n=2   0   2                         # n, l, Nzeta 
   4.633      3.432   
   1.000      1.000   
 n=2   1   2 P   1                   # n, l, Nzeta, Polarization, NzetaPol
   5.659      3.653   
   1.000      1.000   
%endblock PAO.Basis

prinput: ----------------------------------------------------------------------

coor:   Atomic-coordinates input format  =     Fractional

siesta: Atomic coordinates (Bohr) and species
siesta:      4.63094  21.41544   0.00000  1        1
siesta:      6.95932  22.75985   0.00000  1        2
siesta:      6.95932  25.44831   0.00000  1        3
siesta:     -0.02582  21.41544   0.00000  1        4
siesta:      2.30256  22.75985   0.00000  1        5
siesta:      2.30256  25.44831   0.00000  1        6
siesta:     -4.68258  21.41544   0.00000  1        7
siesta:     -2.35420  22.75985   0.00000  1        8
siesta:     -2.35420  25.44831   0.00000  1        9
siesta:     -9.33934  21.41544   0.00000  1       10
siesta:     -7.01096  22.75985   0.00000  1       11
siesta:     -7.01096  25.44831   0.00000  1       12
siesta:    -11.66772  22.75985   0.00000  1       13
siesta:    -11.66772  25.44831   0.00000  1       14
siesta:     -9.33934  26.79272   0.00000  1       15
siesta:      4.63094  26.79272   0.00000  1       16
siesta:     -0.02582  26.79272   0.00000  1       17
siesta:     -0.02582  29.48119   0.00000  1       18
siesta:     -4.68258  26.79272   0.00000  1       19
siesta:     -4.68258  29.48119   0.00000  1       20
siesta:     -2.35420  30.82560   0.00000  1       21
siesta:     -0.02582   2.59549   0.00000  2       22
siesta:     -0.02582   5.28395   0.00000  2       23
siesta:     -2.35420  38.89134   0.00000  2       24
siesta:     -2.35420  41.57980   0.00000  2       25
siesta:      2.30256  38.89134   0.00000  2       26
siesta:      2.30256  41.57980   0.00000  2       27
siesta:      4.63094  34.85847   0.00000  2       28
siesta:      4.63094  37.54693   0.00000  2       29
siesta:      6.95932  30.82560   0.00000  2       30
siesta:      6.95932  33.51406   0.00000  2       31
siesta:      9.28770  26.79272   0.00000  2       32
siesta:      9.28770  29.48119   0.00000  2       33
siesta:     -4.68258  34.85847   0.00000  2       34
siesta:     -4.68258  37.54693   0.00000  2       35
siesta:      2.30256   6.62836   0.00000  2       36
siesta:      2.30256   9.31683   0.00000  2       37
siesta:      4.63094  10.66124   0.00000  2       38
siesta:      4.63094  13.34970   0.00000  2       39
siesta:      6.95932  14.69411   0.00000  2       40
siesta:      6.95932  17.38257   0.00000  2       41
siesta:      9.28770  18.72698   0.00000  2       42
siesta:      9.28770  21.41544   0.00000  2       43
siesta:     11.61608  22.75985   0.00000  2       44
siesta:     11.61608  25.44831   0.00000  2       45
siesta:     -2.35420   6.62836   0.00000  2       46
siesta:     -2.35420   9.31683   0.00000  2       47
siesta:     -0.02582  10.66124   0.00000  2       48
siesta:     -0.02582  13.34970   0.00000  2       49
siesta:      2.30256  14.69411   0.00000  2       50
siesta:      2.30256  17.38257   0.00000  2       51
siesta:      4.63094  18.72698   0.00000  2       52
siesta:     -4.68258  10.66124   0.00000  2       53
siesta:     -4.68258  13.34970   0.00000  2       54
siesta:     -2.35420  14.69411   0.00000  2       55
siesta:     -2.35420  17.38257   0.00000  2       56
siesta:     -0.02582  18.72698   0.00000  2       57
siesta:     -7.01096  14.69411   0.00000  2       58
siesta:     -7.01096  17.38257   0.00000  2       59
siesta:     -4.68258  18.72698   0.00000  2       60
siesta:     -9.33934  18.72698   0.00000  2       61
siesta:     -9.33934  29.48119   0.00000  2       62
siesta:      4.63094  29.48119   0.00000  2       63
siesta:      2.30256  30.82560   0.00000  2       64
siesta:      2.30256  33.51406   0.00000  2       65
siesta:     -2.35420  33.51406   0.00000  2       66
siesta:     -7.01096  30.82560   0.00000  2       67
siesta:     -7.01096  33.51406   0.00000  2       68
siesta:     -0.02582  34.85847   0.00000  2       69
siesta:     -0.02582  37.54693   0.00000  2       70
siesta:     -0.02582  42.92421   0.00000  2       71
siesta:     -0.02582  45.61267   0.00000  2       72

siesta: System type = slab      

initatomlists: Number of atoms, orbitals, and projectors:     72   936  1152

siesta: ******************** Simulation parameters ****************************
siesta:
siesta: The following are some of the parameters of the simulation.
siesta: A complete list of the parameters used, including default values,
siesta: can be found in file out.fdf
siesta:
redata: Non-Collinear-spin run           =     F
redata: SpinPolarized (Up/Down) run      =     F
redata: Number of spin components        =     1
redata: Long output                      =     F
redata: Number of Atomic Species         =        2
redata: Charge density info will appear in .RHO file
redata: Write Mulliken Pop.              =     NO
redata: Mesh Cutoff                      =   200.0000  Ry
redata: Net charge of the system         =     0.0000 |e|
redata: Max. number of SCF Iter          =      500
redata: SCF convergence failure will abort job
redata: Performing Pulay mixing using    =    10 iterations
redata: Mix DM in first SCF step ?       =     F
redata: Write Pulay info on disk?        =     F
redata: Discard 1st Pulay DM after  kick =     F
redata: New DM Mixing Weight             =     0.0500
redata: New DM Occupancy tolerance       = 0.000000000001
redata: No kicks to SCF
redata: DM Mixing Weight for Kicks       =     0.5000
redata: DM Tolerance for SCF             =     0.000100
redata: Require Energy convergence for SCF =     F
redata: DM Energy tolerance for SCF      =     0.000100 eV
redata: Require Harris convergence for SCF =     F
redata: DM Harris energy tolerance for SCF =     0.000100 eV
redata: Using Saved Data (generic)   =     F
redata: Use continuation files for DM    =     T
redata: Neglect nonoverlap interactions  =     F
redata: Method of Calculation            =     Diagonalization
redata: Divide and Conquer               =     T
redata: Electronic Temperature           =     0.0019  Ry
redata: Fix the spin of the system       =     F
redata: Dynamics option                  =     Verlet MD run
redata: Initial MD time step             =        1
redata:   Final MD time step             =        1
redata: Length of MD time step           =     1.0000  fs
redata: Initial Temperature of MD run    =     0.0000  K
redata: Perform a MD quench              =     F
redata: ***********************************************************************
Total number of electrons:   309.000000
Total ionic charge:   309.000000

* ProcessorY, Blocksize:    2  24

k-point displ. along   1 input, could be:     0.50    0.00
k-point displ. along   2 input, could be:     0.50    0.00
 Kpoints in:          231 . Kpoints trimmed:          231

siesta: k-grid: Number of k-points =   231
siesta: k-grid: Cutoff (effective) =     5.000 Ang
siesta: k-grid: Supercell and displacements
siesta: k-grid:   21   0   0      0.500
siesta: k-grid:    0  21   0      0.500
siesta: k-grid:    0   0   1      0.000
Naive supercell factors:     2    2    2

superc: Internal auxiliary supercell:     2 x     2 x     2  =       8
superc: Number of atoms, orbitals, and projectors:    576   7488   9216

* Maximum dynamic memory allocated =     4 MB

siesta:                 ==============================
                            Begin MD step =      1
                        ==============================

superc: Internal auxiliary supercell:     2 x     2 x     2  =       8
superc: Number of atoms, orbitals, and projectors:    576   7488   9216

outcell: Unit cell vectors (Ang):
       12.804619    7.392750    0.000000
        0.000000   14.785500    0.000000
        0.000000    0.000000   10.000000

outcell: Cell vector modules (Ang)   :   14.785500   14.785500   10.000000
outcell: Cell angles (23,13,12) (deg):     90.0000     90.0000     60.0000
outcell: Cell volume (Ang**3)        :   1893.2269
New_DM. Step:     1
Initializing Density Matrix...

InitMesh: MESH =   120 x   120 x    90 =     1296000
InitMesh: Mesh cutoff (required, used) =   200.000   223.865 Ry

* Maximum dynamic memory allocated =   184 MB

stepf: Fermi-Dirac step function

siesta: Program's energy decomposition (eV):
siesta: Ebs     =     -6198.322379
siesta: Eions   =     21778.694799
siesta: Ena     =      4926.700125
siesta: Ekin    =      8140.553599
siesta: Enl     =        46.200239
siesta: DEna    =        -0.000015
siesta: DUscf   =         0.000000
siesta: DUext   =         0.000000
siesta: Exc     =     -4685.407636
siesta: eta*DQ  =         0.000000
siesta: Emadel  =         0.000000
siesta: Emeta   =         0.000000
siesta: Emolmec =         0.000000
siesta: Ekinion =         0.000000
siesta: Eharris =    -13012.524088
siesta: Etot    =    -13350.648486
siesta: FreeEng =    -13350.648486

siesta: iscf   Eharris(eV)      E_KS(eV)   FreeEng(eV)   dDmax  Ef(eV)
siesta:    1   -13012.5241   -13350.6485   -13350.6485  6.3358 -6.7630
timer: Routine,Calls,Time,% = IterSCF        1    4239.071  99.73
elaps: Routine,Calls,Wall,% = IterSCF        1     530.494  99.73
siesta:    2   -21534.3251   -11933.8872   -11933.9239 18.8587-10.4290
siesta:    3   -12948.7730   -13189.9594   -13189.9965  3.3151 -5.6860
siesta:    4   -12924.0631   -13026.0996   -13026.1640  1.3635 -4.5759
siesta:    5   -12844.5951   -12972.9981   -12973.0616  1.1657 -4.0383
siesta:    6   -12833.9608   -12883.9593   -12884.0052  0.9995 -3.5219
siesta:    7   -12829.3732   -12865.6350   -12865.7042  0.6676 -3.5578
siesta:    8   -12825.8720   -12839.8836   -12839.9687  0.8131 -3.7906
siesta:    9   -12825.2457   -12830.1276   -12830.1784  0.5282 -3.7324
siesta:   10   -12825.6767   -12817.8125   -12817.8775  0.4916 -3.8343
siesta:   11   -12824.3640   -12803.3357   -12803.3956  0.4469 -3.7407
siesta:   12   -12825.2976   -12789.6653   -12789.7222  0.2362 -3.7217
siesta:   13   -12824.7772   -12786.6230   -12786.7009  0.2746 -3.7259
siesta:   14   -12823.4357   -12791.0951   -12791.1590  0.1408 -3.7051
siesta:   15   -12823.0043   -12790.5043   -12790.5760  0.1357 -3.6908
siesta:   16   -12822.5291   -12793.5975   -12793.6622  0.1267 -3.6912
siesta:   17   -12822.4048   -12798.6702   -12798.7384  0.1045 -3.6698
siesta:   18   -12822.3328   -12805.0704   -12805.1343  0.0993 -3.6820
siesta:   19   -12822.3183   -12813.1358   -12813.2007  0.0722 -3.7070
siesta:   20   -12822.2994   -12816.6245   -12816.6959  0.0440 -3.7205
siesta:   21   -12822.2864   -12818.1638   -12818.2384  0.0416 -3.7226
siesta:   22   -12822.2822   -12820.4557   -12820.5302  0.0305 -3.7156
siesta:   23   -12822.2787   -12821.8048   -12821.8779  0.0266 -3.7126
siesta:   24   -12822.2747   -12822.2904   -12822.3641  0.0087 -3.7063
siesta:   25   -12822.2726   -12822.0564   -12822.1307  0.0081 -3.7057
siesta:   26   -12822.2732   -12822.5863   -12822.6610  0.0068 -3.7003
siesta:   27   -12822.2719   -12822.8470   -12822.9208  0.0039 -3.7005
siesta:   28   -12822.2722   -12822.6770   -12822.7516  0.0051 -3.7000
siesta:   29   -12822.2714   -12822.5894   -12822.6635  0.0029 -3.7019
siesta:   30   -12822.2718   -12822.4458   -12822.5207  0.0033 -3.7015
siesta:   31   -12822.2716   -12822.4370   -12822.5115  0.0031 -3.7023
siesta:   32   -12822.2714   -12822.4363   -12822.5109  0.0011 -3.7029
siesta:   33   -12822.2714   -12822.3940   -12822.4687  0.0009 -3.7031
siesta:   34   -12822.2714   -12822.2972   -12822.3720  0.0005 -3.7030
siesta:   35   -12822.2714   -12822.2710   -12822.3458  0.0004 -3.7031
siesta:   36   -12822.2714   -12822.2707   -12822.3455  0.0003 -3.7032
siesta:   37   -12822.2714   -12822.2701   -12822.3449  0.0003 -3.7032
siesta:   38   -12822.2714   -12822.2628   -12822.3376  0.0001 -3.7032
siesta:   39   -12822.2714   -12822.2727   -12822.3475  0.0001 -3.7032
siesta:   40   -12822.2714   -12822.2695   -12822.3443  0.0001 -3.7031
siesta:   41   -12822.2714   -12822.2714   -12822.3462  0.0001 -3.7031

siesta: E_KS(eV) =           -12822.2680

siesta: E_KS - E_eggbox =    -12822.2680

siesta: Atomic forces (eV/Ang):
----------------------------------------
   Tot   -0.165900   -0.206180    0.000000
----------------------------------------
   Max  685.604998
   Res  165.363558    sqrt( Sum f_i^2 / 3N )
----------------------------------------
   Max  685.604998    constrained

Stress-tensor-Voigt (kbar):     -736.96    -2883.27       -0.02        7.24        0.00        0.00
(Free)E + p*V (eV/cell)   -11396.3903
Target enthalpy (eV/cell)   -12822.3428

siesta: Stress tensor (static) (eV/Ang**3):
        -0.459972    0.004521    0.000000
         0.004521   -1.799576    0.000000
         0.000000    0.000000   -0.000011

siesta: Pressure (static):       1206.75050637  kBar

siesta: Stress tensor (total) (eV/Ang**3):
        -0.459972    0.004521    0.000000
         0.004521   -1.799576    0.000000
         0.000000    0.000000   -0.000011

siesta: Pressure (total):       1206.75050637  kBar

siesta: Temp_ion =       0.000 K

* Maximum dynamic memory allocated =   201 MB
Computing bands...

siesta: Program's energy decomposition (eV):
siesta: Ebs     =     -5051.898433
siesta: Eions   =     21778.694799
siesta: Ena     =      4926.700125
siesta: Ekin    =     11071.297805
siesta: Enl     =     -1566.454396
siesta: DEna    =      -734.675004
siesta: DUscf   =       104.987933
siesta: DUext   =         0.000000
siesta: Exc     =     -4845.429630
siesta: eta*DQ  =         0.000000
siesta: Emadel  =         0.000000
siesta: Emeta   =         0.000000
siesta: Emolmec =         0.000000
siesta: Ekinion =         0.000000
siesta: Eharris =    -12822.271383
siesta: Etot    =    -12822.267966
siesta: FreeEng =    -12822.342774

siesta: Final energy (eV):
siesta:  Band Struct. =   -5051.898433
siesta:       Kinetic =   11071.297805
siesta:       Hartree =   35125.729470
siesta:    Ext. field =       0.000000
siesta:   Exch.-corr. =   -4845.429630
siesta:  Ion-electron =  -80867.106941
siesta:       Ion-ion =   26693.241330
siesta:       Ekinion =       0.000000
siesta:         Total =  -12822.267966

siesta: Atomic forces (eV/Ang):
siesta:      1    0.500388   -1.193648    0.000000
siesta:      2    0.062435    0.607015    0.000000
siesta:      3    0.036937   -0.429004    0.000000
siesta:      4    0.201463   -4.280721    0.000000
siesta:      5    1.875620   -1.347096    0.000000
siesta:      6    2.558690    0.732476    0.000000
siesta:      7   -0.154998   -1.214085    0.000000
siesta:      8   -2.339757   -0.941770    0.000000
siesta:      9   -3.661382    0.482947    0.000000
siesta:     10   -1.304117   -3.494647    0.000000
siesta:     11    0.749118    1.752356    0.000000
siesta:     12    1.334898   -1.738691    0.000000
siesta:     13    1.291970    3.251784    0.000000
siesta:     14    1.672779   -3.235230    0.000000
siesta:     15   -1.804801    3.154729    0.000000
siesta:     16    0.534669    0.608870    0.000000
siesta:     17    0.973323    6.685732    0.000000
siesta:     18   16.957644 -685.604998    0.000000
siesta:     19   -0.571263   -0.381277    0.000000
siesta:     20   -1.042972   -2.372729    0.000000
siesta:     21  -35.383900   16.814232    0.000000
siesta:     22   -8.841198  643.044303    0.000000
siesta:     23   -1.276031 -121.100933    0.000000
siesta:     24    0.848525  127.784850    0.000000
siesta:     25  -17.124438 -549.840053    0.000000
siesta:     26   -0.662949  128.131972    0.000000
siesta:     27   16.996599 -549.204866    0.000000
siesta:     28   26.306204    6.023568    0.000000
siesta:     29   32.717134 -550.079234    0.000000
siesta:     30    1.793835   -0.071719    0.000000
siesta:     31   -3.028071    1.643966    0.000000
siesta:     32    1.500708    1.459242    0.000000
siesta:     33   -0.885560   -0.357550    0.000000
siesta:     34  -26.215116    6.908126    0.000000
siesta:     35  -33.159612 -550.065197    0.000000
siesta:     36   15.672919  548.112292    0.000000
siesta:     37   -0.119999 -127.920882    0.000000
siesta:     38   34.190340  550.424342    0.000000
siesta:     39   26.167654   -6.774593    0.000000
siesta:     40   -3.048555   -1.423568    0.000000
siesta:     41    1.704046    0.173027    0.000000
siesta:     42   -0.719465    0.426008    0.000000
siesta:     43    1.485803   -1.506970    0.000000
siesta:     44   -0.831842    3.940199    0.000000
siesta:     45   -0.826311   -4.070408    0.000000
siesta:     46  -20.812569  552.644607    0.000000
siesta:     47    0.270670 -127.670273    0.000000
siesta:     48    1.296154  544.985633    0.000000
siesta:     49   -0.024498 -128.556209    0.000000
siesta:     50   19.125756  558.002073    0.000000
siesta:     51   23.318433   -4.879025    0.000000
siesta:     52   -1.912997    2.706019    0.000000
siesta:     53  -34.558961  550.406325    0.000000
siesta:     54  -26.342897   -7.063797    0.000000
siesta:     55  -18.542534  558.172302    0.000000
siesta:     56  -23.480763   -5.225632    0.000000
siesta:     57    0.609815  565.756065    0.000000
siesta:     58    2.599697   -0.966734    0.000000
siesta:     59   -0.943874    0.589216    0.000000
siesta:     60    1.800215    2.560771    0.000000
siesta:     61   -0.990251    2.695616    0.000000
siesta:     62   -0.267799   -2.407489    0.000000
siesta:     63   -1.765142   -2.936357    0.000000
siesta:     64   25.919554    9.919598    0.000000
siesta:     65   22.819955 -557.537389    0.000000
siesta:     66  -11.735841 -559.954784    0.000000
siesta:     67   -1.653484    0.140982    0.000000
siesta:     68    2.669072    0.104268    0.000000
siesta:     69   -1.032890  127.436793    0.000000
siesta:     70   -0.977909 -545.928813    0.000000
siesta:     71   -0.207863  127.627685    0.000000
siesta:     72   -0.476312 -544.339798    0.000000
siesta: ----------------------------------------
siesta:    Tot   -0.165900   -0.206180    0.000000

siesta: Stress tensor (static) (eV/Ang**3):
siesta:    -0.459972    0.004521    0.000000
siesta:     0.004521   -1.799576    0.000000
siesta:     0.000000    0.000000   -0.000011

siesta: Cell volume =       1893.226884 Ang**3

siesta: Pressure (static):
siesta:                Solid            Molecule  Units
siesta:           0.00820316          0.12875885  Ry/Bohr**3
siesta:           0.75318628         11.82219929  eV/Ang**3
siesta:        1206.75050637      18941.45620455  kBar
(Free)E+ p_basis*V_orbitals  =      -12794.607391
(Free)Eharris+ p_basis*V_orbitals  =      -12794.607413

siesta: Electric dipole (a.u.)  =    0.000000    0.000000    0.000000
siesta: Electric dipole (Debye) =    0.000000    0.000000    0.000000

* Maximum dynamic memory allocated : Node    0 =   201 MB
* Maximum dynamic memory allocated : Node    1 =    71 MB
* Maximum dynamic memory allocated : Node    2 =    74 MB
* Maximum dynamic memory allocated : Node    3 =   193 MB
* Maximum dynamic memory allocated : Node    4 =   184 MB
* Maximum dynamic memory allocated : Node    5 =    70 MB
* Maximum dynamic memory allocated : Node    6 =    71 MB
* Maximum dynamic memory allocated : Node    7 =   167 MB

* Maximum memory occured during matrixMtoO                    

timer: CPU execution times:
timer:  Routine       Calls   Time/call    Tot.time        %
timer:  siesta            1  170139.701  170139.701   100.00
timer:  Setup             1       3.038       3.038     0.00
timer:  bands             3     274.636     823.907     0.48
timer:  writewave         1       0.017       0.017     0.00
timer:  KSV_init          1       0.004       0.004     0.00
timer:  IterMD            1  169306.786  169306.786    99.51
timer:  hsparse           1       0.234       0.234     0.00
timer:  overlap           1       7.699       7.699     0.00
timer:  IterSCF          41    4125.330  169138.520    99.41
timer:  kinefsm           2       3.956       7.911     0.00
timer:  nlefsm            2      18.421      36.842     0.02
timer:  DHSCF            42      88.667    3724.028     2.19
timer:  DHSCF1            1       0.775       0.775     0.00
timer:  DHSCF2            1      33.804      33.804     0.02
timer:  REORD           338       0.011       3.710     0.00
timer:  POISON           43       2.611     112.288     0.07
timer:  DHSCF3           42      87.083    3657.486     2.15
timer:  rhoofd           42      16.850     707.698     0.42
timer:  cellXC           42       3.508     147.341     0.09
timer:  vmat             42      41.222    1731.343     1.02
timer:  MolMec            2       0.000       0.000     0.00
timer:  diagon           41    4035.364  165449.912    97.24
timer:  c-eigval       9592       6.799   65215.613    38.33
timer:  c-buildHS      9592       0.123    1178.284     0.69
timer:  cdiag         19063       7.013  133679.371    78.57
timer:  cdiag1        19063       0.442    8429.801     4.95
timer:  cdiag2        19063       1.932   36835.281    21.65
timer:  cdiag3        19063       4.013   76507.678    44.97
timer:  cdiag4        19063       0.215    4105.741     2.41
timer:  c-eigvec       9471       7.408   70162.477    41.24
timer:  c-buildD       9471       3.257   30843.072    18.13
timer:  DHSCF4            1      29.605      29.605     0.02
timer:  dfscf             1      27.801      27.801     0.02
timer:  overfsm           1       0.395       0.395     0.00
timer:  optical           1       5.211       5.211     0.00
  

elaps: ELAPSED times:
elaps:  Routine       Calls   Time/call    Tot.time        %
elaps:  siesta            1   21290.114   21290.114   100.00
elaps:  Setup             1       0.380       0.380     0.00
elaps:  bands             3      34.381     103.143     0.48
elaps:  writewave         1       0.002       0.002     0.00
elaps:  KSV_init          1       0.000       0.000     0.00
elaps:  IterMD            1   21185.900   21185.900    99.51
elaps:  hsparse           1       0.028       0.028     0.00
elaps:  overlap           1       0.966       0.966     0.00
elaps:  IterSCF          41     516.216   21164.851    99.41
elaps:  kinefsm           2       0.493       0.986     0.00
elaps:  nlefsm            2       2.221       4.442     0.02
elaps:  DHSCF            42      11.190     469.998     2.21
elaps:  DHSCF1            1       0.099       0.099     0.00
elaps:  DHSCF2            1       4.228       4.228     0.02
elaps:  REORD           338       0.001       0.482     0.00
elaps:  POISON           43       0.328      14.123     0.07
elaps:  DHSCF3           42      10.893     457.498     2.15
elaps:  rhoofd           42       4.915     206.418     0.97
elaps:  cellXC           42       0.438      18.397     0.09
elaps:  vmat             42       5.155     216.499     1.02
elaps:  MolMec            2       0.000       0.000     0.00
elaps:  diagon           41     504.954   20703.125    97.24
elaps:  c-eigval       9592       0.851    8159.764    38.33
elaps:  c-buildHS      9592       0.017     158.857     0.75
elaps:  cdiag         19063       0.881   16791.965    78.87
elaps:  cdiag1        19063       0.055    1051.519     4.94
elaps:  cdiag2        19063       0.242    4608.760    21.65
elaps:  cdiag3        19063       0.503    9586.246    45.03
elaps:  cdiag4        19063       0.027     523.220     2.46
elaps:  c-eigvec       9471       0.937    8878.158    41.70
elaps:  c-buildD       9471       0.397    3760.932    17.67
elaps:  DHSCF4            1       7.842       7.842     0.04
elaps:  dfscf             1       7.442       7.442     0.03
elaps:  overfsm           1       0.046       0.046     0.00
elaps:  optical           1       0.000       0.000     0.00
  
>> End of run:  29-APR-2016  10:38:52
