Siesta Version:                                        siesta-3.2-pl-3
Architecture  : x86_64-unknown-linux-gnu--unknown
Compiler flags: mpiifort -g -O2 -fPIC -xSSE4.1 -fp-model source -shared-intel 
PARALLEL version

* Running on   12 nodes in parallel
>> Start of run:   6-APR-2016  14:24:06

                           ***********************       
                           *  WELCOME TO SIESTA  *       
                           ***********************       

reinit: Reading from standard input
************************** Dump of input data file ****************************
#(1) General system descriptors
SystemName            GRP_doping    # Descriptive name of the system
SystemLabel           GRP_doping    # Short name for naming files
%include STRUCT.fdf
%include KPT.fdf
%include BASIS.fdf
#%include TS.fdf # for transiesta calculation
#(4) DFT, Grid, SCF
XC.functional         GGA           # LDA or GGA (default = LDA)
XC.authors            PBE           # CA (Ceperley-Aldr) = PZ
                                    #    (Perdew-Zunger) - LDA - Default
                                    # PW92 (Perdew-Wang-92) - LDA
                                    # PBE (Perdew-Burke-Ernzerhof) - GGA
MeshCutoff            200.000000    Ry      # Default: 50.0 Ry ~ 0.444 Bohr
                                    #         100.0 Ry ~ 0.314 Bohr
MaxSCFIterations      500           # Default: 50
DM.MixingWeight       0.05          # Default: 0.25
DM.NumberPulay        10            # Default: 0
DM.PulayOnFile        F             # SystemLabel.P1, SystemLabel.P2
DM.Tolerance          1.d-4         # Default: 1.d-4
DM.UseSaveDM          .true.        # because of the bug
SCFMustConverge       .true.
NeglNonOverlapInt     F             # Default: F
Diag.ParallelOverK    .true.
#(5) Eigenvalue problem: order-N or diagonalization
SolutionMethod        Diagon        # or Transiesta
ElectronicTemperature 300.0 K       # Default: 300.0 K
#(6) Molecular dynamics and relaxations
#MD.TypeOfRun          CG            # Type of dynamics:
#MD.VariableCell       F
#MD.NumCGsteps         0           # 0 for single-point / 100 for gopt
#MD.MaxCGDispl         0.2 Bohr      # Default: 0.2 Bohr
#MD.MaxForceTol        0.02 eV/Ang   # Default: 0.04 eV/Ang
#MD.MaxStressTol       1.0 GPa       # Default: 1.0 GPa
************************** End of input data file *****************************

reinit: -----------------------------------------------------------------------
reinit: System Name: GRP_doping
reinit: -----------------------------------------------------------------------
reinit: System Label: GRP_doping                                                  
reinit: -----------------------------------------------------------------------

initatom: Reading input for the pseudopotentials and atomic orbitals ----------
 Species number:            1  Label: B Atomic number:           5
 Species number:            2  Label: C Atomic number:           6
Ground state valence configuration:   2s02  2p01
Reading pseudopotential information in formatted form from B.psf

Valence configuration for pseudopotential generation:
2s( 2.00) rc: 1.74
2p( 1.00) rc: 1.74
3d( 0.00) rc: 1.74
4f( 0.00) rc: 1.74
Ground state valence configuration:   2s02  2p02
Reading pseudopotential information in formatted form from C.psf

Valence configuration for pseudopotential generation:
2s( 2.00) rc: 1.54
2p( 2.00) rc: 1.54
3d( 0.00) rc: 1.54
4f( 0.00) rc: 1.54
For B, standard SIESTA heuristics set lmxkb to 3
 (one more than the basis l, including polarization orbitals).
Use PS.lmax or PS.KBprojectors blocks to override.
For C, standard SIESTA heuristics set lmxkb to 3
 (one more than the basis l, including polarization orbitals).
Use PS.lmax or PS.KBprojectors blocks to override.

<basis_specs>
===============================================================================
B                    Z=   5    Mass=  10.810        Charge= 0.17977+309
Lmxo=1 Lmxkb= 3    BasisType=split      Semic=F
L=0  Nsemic=0  Cnfigmx=2
          n=1  nzeta=2  polorb=0
            splnorm:   0.15000    
               vcte:    0.0000    
               rinn:    0.0000    
                rcs:    0.0000      0.0000    
            lambdas:    1.0000      1.0000    
L=1  Nsemic=0  Cnfigmx=2
          n=1  nzeta=2  polorb=1
            splnorm:   0.15000    
               vcte:    0.0000    
               rinn:    0.0000    
                rcs:    0.0000      0.0000    
            lambdas:    1.0000      1.0000    
-------------------------------------------------------------------------------
L=0  Nkbl=1  erefs: 0.17977+309
L=1  Nkbl=1  erefs: 0.17977+309
L=2  Nkbl=1  erefs: 0.17977+309
L=3  Nkbl=1  erefs: 0.17977+309
===============================================================================
</basis_specs>

atom: Called for B                     (Z =   5)

read_vps: Pseudopotential generation method:
read_vps: ATM3      Troullier-Martins                       
Total valence charge:    3.00000

read_vps: Pseudopotential includes a core correction:
read_vps: Pseudo-core for xc-correction

xc_check: Exchange-correlation functional:
xc_check: GGA Perdew, Burke & Ernzerhof 1996
V l=0 = -2*Zval/r beyond r=  1.7165
V l=1 = -2*Zval/r beyond r=  1.7165
V l=2 = -2*Zval/r beyond r=  1.7165
V l=3 = -2*Zval/r beyond r=  1.6951
All V_l potentials equal beyond r=  1.7165
This should be close to max(r_c) in ps generation
All pots = -2*Zval/r beyond r=  1.7165

VLOCAL1: 99.0% of the norm of Vloc inside     14.733 Ry
VLOCAL1: 99.9% of the norm of Vloc inside     33.577 Ry
atom: Maximum radius for 4*pi*r*r*local-pseudopot. charge    2.04484
atom: Maximum radius for r*vlocal+2*Zval:    1.75994
GHOST: No ghost state for L =  0
GHOST: No ghost state for L =  1
GHOST: No ghost state for L =  2
GHOST: No ghost state for L =  3

KBgen: Kleinman-Bylander projectors: 
   l= 0   rc=  1.897051   el= -0.693730   Ekb=  4.595746   kbcos=  0.286105
   l= 1   rc=  1.920920   el= -0.265236   Ekb= -2.350715   kbcos= -0.315747
   l= 2   rc=  2.044840   el=  0.002055   Ekb= -0.690767   kbcos= -0.013822
   l= 3   rc=  2.149707   el=  0.003188   Ekb= -0.315358   kbcos= -0.002055

KBgen: Total number of  Kleinman-Bylander projectors:   16
atom: -------------------------------------------------------------------------

atom: SANKEY-TYPE ORBITALS:
atom: Selected multiple-zeta basis: split     

SPLIT: Orbitals with angular momentum L= 0

SPLIT: Basis orbitals for state 2s

SPLIT: PAO cut-off radius determined from an
SPLIT: energy shift=  0.007350 Ry

   izeta = 1
                 lambda =    1.000000
                     rc =    5.422032
                 energy =   -0.686029
                kinetic =    0.576707
    potential(screened) =   -1.262736
       potential(ionic) =   -3.271094

   izeta = 2
                 rmatch =    4.222573
              splitnorm =    0.150000
                 energy =   -0.602132
                kinetic =    0.858975
    potential(screened) =   -1.461107
       potential(ionic) =   -3.582536

SPLIT: Orbitals with angular momentum L= 1

SPLIT: Basis orbitals for state 2p

SPLIT: PAO cut-off radius determined from an
SPLIT: energy shift=  0.007350 Ry

   izeta = 1
                 lambda =    1.000000
                     rc =    6.790259
                 energy =   -0.258578
                kinetic =    1.481412
    potential(screened) =   -1.739989
       potential(ionic) =   -3.657461

   izeta = 2
                 rmatch =    4.608740
              splitnorm =    0.150000
                 energy =   -0.173757
                kinetic =    2.186690
    potential(screened) =   -2.360447
       potential(ionic) =   -4.464260

POLgen: Perturbative polarization orbital with L=  2

POLgen: Polarization orbital for state 2p

   izeta = 1
                     rc =    6.790259
                 energy =    0.684082
                kinetic =    1.471481
    potential(screened) =   -0.787399
       potential(ionic) =   -2.406985
atom: Total number of Sankey-type orbitals: 13

atm_pop: Valence configuration (for local Pseudopot. screening):
 2s( 2.00)                                                            
 2p( 1.00)                                                            
Vna: chval, zval:    3.00000   3.00000

Vna:  Cut-off radius for the neutral-atom potential:   6.790259
comcore: Pseudo-core radius Rcore=  2.122997

atom: _________________________________________________________________________

<basis_specs>
===============================================================================
C                    Z=   6    Mass=  12.010        Charge= 0.17977+309
Lmxo=1 Lmxkb= 3    BasisType=split      Semic=F
L=0  Nsemic=0  Cnfigmx=2
          n=1  nzeta=2  polorb=0
            splnorm:   0.15000    
               vcte:    0.0000    
               rinn:    0.0000    
                rcs:    0.0000      0.0000    
            lambdas:    1.0000      1.0000    
L=1  Nsemic=0  Cnfigmx=2
          n=1  nzeta=2  polorb=1
            splnorm:   0.15000    
               vcte:    0.0000    
               rinn:    0.0000    
                rcs:    0.0000      0.0000    
            lambdas:    1.0000      1.0000    
-------------------------------------------------------------------------------
L=0  Nkbl=1  erefs: 0.17977+309
L=1  Nkbl=1  erefs: 0.17977+309
L=2  Nkbl=1  erefs: 0.17977+309
L=3  Nkbl=1  erefs: 0.17977+309
===============================================================================
</basis_specs>

atom: Called for C                     (Z =   6)

read_vps: Pseudopotential generation method:
read_vps: ATM3      Troullier-Martins                       
Total valence charge:    4.00000

read_vps: Pseudopotential includes a core correction:
read_vps: Pseudo-core for xc-correction

xc_check: Exchange-correlation functional:
xc_check: GGA Perdew, Burke & Ernzerhof 1996
V l=0 = -2*Zval/r beyond r=  1.5227
V l=1 = -2*Zval/r beyond r=  1.5227
V l=2 = -2*Zval/r beyond r=  1.5227
V l=3 = -2*Zval/r beyond r=  1.5038
All V_l potentials equal beyond r=  1.5227
This should be close to max(r_c) in ps generation
All pots = -2*Zval/r beyond r=  1.5227

VLOCAL1: 99.0% of the norm of Vloc inside     18.722 Ry
VLOCAL1: 99.9% of the norm of Vloc inside     42.668 Ry
atom: Maximum radius for 4*pi*r*r*local-pseudopot. charge    1.83678
atom: Maximum radius for r*vlocal+2*Zval:    1.58088
GHOST: No ghost state for L =  0
GHOST: No ghost state for L =  1
GHOST: No ghost state for L =  2
GHOST: No ghost state for L =  3

KBgen: Kleinman-Bylander projectors: 
   l= 0   rc=  1.704034   el= -1.009801   Ekb=  5.335044   kbcos=  0.316824
   l= 1   rc=  1.704034   el= -0.388707   Ekb= -3.785862   kbcos= -0.366464
   l= 2   rc=  1.791422   el=  0.001971   Ekb= -0.970471   kbcos= -0.009212
   l= 3   rc=  1.859892   el=  0.003065   Ekb= -0.399525   kbcos= -0.001223

KBgen: Total number of  Kleinman-Bylander projectors:   16
atom: -------------------------------------------------------------------------

atom: SANKEY-TYPE ORBITALS:
atom: Selected multiple-zeta basis: split     

SPLIT: Orbitals with angular momentum L= 0

SPLIT: Basis orbitals for state 2s

SPLIT: PAO cut-off radius determined from an
SPLIT: energy shift=  0.007350 Ry

   izeta = 1
                 lambda =    1.000000
                     rc =    4.632753
                 energy =   -1.002270
                kinetic =    0.855760
    potential(screened) =   -1.858031
       potential(ionic) =   -5.417575

   izeta = 2
                 rmatch =    3.431921
              splitnorm =    0.150000
                 energy =   -0.867111
                kinetic =    1.300804
    potential(screened) =   -2.167915
       potential(ionic) =   -5.962684

SPLIT: Orbitals with angular momentum L= 1

SPLIT: Basis orbitals for state 2p

SPLIT: PAO cut-off radius determined from an
SPLIT: energy shift=  0.007350 Ry

   izeta = 1
                 lambda =    1.000000
                     rc =    5.658549
                 energy =   -0.381140
                kinetic =    2.399701
    potential(screened) =   -2.780841
       potential(ionic) =   -6.206085

   izeta = 2
                 rmatch =    3.653288
              splitnorm =    0.150000
                 energy =   -0.249149
                kinetic =    3.542762
    potential(screened) =   -3.791911
       potential(ionic) =   -7.581078

POLgen: Perturbative polarization orbital with L=  2

POLgen: Polarization orbital for state 2p

   izeta = 1
                     rc =    5.658549
                 energy =    1.109913
                kinetic =    2.304789
    potential(screened) =   -1.194876
       potential(ionic) =   -4.013592
atom: Total number of Sankey-type orbitals: 13

atm_pop: Valence configuration (for local Pseudopot. screening):
 2s( 2.00)                                                            
 2p( 2.00)                                                            
Vna: chval, zval:    4.00000   4.00000

Vna:  Cut-off radius for the neutral-atom potential:   5.658549
comcore: Pseudo-core radius Rcore=  1.791422

atom: _________________________________________________________________________

prinput: Basis input ----------------------------------------------------------

PAO.BasisType split     

%block ChemicalSpeciesLabel
    1    5 B                       # Species index, atomic number, species label
    2    6 C                       # Species index, atomic number, species label
%endblock ChemicalSpeciesLabel

%block PAO.Basis                 # Define Basis set
B                     2                    # Species label, number of l-shells
 n=2   0   2                         # n, l, Nzeta 
   5.422      4.223   
   1.000      1.000   
 n=2   1   2 P   1                   # n, l, Nzeta, Polarization, NzetaPol
   6.790      4.609   
   1.000      1.000   
C                     2                    # Species label, number of l-shells
 n=2   0   2                         # n, l, Nzeta 
   4.633      3.432   
   1.000      1.000   
 n=2   1   2 P   1                   # n, l, Nzeta, Polarization, NzetaPol
   5.659      3.653   
   1.000      1.000   
%endblock PAO.Basis

prinput: ----------------------------------------------------------------------

coor:   Atomic-coordinates input format  =     Cartesian coordinates
coor:                                          (in Angstroms)

siesta: Atomic coordinates (Bohr) and species
siesta:      2.23554   1.32097   0.00000  1        1
siesta:     32.50328  21.48508   0.00000  1        2
siesta:     34.83116  17.45226   0.00000  1        3
siesta:     30.17465   9.38661   0.00000  1        4
siesta:      6.89168   1.32097   0.00000  1        5
siesta:     11.54782   1.32097   0.00000  1        6
siesta:     16.20396   1.32097   0.00000  1        7
siesta:     20.86199   1.32097   0.00000  1        8
siesta:     25.51813   1.32097   0.00000  1        9
siesta:      4.56380   5.35379   0.00000  1       10
siesta:     13.87608   5.35379   0.00000  1       11
siesta:     23.19025   5.35379   0.00000  1       12
siesta:      6.89205   9.38661   0.00000  1       13
siesta:     11.54820   9.38661   0.00000  1       14
siesta:     16.20434   9.38661   0.00000  1       15
siesta:     20.86237   9.38661   0.00000  1       16
siesta:      9.22031  13.41944   0.00000  1       17
siesta:     18.53448  13.41944   0.00000  1       18
siesta:     11.54857  17.45226   0.00000  1       19
siesta:     16.20471  17.45226   0.00000  1       20
siesta:     13.87683  21.48508   0.00000  1       21
siesta:     25.51851   9.38661   0.00000  1       22
siesta:     20.86274  17.45226   0.00000  1       23
siesta:     27.84677  13.41944   0.00000  1       24
siesta:     25.51888  17.45226   0.00000  1       25
siesta:     23.19100  21.48508   0.00000  1       26
siesta:     30.17503  17.45226   0.00000  1       27
siesta:      4.56367   2.66461   0.00000  2       28
siesta:     34.83141  22.82873   0.00000  2       29
siesta:     37.15930  18.79590   0.00000  2       30
siesta:     32.50291  13.41944   0.00000  2       31
siesta:     34.83104  14.76308   0.00000  2       32
siesta:     32.50278  10.73026   0.00000  2       33
siesta:     27.84639   5.35379   0.00000  2       34
siesta:     30.17453   6.69743   0.00000  2       35
siesta:     27.84714  21.48508   0.00000  2       36
siesta:     30.17527  22.82873   0.00000  2       37
siesta:      9.21981   2.66461   0.00000  2       38
siesta:     13.87595   2.66461   0.00000  2       39
siesta:     18.53210   2.66461   0.00000  2       40
siesta:     23.19013   2.66461   0.00000  2       41
siesta:     27.84627   2.66461   0.00000  2       42
siesta:      6.89193   6.69743   0.00000  2       43
siesta:      9.21994   5.35379   0.00000  2       44
siesta:     11.54807   6.69743   0.00000  2       45
siesta:     16.20421   6.69743   0.00000  2       46
siesta:     18.53411   5.35379   0.00000  2       47
siesta:     20.86224   6.69743   0.00000  2       48
siesta:     25.51838   6.69743   0.00000  2       49
siesta:      9.22019  10.73026   0.00000  2       50
siesta:     13.87633  10.73026   0.00000  2       51
siesta:     18.53247  10.73026   0.00000  2       52
siesta:     23.19050  10.73026   0.00000  2       53
siesta:     11.54845  14.76308   0.00000  2       54
siesta:     13.87645  13.41944   0.00000  2       55
siesta:     16.20459  14.76308   0.00000  2       56
siesta:     20.86262  14.76308   0.00000  2       57
siesta:     13.87670  18.79590   0.00000  2       58
siesta:     18.53284  18.79590   0.00000  2       59
siesta:     16.20496  22.82873   0.00000  2       60
siesta:     18.53486  21.48508   0.00000  2       61
siesta:     20.86299  22.82873   0.00000  2       62
siesta:     27.84664  10.73026   0.00000  2       63
siesta:     23.19063  13.41944   0.00000  2       64
siesta:     25.51876  14.76308   0.00000  2       65
siesta:     23.19088  18.79590   0.00000  2       66
siesta:     30.17490  14.76308   0.00000  2       67
siesta:     27.84702  18.79590   0.00000  2       68
siesta:     25.51913  22.82873   0.00000  2       69
siesta:     32.50316  18.79590   0.00000  2       70
siesta:     37.16131  21.48508   0.00000  2       71
siesta:     39.48945  22.82873   0.00000  2       72

siesta: System type = slab      

initatomlists: Number of atoms, orbitals, and projectors:     72   936  1152

siesta: ******************** Simulation parameters ****************************
siesta:
siesta: The following are some of the parameters of the simulation.
siesta: A complete list of the parameters used, including default values,
siesta: can be found in file out.fdf
siesta:
redata: Non-Collinear-spin run           =     F
redata: SpinPolarized (Up/Down) run      =     F
redata: Number of spin components        =     1
redata: Long output                      =     F
redata: Number of Atomic Species         =        2
redata: Charge density info will appear in .RHO file
redata: Write Mulliken Pop.              =     NO
redata: Mesh Cutoff                      =   200.0000  Ry
redata: Net charge of the system         =     0.0000 |e|
redata: Max. number of SCF Iter          =      500
redata: SCF convergence failure will abort job
redata: Performing Pulay mixing using    =    10 iterations
redata: Mix DM in first SCF step ?       =     F
redata: Write Pulay info on disk?        =     F
redata: Discard 1st Pulay DM after  kick =     F
redata: New DM Mixing Weight             =     0.0500
redata: New DM Occupancy tolerance       = 0.000000000001
redata: No kicks to SCF
redata: DM Mixing Weight for Kicks       =     0.5000
redata: DM Tolerance for SCF             =     0.000100
redata: Require Energy convergence for SCF =     F
redata: DM Energy tolerance for SCF      =     0.000100 eV
redata: Require Harris convergence for SCF =     F
redata: DM Harris energy tolerance for SCF =     0.000100 eV
redata: Using Saved Data (generic)   =     F
redata: Use continuation files for DM    =     T
redata: Neglect nonoverlap interactions  =     F
redata: Method of Calculation            =     Diagonalization
redata: Divide and Conquer               =     T
redata: Electronic Temperature           =     0.0019  Ry
redata: Fix the spin of the system       =     F
redata: Dynamics option                  =     Verlet MD run
redata: Initial MD time step             =        1
redata:   Final MD time step             =        1
redata: Length of MD time step           =     1.0000  fs
redata: Initial Temperature of MD run    =     0.0000  K
redata: Perform a MD quench              =     F
redata: ***********************************************************************
Total number of electrons:   261.000000
Total ionic charge:   261.000000

* ProcessorY, Blocksize:    3  24

k-point displ. along   1 input, could be:     0.50    0.00
k-point displ. along   2 input, could be:     0.50    0.00
 Kpoints in:          231 . Kpoints trimmed:          231

siesta: k-grid: Number of k-points =   231
siesta: k-grid: Cutoff (effective) =     5.000 Ang
siesta: k-grid: Supercell and displacements
siesta: k-grid:   21   0   0      0.500
siesta: k-grid:    0  21   0      0.500
siesta: k-grid:    0   0   1      0.000
Naive supercell factors:     2    2    2

superc: Internal auxiliary supercell:     2 x     2 x     2  =       8
superc: Number of atoms, orbitals, and projectors:    576   7488   9216

* Maximum dynamic memory allocated =     4 MB

siesta:                 ==============================
                            Begin MD step =      1
                        ==============================

superc: Internal auxiliary supercell:     2 x     2 x     2  =       8
superc: Number of atoms, orbitals, and projectors:    576   7488   9216

outcell: Unit cell vectors (Ang):
       14.785000    0.000000    0.000000
        7.393000   12.805052    0.000000
        0.000000    0.000000   10.000000

outcell: Cell vector modules (Ang)   :   14.785000   14.786000   10.000000
outcell: Cell angles (23,13,12) (deg):     90.0000     90.0000     60.0000
outcell: Cell volume (Ang**3)        :   1893.2269
New_DM. Step:     1
Initializing Density Matrix...

iodm: Reading Density Matrix from files

InitMesh: MESH =   120 x   120 x    90 =     1296000
InitMesh: Mesh cutoff (required, used) =   200.000   223.865 Ry

* Maximum dynamic memory allocated =   166 MB

stepf: Fermi-Dirac step function

siesta: Program's energy decomposition (eV):
siesta: Ebs     =     -3286.000827
siesta: Eions   =     14945.479869
siesta: Ena     =      3356.774004
siesta: Ekin    =      6530.095294
siesta: Enl     =      -493.435860
siesta: DEna    =      -417.658251
siesta: DUscf   =        47.975375
siesta: DUext   =         0.000000
siesta: Exc     =     -4131.920087
siesta: eta*DQ  =         0.000000
siesta: Emadel  =         0.000000
siesta: Emeta   =         0.000000
siesta: Emolmec =         0.000000
siesta: Ekinion =         0.000000
siesta: Eharris =    -10053.657062
siesta: Etot    =    -10053.649395
siesta: FreeEng =    -10053.649395

siesta: iscf   Eharris(eV)      E_KS(eV)   FreeEng(eV)   dDmax  Ef(eV)
siesta:    1   -10053.6571   -10053.6494   -10053.6494  0.0001 -6.3048
timer: Routine,Calls,Time,% = IterSCF        1    1202.921  98.95
elaps: Routine,Calls,Wall,% = IterSCF        1     100.488  98.95

siesta: E_KS(eV) =           -10053.6571

siesta: E_KS - E_eggbox =    -10053.6571

siesta: Atomic forces (eV/Ang):
----------------------------------------
   Tot    0.492747    0.598793    0.000000
----------------------------------------
   Max    3.919969
   Res    1.396817    sqrt( Sum f_i^2 / 3N )
----------------------------------------
   Max    3.919969    constrained

Stress-tensor-Voigt (kbar):     -266.95     -264.89       -0.73       -0.63        0.00        0.00
(Free)E + p*V (eV/cell)    -9843.9300
Target enthalpy (eV/cell)   -10053.6997

siesta: Stress tensor (static) (eV/Ang**3):
        -0.166617   -0.000391    0.000000
        -0.000391   -0.165329    0.000000
         0.000000    0.000000   -0.000454

siesta: Pressure (static):        177.52325808  kBar

siesta: Stress tensor (total) (eV/Ang**3):
        -0.166617   -0.000391    0.000000
        -0.000391   -0.165329    0.000000
         0.000000    0.000000   -0.000454

siesta: Pressure (total):        177.52325808  kBar

siesta: Temp_ion =       0.000 K

* Maximum dynamic memory allocated =   266 MB

siesta: Program's energy decomposition (eV):
siesta: Ebs     =     -3286.000827
siesta: Eions   =     14945.479869
siesta: Ena     =      3356.774004
siesta: Ekin    =      6530.090071
siesta: Enl     =      -493.417699
siesta: DEna    =      -417.671034
siesta: DUscf   =        47.972056
siesta: DUext   =         0.000000
siesta: Exc     =     -4131.924586
siesta: eta*DQ  =         0.000000
siesta: Emadel  =         0.000000
siesta: Emeta   =         0.000000
siesta: Emolmec =         0.000000
siesta: Ekinion =         0.000000
siesta: Eharris =    -10053.657062
siesta: Etot    =    -10053.657057
siesta: FreeEng =    -10053.699702

siesta: Final energy (eV):
siesta:  Band Struct. =   -3286.000827
siesta:       Kinetic =    6530.090071
siesta:       Hartree =   18844.620364
siesta:    Ext. field =       0.000000
siesta:   Exch.-corr. =   -4131.924586
siesta:  Ion-electron =  -43528.139866
siesta:       Ion-ion =   12231.696961
siesta:       Ekinion =       0.000000
siesta:         Total =  -10053.657057

siesta: Atomic forces (eV/Ang):
siesta:      1    0.477444    0.267801    0.000000
siesta:      2    0.016668   -0.532424    0.000000
siesta:      3   -0.460312    0.285567    0.000000
siesta:      4   -0.463408    0.282991    0.000000
siesta:      5   -0.464228    0.259696    0.000000
siesta:      6    0.490003    0.260717    0.000000
siesta:      7   -0.459100    0.261284    0.000000
siesta:      8    0.464480    0.274953    0.000000
siesta:      9   -0.462117    0.261519    0.000000
siesta:     10   -0.003864   -0.529571    0.000000
siesta:     11    0.015982   -0.537018    0.000000
siesta:     12    0.014724   -0.537147    0.000000
siesta:     13    0.474835    0.291839    0.000000
siesta:     14   -0.464074    0.283724    0.000000
siesta:     15    0.502899    0.284440    0.000000
siesta:     16   -0.487085    0.299158    0.000000
siesta:     17   -0.003252   -0.528713    0.000000
siesta:     18   -0.014557   -0.520199    0.000000
siesta:     19    0.480346    0.291250    0.000000
siesta:     20   -0.454567    0.286966    0.000000
siesta:     21    0.037523   -0.540911    0.000000
siesta:     22    0.491563    0.284544    0.000000
siesta:     23    0.463974    0.299597    0.000000
siesta:     24    0.010306   -0.535946    0.000000
siesta:     25   -0.464231    0.283454    0.000000
siesta:     26    0.012117   -0.534454    0.000000
siesta:     27    0.489418    0.285585    0.000000
siesta:     28   -0.002895    0.005498    0.000000
siesta:     29    3.422644   -1.926437    0.000000
siesta:     30    0.025811    3.914258    0.000000
siesta:     31    0.005925   -0.006686    0.000000
siesta:     32   -3.379138   -1.951727    0.000000
siesta:     33    0.022435    3.911040    0.000000
siesta:     34    0.007483   -0.006383    0.000000
siesta:     35   -3.379162   -1.952643    0.000000
siesta:     36    0.003210   -0.002208    0.000000
siesta:     37   -3.394915   -1.919056    0.000000
siesta:     38    0.007978    3.915867    0.000000
siesta:     39    0.001060    0.005601    0.000000
siesta:     40    0.042907    3.902767    0.000000
siesta:     41   -0.008058    0.003582    0.000000
siesta:     42    0.020040    3.909237    0.000000
siesta:     43    3.398180   -1.943564    0.000000
siesta:     44    0.003524   -0.005467    0.000000
siesta:     45   -3.394282   -1.945006    0.000000
siesta:     46    3.420933   -1.952956    0.000000
siesta:     47   -0.023492    0.002647    0.000000
siesta:     48   -3.405803   -1.946131    0.000000
siesta:     49    3.397572   -1.943686    0.000000
siesta:     50   -0.001487    0.011395    0.000000
siesta:     51    0.002932    3.919747    0.000000
siesta:     52    0.023823   -0.007373    0.000000
siesta:     53   -0.000435    3.919969    0.000000
siesta:     54    3.394559   -1.942357    0.000000
siesta:     55    0.012013   -0.007144    0.000000
siesta:     56   -3.366396   -1.960533    0.000000
siesta:     57    3.388628   -1.943250    0.000000
siesta:     58   -0.005955    0.007478    0.000000
siesta:     59    0.042219    3.903573    0.000000
siesta:     60    3.425003   -1.927406    0.000000
siesta:     61   -0.024545    0.004295    0.000000
siesta:     62   -3.401040   -1.921975    0.000000
siesta:     63    0.001274    0.010129    0.000000
siesta:     64    0.007637   -0.006693    0.000000
siesta:     65   -3.394618   -1.944952    0.000000
siesta:     66   -0.003765    0.010832    0.000000
siesta:     67    3.400079   -1.944227    0.000000
siesta:     68    0.007788    3.918578    0.000000
siesta:     69    3.399188   -1.919662    0.000000
siesta:     70   -0.000898    0.010452    0.000000
siesta:     71   -0.026494    0.004465    0.000000
siesta:     72   -3.420204   -1.913801    0.000000
siesta: ----------------------------------------
siesta:    Tot    0.492747    0.598793    0.000000

siesta: Stress tensor (static) (eV/Ang**3):
siesta:    -0.166617   -0.000391    0.000000
siesta:    -0.000391   -0.165329    0.000000
siesta:     0.000000    0.000000   -0.000454

siesta: Cell volume =       1893.226895 Ang**3

siesta: Pressure (static):
siesta:                Solid            Molecule  Units
siesta:           0.00120675          0.00153209  Ry/Bohr**3
siesta:           0.11080010          0.14067114  eV/Ang**3
siesta:         177.52325808        225.38245069  kBar
(Free)E+ p_basis*V_orbitals  =      -10014.431343
(Free)Eharris+ p_basis*V_orbitals  =      -10014.439011

siesta: Electric dipole (a.u.)  =    0.000000    0.000000    0.000000
siesta: Electric dipole (Debye) =    0.000000    0.000000    0.000000

* Maximum dynamic memory allocated : Node    0 =   266 MB
* Maximum dynamic memory allocated : Node    1 =   163 MB
* Maximum dynamic memory allocated : Node    2 =   165 MB
* Maximum dynamic memory allocated : Node    3 =   253 MB
* Maximum dynamic memory allocated : Node    4 =   261 MB
* Maximum dynamic memory allocated : Node    5 =   158 MB
* Maximum dynamic memory allocated : Node    6 =   160 MB
* Maximum dynamic memory allocated : Node    7 =   253 MB
* Maximum dynamic memory allocated : Node    8 =   261 MB
* Maximum dynamic memory allocated : Node    9 =   158 MB
* Maximum dynamic memory allocated : Node   10 =   160 MB
* Maximum dynamic memory allocated : Node   11 =   253 MB

* Maximum memory occured during cdiag                         

timer: CPU execution times:
timer:  Routine       Calls   Time/call    Tot.time        %
timer:  siesta            1    1374.321    1374.321   100.00
timer:  Setup             1       3.373       3.373     0.25
timer:  bands             1       0.010       0.010     0.00
timer:  writewave         1       0.024       0.024     0.00
timer:  KSV_init          1       0.002       0.002     0.00
timer:  IterMD            1    1364.530    1364.530    99.29
timer:  hsparse           1       0.280       0.280     0.02
timer:  overlap           1       8.407       8.407     0.61
timer:  IterSCF           1    1202.921    1202.921    87.53
timer:  kinefsm           2       4.273       8.546     0.62
timer:  nlefsm            2      21.622      43.244     3.15
timer:  DHSCF             2     114.130     228.259    16.61
timer:  DHSCF1            1       1.200       1.200     0.09
timer:  DHSCF2            1      33.369      33.369     2.43
timer:  REORD            18       0.003       0.062     0.00
timer:  POISON            3       0.484       1.453     0.11
timer:  DHSCF3            2      81.781     163.562    11.90
timer:  rhoofd            2      17.356      34.713     2.53
timer:  cellXC            2       2.421       4.841     0.35
timer:  vmat              2      41.669      83.337     6.06
timer:  MolMec            2       0.000       0.000     0.00
timer:  diagon            1    1044.308    1044.308    75.99
timer:  cdiag            40      17.874     687.963    50.06
timer:  cdiag1           40       0.875      33.673     2.45
timer:  cdiag2           40       3.026     116.451     8.47
timer:  cdiag3           40      13.781     530.430    38.60
timer:  cdiag4           40       0.189       7.268     0.53
timer:  DHSCF4            1      30.087      30.087     2.19
timer:  dfscf             1      27.944      27.944     2.03
timer:  overfsm           1       0.340       0.340     0.02
timer:  optical           1       5.876       5.876     0.43
  

elaps: ELAPSED times:
elaps:  Routine       Calls   Time/call    Tot.time        %
elaps:  siesta            1     114.806     114.806   100.00
elaps:  Setup             1       0.282       0.282     0.25
elaps:  bands             1       0.001       0.001     0.00
elaps:  writewave         1       0.002       0.002     0.00
elaps:  KSV_init          1       0.000       0.000     0.00
elaps:  IterMD            1     113.987     113.987    99.29
elaps:  hsparse           1       0.028       0.028     0.02
elaps:  overlap           1       0.714       0.714     0.62
elaps:  IterSCF           1     100.488     100.488    87.53
elaps:  kinefsm           2       0.367       0.733     0.64
elaps:  nlefsm            2       1.898       3.797     3.31
elaps:  DHSCF             2      10.542      21.083    18.36
elaps:  DHSCF1            1       0.104       0.104     0.09
elaps:  DHSCF2            1       2.784       2.784     2.42
elaps:  REORD            18       0.000       0.005     0.00
elaps:  POISON            3       0.041       0.122     0.11
elaps:  DHSCF3            2       6.832      13.664    11.90
elaps:  rhoofd            2       2.551       5.102     4.44
elaps:  cellXC            2       0.202       0.404     0.35
elaps:  vmat              2       3.481       6.961     6.06
elaps:  MolMec            2       0.000       0.000     0.00
elaps:  diagon            1      87.237      87.237    75.99
elaps:  cdiag            40       1.471      58.852    51.26
elaps:  cdiag1           40       0.069       2.763     2.41
elaps:  cdiag2           40       0.240       9.617     8.38
elaps:  cdiag3           40       1.145      45.781    39.88
elaps:  cdiag4           40       0.017       0.682     0.59
elaps:  DHSCF4            1       4.528       4.528     3.94
elaps:  dfscf             1       4.266       4.266     3.72
elaps:  overfsm           1       0.036       0.036     0.03
elaps:  optical           1       0.000       0.000     0.00
  
>> End of run:   6-APR-2016  14:26:01
