Siesta Version:                                        siesta-3.2-pl-3
Architecture  : x86_64-unknown-linux-gnu--unknown
Compiler flags: mpiifort -g -O2 -fPIC -xSSE4.1 -fp-model source -shared-intel 
PARALLEL version

* Running on   12 nodes in parallel
>> Start of run:   3-MAY-2016  11:38:19

                           ***********************       
                           *  WELCOME TO SIESTA  *       
                           ***********************       

reinit: Reading from standard input
************************** Dump of input data file ****************************
#(1) General system descriptors
SystemName            GRP_doping    # Descriptive name of the system
SystemLabel           GRP_doping    # Short name for naming files
%include STRUCT.fdf
%include KPT.fdf
%include BASIS.fdf
#%include TS.fdf # for transiesta calculation
#(4) DFT, Grid, SCF
XC.functional         GGA           # LDA or GGA (default = LDA)
XC.authors            PBE           # CA (Ceperley-Aldr) = PZ
                                    #    (Perdew-Zunger) - LDA - Default
                                    # PW92 (Perdew-Wang-92) - LDA
                                    # PBE (Perdew-Burke-Ernzerhof) - GGA
MeshCutoff            200.000000    Ry      # Default: 50.0 Ry ~ 0.444 Bohr
                                    #         100.0 Ry ~ 0.314 Bohr
MaxSCFIterations      500           # Default: 50
DM.MixingWeight       0.05          # Default: 0.25
DM.NumberPulay        10            # Default: 0
DM.PulayOnFile        F             # SystemLabel.P1, SystemLabel.P2
DM.Tolerance          1.d-4         # Default: 1.d-4
DM.UseSaveDM          .true.        # because of the bug
SCFMustConverge       .true.
NeglNonOverlapInt     F             # Default: F
#(5) Eigenvalue problem: order-N or diagonalization
SolutionMethod        Diagon        # or Transiesta
ElectronicTemperature 300.0 K       # Default: 300.0 K
#(6) Molecular dynamics and relaxations
#MD.TypeOfRun          CG            # Type of dynamics:
#MD.VariableCell       F
#MD.NumCGsteps         0           # 0 for single-point / 100 for gopt
#MD.MaxCGDispl         0.2 Bohr      # Default: 0.2 Bohr
#MD.MaxForceTol        0.02 eV/Ang   # Default: 0.04 eV/Ang
#MD.MaxStressTol       1.0 GPa       # Default: 1.0 GPa
# Geometry Constraints
#%block GeometryConstraints
#	position from 1 to 44
#%endblock GeometryConstraints
BandLinesScale   pi/a
%block BandLines
 1   0.00000000  0.00000000  0.00000000
50   0.00000000  0.07809418  0.00000000
50   0.04509075  0.07809242  0.00000000
20   0.00000000  0.00000000  0.00000000
%endblock BandLines
************************** End of input data file *****************************

reinit: -----------------------------------------------------------------------
reinit: System Name: GRP_doping
reinit: -----------------------------------------------------------------------
reinit: System Label: GRP_doping                                                  
reinit: -----------------------------------------------------------------------

initatom: Reading input for the pseudopotentials and atomic orbitals ----------
 Species number:            1  Label: B Atomic number:           5
 Species number:            2  Label: C Atomic number:           6
Ground state valence configuration:   2s02  2p01
Reading pseudopotential information in formatted form from B.psf

Valence configuration for pseudopotential generation:
2s( 2.00) rc: 1.74
2p( 1.00) rc: 1.74
3d( 0.00) rc: 1.74
4f( 0.00) rc: 1.74
Ground state valence configuration:   2s02  2p02
Reading pseudopotential information in formatted form from C.psf

Valence configuration for pseudopotential generation:
2s( 2.00) rc: 1.54
2p( 2.00) rc: 1.54
3d( 0.00) rc: 1.54
4f( 0.00) rc: 1.54
For B, standard SIESTA heuristics set lmxkb to 3
 (one more than the basis l, including polarization orbitals).
Use PS.lmax or PS.KBprojectors blocks to override.
For C, standard SIESTA heuristics set lmxkb to 3
 (one more than the basis l, including polarization orbitals).
Use PS.lmax or PS.KBprojectors blocks to override.

<basis_specs>
===============================================================================
B                    Z=   5    Mass=  10.810        Charge= 0.17977+309
Lmxo=1 Lmxkb= 3    BasisType=split      Semic=F
L=0  Nsemic=0  Cnfigmx=2
          n=1  nzeta=2  polorb=0
            splnorm:   0.15000    
               vcte:    0.0000    
               rinn:    0.0000    
                rcs:    0.0000      0.0000    
            lambdas:    1.0000      1.0000    
L=1  Nsemic=0  Cnfigmx=2
          n=1  nzeta=2  polorb=1
            splnorm:   0.15000    
               vcte:    0.0000    
               rinn:    0.0000    
                rcs:    0.0000      0.0000    
            lambdas:    1.0000      1.0000    
-------------------------------------------------------------------------------
L=0  Nkbl=1  erefs: 0.17977+309
L=1  Nkbl=1  erefs: 0.17977+309
L=2  Nkbl=1  erefs: 0.17977+309
L=3  Nkbl=1  erefs: 0.17977+309
===============================================================================
</basis_specs>

atom: Called for B                     (Z =   5)

read_vps: Pseudopotential generation method:
read_vps: ATM3      Troullier-Martins                       
Total valence charge:    3.00000

read_vps: Pseudopotential includes a core correction:
read_vps: Pseudo-core for xc-correction

xc_check: Exchange-correlation functional:
xc_check: GGA Perdew, Burke & Ernzerhof 1996
V l=0 = -2*Zval/r beyond r=  1.7165
V l=1 = -2*Zval/r beyond r=  1.7165
V l=2 = -2*Zval/r beyond r=  1.7165
V l=3 = -2*Zval/r beyond r=  1.6951
All V_l potentials equal beyond r=  1.7165
This should be close to max(r_c) in ps generation
All pots = -2*Zval/r beyond r=  1.7165

VLOCAL1: 99.0% of the norm of Vloc inside     14.733 Ry
VLOCAL1: 99.9% of the norm of Vloc inside     33.577 Ry
atom: Maximum radius for 4*pi*r*r*local-pseudopot. charge    2.04484
atom: Maximum radius for r*vlocal+2*Zval:    1.75994
GHOST: No ghost state for L =  0
GHOST: No ghost state for L =  1
GHOST: No ghost state for L =  2
GHOST: No ghost state for L =  3

KBgen: Kleinman-Bylander projectors: 
   l= 0   rc=  1.897051   el= -0.693730   Ekb=  4.595746   kbcos=  0.286105
   l= 1   rc=  1.920920   el= -0.265236   Ekb= -2.350715   kbcos= -0.315747
   l= 2   rc=  2.044840   el=  0.002055   Ekb= -0.690767   kbcos= -0.013822
   l= 3   rc=  2.149707   el=  0.003188   Ekb= -0.315358   kbcos= -0.002055

KBgen: Total number of  Kleinman-Bylander projectors:   16
atom: -------------------------------------------------------------------------

atom: SANKEY-TYPE ORBITALS:
atom: Selected multiple-zeta basis: split     

SPLIT: Orbitals with angular momentum L= 0

SPLIT: Basis orbitals for state 2s

SPLIT: PAO cut-off radius determined from an
SPLIT: energy shift=  0.007350 Ry

   izeta = 1
                 lambda =    1.000000
                     rc =    5.422032
                 energy =   -0.686029
                kinetic =    0.576707
    potential(screened) =   -1.262736
       potential(ionic) =   -3.271094

   izeta = 2
                 rmatch =    4.222573
              splitnorm =    0.150000
                 energy =   -0.602132
                kinetic =    0.858975
    potential(screened) =   -1.461107
       potential(ionic) =   -3.582536

SPLIT: Orbitals with angular momentum L= 1

SPLIT: Basis orbitals for state 2p

SPLIT: PAO cut-off radius determined from an
SPLIT: energy shift=  0.007350 Ry

   izeta = 1
                 lambda =    1.000000
                     rc =    6.790259
                 energy =   -0.258578
                kinetic =    1.481412
    potential(screened) =   -1.739989
       potential(ionic) =   -3.657461

   izeta = 2
                 rmatch =    4.608740
              splitnorm =    0.150000
                 energy =   -0.173757
                kinetic =    2.186690
    potential(screened) =   -2.360447
       potential(ionic) =   -4.464260

POLgen: Perturbative polarization orbital with L=  2

POLgen: Polarization orbital for state 2p

   izeta = 1
                     rc =    6.790259
                 energy =    0.684082
                kinetic =    1.471481
    potential(screened) =   -0.787399
       potential(ionic) =   -2.406985
atom: Total number of Sankey-type orbitals: 13

atm_pop: Valence configuration (for local Pseudopot. screening):
 2s( 2.00)                                                            
 2p( 1.00)                                                            
Vna: chval, zval:    3.00000   3.00000

Vna:  Cut-off radius for the neutral-atom potential:   6.790259
comcore: Pseudo-core radius Rcore=  2.122997

atom: _________________________________________________________________________

<basis_specs>
===============================================================================
C                    Z=   6    Mass=  12.010        Charge= 0.17977+309
Lmxo=1 Lmxkb= 3    BasisType=split      Semic=F
L=0  Nsemic=0  Cnfigmx=2
          n=1  nzeta=2  polorb=0
            splnorm:   0.15000    
               vcte:    0.0000    
               rinn:    0.0000    
                rcs:    0.0000      0.0000    
            lambdas:    1.0000      1.0000    
L=1  Nsemic=0  Cnfigmx=2
          n=1  nzeta=2  polorb=1
            splnorm:   0.15000    
               vcte:    0.0000    
               rinn:    0.0000    
                rcs:    0.0000      0.0000    
            lambdas:    1.0000      1.0000    
-------------------------------------------------------------------------------
L=0  Nkbl=1  erefs: 0.17977+309
L=1  Nkbl=1  erefs: 0.17977+309
L=2  Nkbl=1  erefs: 0.17977+309
L=3  Nkbl=1  erefs: 0.17977+309
===============================================================================
</basis_specs>

atom: Called for C                     (Z =   6)

read_vps: Pseudopotential generation method:
read_vps: ATM3      Troullier-Martins                       
Total valence charge:    4.00000

read_vps: Pseudopotential includes a core correction:
read_vps: Pseudo-core for xc-correction

xc_check: Exchange-correlation functional:
xc_check: GGA Perdew, Burke & Ernzerhof 1996
V l=0 = -2*Zval/r beyond r=  1.5227
V l=1 = -2*Zval/r beyond r=  1.5227
V l=2 = -2*Zval/r beyond r=  1.5227
V l=3 = -2*Zval/r beyond r=  1.5038
All V_l potentials equal beyond r=  1.5227
This should be close to max(r_c) in ps generation
All pots = -2*Zval/r beyond r=  1.5227

VLOCAL1: 99.0% of the norm of Vloc inside     18.722 Ry
VLOCAL1: 99.9% of the norm of Vloc inside     42.668 Ry
atom: Maximum radius for 4*pi*r*r*local-pseudopot. charge    1.83678
atom: Maximum radius for r*vlocal+2*Zval:    1.58088
GHOST: No ghost state for L =  0
GHOST: No ghost state for L =  1
GHOST: No ghost state for L =  2
GHOST: No ghost state for L =  3

KBgen: Kleinman-Bylander projectors: 
   l= 0   rc=  1.704034   el= -1.009801   Ekb=  5.335044   kbcos=  0.316824
   l= 1   rc=  1.704034   el= -0.388707   Ekb= -3.785862   kbcos= -0.366464
   l= 2   rc=  1.791422   el=  0.001971   Ekb= -0.970471   kbcos= -0.009212
   l= 3   rc=  1.859892   el=  0.003065   Ekb= -0.399525   kbcos= -0.001223

KBgen: Total number of  Kleinman-Bylander projectors:   16
atom: -------------------------------------------------------------------------

atom: SANKEY-TYPE ORBITALS:
atom: Selected multiple-zeta basis: split     

SPLIT: Orbitals with angular momentum L= 0

SPLIT: Basis orbitals for state 2s

SPLIT: PAO cut-off radius determined from an
SPLIT: energy shift=  0.007350 Ry

   izeta = 1
                 lambda =    1.000000
                     rc =    4.632753
                 energy =   -1.002270
                kinetic =    0.855760
    potential(screened) =   -1.858031
       potential(ionic) =   -5.417575

   izeta = 2
                 rmatch =    3.431921
              splitnorm =    0.150000
                 energy =   -0.867111
                kinetic =    1.300804
    potential(screened) =   -2.167915
       potential(ionic) =   -5.962684

SPLIT: Orbitals with angular momentum L= 1

SPLIT: Basis orbitals for state 2p

SPLIT: PAO cut-off radius determined from an
SPLIT: energy shift=  0.007350 Ry

   izeta = 1
                 lambda =    1.000000
                     rc =    5.658549
                 energy =   -0.381140
                kinetic =    2.399701
    potential(screened) =   -2.780841
       potential(ionic) =   -6.206085

   izeta = 2
                 rmatch =    3.653288
              splitnorm =    0.150000
                 energy =   -0.249149
                kinetic =    3.542762
    potential(screened) =   -3.791911
       potential(ionic) =   -7.581078

POLgen: Perturbative polarization orbital with L=  2

POLgen: Polarization orbital for state 2p

   izeta = 1
                     rc =    5.658549
                 energy =    1.109913
                kinetic =    2.304789
    potential(screened) =   -1.194876
       potential(ionic) =   -4.013592
atom: Total number of Sankey-type orbitals: 13

atm_pop: Valence configuration (for local Pseudopot. screening):
 2s( 2.00)                                                            
 2p( 2.00)                                                            
Vna: chval, zval:    4.00000   4.00000

Vna:  Cut-off radius for the neutral-atom potential:   5.658549
comcore: Pseudo-core radius Rcore=  1.791422

atom: _________________________________________________________________________

prinput: Basis input ----------------------------------------------------------

PAO.BasisType split     

%block ChemicalSpeciesLabel
    1    5 B                       # Species index, atomic number, species label
    2    6 C                       # Species index, atomic number, species label
%endblock ChemicalSpeciesLabel

%block PAO.Basis                 # Define Basis set
B                     2                    # Species label, number of l-shells
 n=2   0   2                         # n, l, Nzeta 
   5.422      4.223   
   1.000      1.000   
 n=2   1   2 P   1                   # n, l, Nzeta, Polarization, NzetaPol
   6.790      4.609   
   1.000      1.000   
C                     2                    # Species label, number of l-shells
 n=2   0   2                         # n, l, Nzeta 
   4.633      3.432   
   1.000      1.000   
 n=2   1   2 P   1                   # n, l, Nzeta, Polarization, NzetaPol
   5.659      3.653   
   1.000      1.000   
%endblock PAO.Basis

prinput: ----------------------------------------------------------------------

coor:   Atomic-coordinates input format  =     Fractional

siesta: Atomic coordinates (Bohr) and species
siesta:     -4.68258  34.85847   0.00000  1        1
siesta:      2.30256  17.38257   0.00000  1        2
siesta:      4.63094  18.72698   0.00000  1        3
siesta:     -4.68258  13.34970   0.00000  1        4
siesta:     -0.02582  18.72698   0.00000  1        5
siesta:     -0.02582  21.41544   0.00000  1        6
siesta:     -7.01096  17.38257   0.00000  1        7
siesta:     -2.35420  25.44831   0.00000  1        8
siesta:     -9.33934  21.41544   0.00000  1        9
siesta:     -7.01096  25.44831   0.00000  1       10
siesta:      4.63094  29.48119   0.00000  1       11
siesta:     -4.68258  26.79272   0.00000  1       12
siesta:      2.30256  33.51406   0.00000  1       13
siesta:     -2.35420  33.51406   0.00000  1       14
siesta:     -0.02582  34.85847   0.00000  1       15
siesta:     -0.02582   2.59549   0.00000  2       16
siesta:     -0.02582   5.28395   0.00000  2       17
siesta:     -2.35420  38.89134   0.00000  2       18
siesta:     -2.35420  41.57980   0.00000  2       19
siesta:      2.30256  38.89134   0.00000  2       20
siesta:      2.30256  41.57980   0.00000  2       21
siesta:      4.63094  34.85847   0.00000  2       22
siesta:      4.63094  37.54693   0.00000  2       23
siesta:      6.95932  30.82560   0.00000  2       24
siesta:      6.95932  33.51406   0.00000  2       25
siesta:      9.28770  26.79272   0.00000  2       26
siesta:      9.28770  29.48119   0.00000  2       27
siesta:     -4.68258  37.54693   0.00000  2       28
siesta:      2.30256   6.62836   0.00000  2       29
siesta:      2.30256   9.31683   0.00000  2       30
siesta:      4.63094  10.66124   0.00000  2       31
siesta:      4.63094  13.34970   0.00000  2       32
siesta:      6.95932  14.69411   0.00000  2       33
siesta:      6.95932  17.38257   0.00000  2       34
siesta:      9.28770  18.72698   0.00000  2       35
siesta:      9.28770  21.41544   0.00000  2       36
siesta:     11.61608  22.75985   0.00000  2       37
siesta:     11.61608  25.44831   0.00000  2       38
siesta:     -2.35420   6.62836   0.00000  2       39
siesta:     -2.35420   9.31683   0.00000  2       40
siesta:     -0.02582  10.66124   0.00000  2       41
siesta:     -0.02582  13.34970   0.00000  2       42
siesta:      2.30256  14.69411   0.00000  2       43
siesta:      4.63094  21.41544   0.00000  2       44
siesta:      6.95932  22.75985   0.00000  2       45
siesta:      6.95932  25.44831   0.00000  2       46
siesta:     -4.68258  10.66124   0.00000  2       47
siesta:     -2.35420  14.69411   0.00000  2       48
siesta:     -2.35420  17.38257   0.00000  2       49
siesta:      2.30256  22.75985   0.00000  2       50
siesta:      2.30256  25.44831   0.00000  2       51
siesta:     -7.01096  14.69411   0.00000  2       52
siesta:     -4.68258  18.72698   0.00000  2       53
siesta:     -4.68258  21.41544   0.00000  2       54
siesta:     -2.35420  22.75985   0.00000  2       55
siesta:     -9.33934  18.72698   0.00000  2       56
siesta:     -7.01096  22.75985   0.00000  2       57
siesta:    -11.66772  22.75985   0.00000  2       58
siesta:    -11.66772  25.44831   0.00000  2       59
siesta:     -9.33934  26.79272   0.00000  2       60
siesta:     -9.33934  29.48119   0.00000  2       61
siesta:      4.63094  26.79272   0.00000  2       62
siesta:     -0.02582  26.79272   0.00000  2       63
siesta:     -0.02582  29.48119   0.00000  2       64
siesta:     -4.68258  29.48119   0.00000  2       65
siesta:      2.30256  30.82560   0.00000  2       66
siesta:     -2.35420  30.82560   0.00000  2       67
siesta:     -7.01096  30.82560   0.00000  2       68
siesta:     -7.01096  33.51406   0.00000  2       69
siesta:     -0.02582  37.54693   0.00000  2       70
siesta:     -0.02582  42.92421   0.00000  2       71
siesta:     -0.02582  45.61267   0.00000  2       72

siesta: System type = slab      

initatomlists: Number of atoms, orbitals, and projectors:     72   936  1152

siesta: ******************** Simulation parameters ****************************
siesta:
siesta: The following are some of the parameters of the simulation.
siesta: A complete list of the parameters used, including default values,
siesta: can be found in file out.fdf
siesta:
redata: Non-Collinear-spin run           =     F
redata: SpinPolarized (Up/Down) run      =     F
redata: Number of spin components        =     1
redata: Long output                      =     F
redata: Number of Atomic Species         =        2
redata: Charge density info will appear in .RHO file
redata: Write Mulliken Pop.              =     NO
redata: Mesh Cutoff                      =   200.0000  Ry
redata: Net charge of the system         =     0.0000 |e|
redata: Max. number of SCF Iter          =      500
redata: SCF convergence failure will abort job
redata: Performing Pulay mixing using    =    10 iterations
redata: Mix DM in first SCF step ?       =     F
redata: Write Pulay info on disk?        =     F
redata: Discard 1st Pulay DM after  kick =     F
redata: New DM Mixing Weight             =     0.0500
redata: New DM Occupancy tolerance       = 0.000000000001
redata: No kicks to SCF
redata: DM Mixing Weight for Kicks       =     0.5000
redata: DM Tolerance for SCF             =     0.000100
redata: Require Energy convergence for SCF =     F
redata: DM Energy tolerance for SCF      =     0.000100 eV
redata: Require Harris convergence for SCF =     F
redata: DM Harris energy tolerance for SCF =     0.000100 eV
redata: Using Saved Data (generic)   =     F
redata: Use continuation files for DM    =     T
redata: Neglect nonoverlap interactions  =     F
redata: Method of Calculation            =     Diagonalization
redata: Divide and Conquer               =     T
redata: Electronic Temperature           =     0.0019  Ry
redata: Fix the spin of the system       =     F
redata: Dynamics option                  =     Verlet MD run
redata: Initial MD time step             =        1
redata:   Final MD time step             =        1
redata: Length of MD time step           =     1.0000  fs
redata: Initial Temperature of MD run    =     0.0000  K
redata: Perform a MD quench              =     F
redata: ***********************************************************************
Total number of electrons:   273.000000
Total ionic charge:   273.000000

* ProcessorY, Blocksize:    3  24

k-point displ. along   1 input, could be:     0.50    0.00
k-point displ. along   2 input, could be:     0.50    0.00
 Kpoints in:          231 . Kpoints trimmed:          231

siesta: k-grid: Number of k-points =   231
siesta: k-grid: Cutoff (effective) =     5.000 Ang
siesta: k-grid: Supercell and displacements
siesta: k-grid:   21   0   0      0.500
siesta: k-grid:    0  21   0      0.500
siesta: k-grid:    0   0   1      0.000
Naive supercell factors:     2    2    2

superc: Internal auxiliary supercell:     2 x     2 x     2  =       8
superc: Number of atoms, orbitals, and projectors:    576   7488   9216

* Maximum dynamic memory allocated =     4 MB

siesta:                 ==============================
                            Begin MD step =      1
                        ==============================

superc: Internal auxiliary supercell:     2 x     2 x     2  =       8
superc: Number of atoms, orbitals, and projectors:    576   7488   9216

outcell: Unit cell vectors (Ang):
       12.804619    7.392750    0.000000
        0.000000   14.785500    0.000000
        0.000000    0.000000   10.000000

outcell: Cell vector modules (Ang)   :   14.785500   14.785500   10.000000
outcell: Cell angles (23,13,12) (deg):     90.0000     90.0000     60.0000
outcell: Cell volume (Ang**3)        :   1893.2269
New_DM. Step:     1
Initializing Density Matrix...

InitMesh: MESH =   120 x   120 x    90 =     1296000
InitMesh: Mesh cutoff (required, used) =   200.000   223.865 Ry

* Maximum dynamic memory allocated =   155 MB

stepf: Fermi-Dirac step function

siesta: Program's energy decomposition (eV):
siesta: Ebs     =     -5633.436474
siesta: Eions   =     16482.160403
siesta: Ena     =      4356.524217
siesta: Ekin    =      5587.107004
siesta: Enl     =       761.610384
siesta: DEna    =        -0.000010
siesta: DUscf   =         0.000000
siesta: DUext   =         0.000000
siesta: Exc     =     -4190.143134
siesta: eta*DQ  =         0.000000
siesta: Emadel  =         0.000000
siesta: Emeta   =         0.000000
siesta: Emolmec =         0.000000
siesta: Ekinion =         0.000000
siesta: Eharris =     -9714.021966
siesta: Etot    =     -9967.061941
siesta: FreeEng =     -9967.061941

siesta: iscf   Eharris(eV)      E_KS(eV)   FreeEng(eV)   dDmax  Ef(eV)
siesta:    1    -9714.0220    -9967.0619    -9967.0619  6.5649 -8.3585
timer: Routine,Calls,Time,% = IterSCF        1    3047.664  99.59
elaps: Routine,Calls,Wall,% = IterSCF        1     254.574  99.59
siesta:    2   -13711.7974    -9051.9570    -9051.9909 17.0856 -2.6488
siesta:    3    -9657.3071    -9824.5327    -9824.5954  3.0936 -7.1135
siesta:    4    -9628.6603    -9713.1260    -9713.1797  1.5035 -6.1790
siesta:    5    -9586.6011    -9598.5589    -9598.6097  1.2816 -5.1171
siesta:    6    -9576.4398    -9587.7944    -9587.8509  1.1272 -5.1053
siesta:    7    -9571.9396    -9583.2611    -9583.3151  0.8316 -5.1312
siesta:    8    -9569.1497    -9579.9335    -9579.9899  0.7912 -5.1709
siesta:    9    -9564.6257    -9566.4789    -9566.5439  0.5888 -5.1031
siesta:   10    -9564.3265    -9557.2882    -9557.3503  0.4353 -5.0133
siesta:   11    -9564.1621    -9547.9672    -9548.0331  0.2558 -4.9944
siesta:   12    -9564.4216    -9542.4698    -9542.5011  0.1651 -5.0012
siesta:   13    -9563.7809    -9543.3661    -9543.4092  0.1454 -5.0225
siesta:   14    -9563.4810    -9547.4122    -9547.4636  0.1059 -5.0570
siesta:   15    -9563.2901    -9549.9535    -9550.0097  0.0903 -5.0653
siesta:   16    -9563.1333    -9555.2555    -9555.3071  0.0566 -5.1004
siesta:   17    -9563.0880    -9557.5779    -9557.6420  0.0431 -5.1064
siesta:   18    -9563.0638    -9559.5106    -9559.5710  0.0296 -5.1177
siesta:   19    -9563.0570    -9560.3335    -9560.3906  0.0232 -5.1126
siesta:   20    -9563.0532    -9560.8315    -9560.8883  0.0162 -5.1087
siesta:   21    -9563.0503    -9561.5861    -9561.6428  0.0102 -5.1025
siesta:   22    -9563.0488    -9562.1006    -9562.1574  0.0052 -5.1022
siesta:   23    -9563.0479    -9562.5781    -9562.6358  0.0044 -5.1011
siesta:   24    -9563.0475    -9562.7405    -9562.7983  0.0059 -5.1009
siesta:   25    -9563.0475    -9562.7823    -9562.8402  0.0034 -5.0997
siesta:   26    -9563.0475    -9562.8439    -9562.9015  0.0022 -5.0995
siesta:   27    -9563.0475    -9562.8748    -9562.9323  0.0019 -5.0998
siesta:   28    -9563.0474    -9562.9653    -9563.0228  0.0011 -5.1005
siesta:   29    -9563.0474    -9563.0107    -9563.0683  0.0006 -5.1008
siesta:   30    -9563.0475    -9563.0324    -9563.0900  0.0004 -5.1009
siesta:   31    -9563.0475    -9563.0317    -9563.0893  0.0002 -5.1010
siesta:   32    -9563.0474    -9563.0357    -9563.0933  0.0001 -5.1010
siesta:   33    -9563.0474    -9563.0396    -9563.0972  0.0001 -5.1010
siesta:   34    -9563.0474    -9563.0477    -9563.1052  0.0001 -5.1010

siesta: E_KS(eV) =            -9563.0477

siesta: E_KS - E_eggbox =     -9563.0477

siesta: Atomic forces (eV/Ang):
----------------------------------------
   Tot   -0.019396    0.109230    0.000000
----------------------------------------
   Max  562.186340
   Res  148.644591    sqrt( Sum f_i^2 / 3N )
----------------------------------------
   Max  562.186340    constrained

Stress-tensor-Voigt (kbar):     -762.92    -2681.80       -0.55        5.58        0.00        0.00
(Free)E + p*V (eV/cell)    -8206.0728
Target enthalpy (eV/cell)    -9563.1053

siesta: Stress tensor (static) (eV/Ang**3):
        -0.476171    0.003481    0.000000
         0.003480   -1.673831    0.000000
         0.000000    0.000000   -0.000346

siesta: Pressure (static):       1148.42505760  kBar

siesta: Stress tensor (total) (eV/Ang**3):
        -0.476171    0.003481    0.000000
         0.003480   -1.673831    0.000000
         0.000000    0.000000   -0.000346

siesta: Pressure (total):       1148.42505760  kBar

siesta: Temp_ion =       0.000 K

* Maximum dynamic memory allocated =   168 MB
Computing bands...

siesta: Program's energy decomposition (eV):
siesta: Ebs     =     -4268.617418
siesta: Eions   =     16482.160403
siesta: Ena     =      4356.524217
siesta: Ekin    =      8466.706337
siesta: Enl     =      -859.981864
siesta: DEna    =      -787.927454
siesta: DUscf   =       105.664863
siesta: DUext   =         0.000000
siesta: Exc     =     -4361.873417
siesta: eta*DQ  =         0.000000
siesta: Emadel  =         0.000000
siesta: Emeta   =         0.000000
siesta: Emolmec =         0.000000
siesta: Ekinion =         0.000000
siesta: Eharris =     -9563.047441
siesta: Etot    =     -9563.047720
siesta: FreeEng =     -9563.105273

siesta: Final energy (eV):
siesta:  Band Struct. =   -4268.617418
siesta:       Kinetic =    8466.706337
siesta:       Hartree =   27442.332886
siesta:    Ext. field =       0.000000
siesta:   Exch.-corr. =   -4361.873417
siesta:  Ion-electron =  -63053.370075
siesta:       Ion-ion =   21943.156549
siesta:       Ekinion =       0.000000
siesta:         Total =   -9563.047720

siesta: Atomic forces (eV/Ang):
siesta:      1  -21.180077    0.478904    0.000000
siesta:      2   15.744427   -2.884115    0.000000
siesta:      3    2.051409    1.400917    0.000000
siesta:      4  -22.460286   -1.881168    0.000000
siesta:      5   -0.198201  409.723543    0.000000
siesta:      6   -0.818007    2.997917    0.000000
siesta:      7   -4.121334   -2.336050    0.000000
siesta:      8    3.820752   -1.353392    0.000000
siesta:      9   -3.706584   -2.349376    0.000000
siesta:     10   -2.598629   -3.785411    0.000000
siesta:     11   -1.100817   -0.757318    0.000000
siesta:     12   -0.335644    4.720855    0.000000
siesta:     13   17.709031 -400.046364    0.000000
siesta:     14  -17.916212 -399.090243    0.000000
siesta:     15    0.416083  100.805896    0.000000
siesta:     16   -1.673251  552.938614    0.000000
siesta:     17   -0.774650 -130.938459    0.000000
siesta:     18   -2.287293  126.183988    0.000000
siesta:     19  -11.386686 -545.815728    0.000000
siesta:     20   -0.181999  124.394240    0.000000
siesta:     21   16.157327 -552.610392    0.000000
siesta:     22   26.056467    0.118639    0.000000
siesta:     23   29.864830 -551.419940    0.000000
siesta:     24    6.223601    2.127784    0.000000
siesta:     25   -2.822308    1.828323    0.000000
siesta:     26    2.328239    1.490309    0.000000
siesta:     27   -1.469963    0.544230    0.000000
siesta:     28  -29.546154 -556.187118    0.000000
siesta:     29   17.035262  405.081196    0.000000
siesta:     30   -1.495819 -124.771467    0.000000
siesta:     31   32.977260  552.210019    0.000000
siesta:     32   27.593478   -3.021675    0.000000
siesta:     33   -2.952463   -2.041030    0.000000
siesta:     34    6.788686   -1.976178    0.000000
siesta:     35   -1.799893   -0.757348    0.000000
siesta:     36    2.730785   -1.530324    0.000000
siesta:     37   -0.193815    5.790688    0.000000
siesta:     38   -0.088607   -5.744713    0.000000
siesta:     39  -15.595460  400.700676    0.000000
siesta:     40   -2.300557 -126.031242    0.000000
siesta:     41    0.839965  550.893590    0.000000
siesta:     42    0.311994 -126.032707    0.000000
siesta:     43   25.218816  553.901272    0.000000
siesta:     44   -0.304424    4.092708    0.000000
siesta:     45   -0.360692    1.063094    0.000000
siesta:     46   -0.515010   -1.031205    0.000000
siesta:     47  -31.845567  556.349617    0.000000
siesta:     48  -30.452239  553.997519    0.000000
siesta:     49  -22.117004   -1.295834    0.000000
siesta:     50    2.911632    1.508562    0.000000
siesta:     51    1.280298    0.559231    0.000000
siesta:     52    1.319995   -3.895546    0.000000
siesta:     53    4.649792    2.407187    0.000000
siesta:     54    0.415175    0.790529    0.000000
siesta:     55   -1.925616   -2.378151    0.000000
siesta:     56   -0.270931   -0.491058    0.000000
siesta:     57    3.295827   -0.842733    0.000000
siesta:     58   -3.708160    9.133211    0.000000
siesta:     59    0.277538   -7.016739    0.000000
siesta:     60   -6.489918    4.676175    0.000000
siesta:     61    0.563017   -0.622874    0.000000
siesta:     62   -0.093243   -3.788423    0.000000
siesta:     63    1.962234    0.883444    0.000000
siesta:     64    1.178524 -562.186340    0.000000
siesta:     65    1.935483    1.257534    0.000000
siesta:     66   19.910036    5.745983    0.000000
siesta:     67  -22.533304    5.063658    0.000000
siesta:     68   -2.299488    1.910711    0.000000
siesta:     69   -0.483339   -0.426492    0.000000
siesta:     70   -1.454952 -539.575627    0.000000
siesta:     71    2.561718  126.245612    0.000000
siesta:     72   -2.290483 -406.994363    0.000000
siesta: ----------------------------------------
siesta:    Tot   -0.019396    0.109230    0.000000

siesta: Stress tensor (static) (eV/Ang**3):
siesta:    -0.476171    0.003481    0.000000
siesta:     0.003480   -1.673831    0.000000
siesta:     0.000000    0.000000   -0.000346

siesta: Cell volume =       1893.226884 Ang**3

siesta: Pressure (static):
siesta:                Solid            Molecule  Units
siesta:           0.00780668          0.11418496  Ry/Bohr**3
siesta:           0.71678279         10.48407447  eV/Ang**3
siesta:        1148.42505760      16797.52071250  kBar
(Free)E+ p_basis*V_orbitals  =       -9527.628354
(Free)Eharris+ p_basis*V_orbitals  =       -9527.628109

siesta: Electric dipole (a.u.)  =    0.000000    0.000000    0.000000
siesta: Electric dipole (Debye) =    0.000000    0.000000    0.000000

* Maximum dynamic memory allocated : Node    0 =   168 MB
* Maximum dynamic memory allocated : Node    1 =    66 MB
* Maximum dynamic memory allocated : Node    2 =    69 MB
* Maximum dynamic memory allocated : Node    3 =   155 MB
* Maximum dynamic memory allocated : Node    4 =   164 MB
* Maximum dynamic memory allocated : Node    5 =    60 MB
* Maximum dynamic memory allocated : Node    6 =    61 MB
* Maximum dynamic memory allocated : Node    7 =   154 MB
* Maximum dynamic memory allocated : Node    8 =   150 MB
* Maximum dynamic memory allocated : Node    9 =    60 MB
* Maximum dynamic memory allocated : Node   10 =    62 MB
* Maximum dynamic memory allocated : Node   11 =   144 MB

* Maximum memory occured during matrixMtoO                    

timer: CPU execution times:
timer:  Routine       Calls   Time/call    Tot.time        %
timer:  siesta            1  101067.127  101067.127   100.00
timer:  Setup             1       3.358       3.358     0.00
timer:  bands             3     225.396     676.189     0.67
timer:  writewave         1       0.024       0.024     0.00
timer:  KSV_init          1       0.001       0.001     0.00
timer:  IterMD            1  100380.656  100380.656    99.32
timer:  hsparse           1       0.286       0.286     0.00
timer:  overlap           1       7.207       7.207     0.01
timer:  IterSCF          34    2947.882  100227.978    99.17
timer:  kinefsm           2       3.666       7.332     0.01
timer:  nlefsm            2      20.210      40.420     0.04
timer:  DHSCF            35      78.482    2746.871     2.72
timer:  DHSCF1            1       1.188       1.188     0.00
timer:  DHSCF2            1      32.632      32.632     0.03
timer:  REORD           282       0.002       0.693     0.00
timer:  POISON           36       0.447      16.101     0.02
timer:  DHSCF3           35      76.718    2685.129     2.66
timer:  rhoofd           35      16.976     594.164     0.59
timer:  cellXC           35       2.421      84.738     0.08
timer:  vmat             35      36.569    1279.931     1.27
timer:  MolMec            2       0.000       0.000     0.00
timer:  diagon           34    2868.229   97519.796    96.49
timer:  c-eigval       7975       5.583   44524.989    44.05
timer:  c-buildHS      7975       0.036     285.970     0.28
timer:  cdiag         15829       5.683   89955.511    89.01
timer:  cdiag1        15829       0.261    4127.749     4.08
timer:  cdiag2        15829       1.834   29028.092    28.72
timer:  cdiag3        15829       3.377   53453.900    52.89
timer:  cdiag4        15829       0.087    1374.311     1.36
timer:  c-eigvec       7854       5.851   45956.125    45.47
timer:  c-buildD       7854       0.977    7672.001     7.59
timer:  DHSCF4            1      27.687      27.687     0.03
timer:  dfscf             1      25.588      25.588     0.03
timer:  overfsm           1       0.328       0.328     0.00
timer:  optical           1       6.316       6.316     0.01
  

elaps: ELAPSED times:
elaps:  Routine       Calls   Time/call    Tot.time        %
elaps:  siesta            1    8442.073    8442.073   100.00
elaps:  Setup             1       0.280       0.280     0.00
elaps:  bands             3      18.842      56.527     0.67
elaps:  writewave         1       0.002       0.002     0.00
elaps:  KSV_init          1       0.000       0.000     0.00
elaps:  IterMD            1    8384.732    8384.732    99.32
elaps:  hsparse           1       0.028       0.028     0.00
elaps:  overlap           1       0.715       0.715     0.01
elaps:  IterSCF          34     246.235    8371.980    99.17
elaps:  kinefsm           2       0.366       0.731     0.01
elaps:  nlefsm            2       1.714       3.428     0.04
elaps:  DHSCF            35       6.619     231.678     2.74
elaps:  DHSCF1            1       0.101       0.101     0.00
elaps:  DHSCF2            1       2.724       2.724     0.03
elaps:  REORD           282       0.000       0.083     0.00
elaps:  POISON           36       0.038       1.357     0.02
elaps:  DHSCF3           35       6.409     224.314     2.66
elaps:  rhoofd           35       2.978     104.228     1.23
elaps:  cellXC           35       0.202       7.063     0.08
elaps:  vmat             35       3.055     106.932     1.27
elaps:  MolMec            2       0.000       0.000     0.00
elaps:  diagon           34     239.587    8145.952    96.49
elaps:  c-eigval       7975       0.466    3719.102    44.05
elaps:  c-buildHS      7975       0.004      29.898     0.35
elaps:  cdiag         15829       0.471    7447.800    88.22
elaps:  cdiag1        15829       0.021     336.804     3.99
elaps:  cdiag2        15829       0.153    2426.845    28.75
elaps:  cdiag3        15829       0.283    4471.942    52.97
elaps:  cdiag4        15829       0.007     109.538     1.30
elaps:  c-eigvec       7854       0.482    3783.584    44.82
elaps:  c-buildD       7854       0.089     695.695     8.24
elaps:  DHSCF4            1       4.503       4.503     0.05
elaps:  dfscf             1       4.245       4.245     0.05
elaps:  overfsm           1       0.033       0.033     0.00
elaps:  optical           1       0.000       0.000     0.00
  
>> End of run:   3-MAY-2016  13:59:01
