Siesta Version:                                        siesta-3.2-pl-3
Architecture  : x86_64-unknown-linux-gnu--unknown
Compiler flags: mpiifort -g -O2 -fPIC -xSSE4.1 -fp-model source -shared-intel 
PARALLEL version

* Running on    8 nodes in parallel
>> Start of run:  26-APR-2016  11:32:41

                           ***********************       
                           *  WELCOME TO SIESTA  *       
                           ***********************       

reinit: Reading from standard input
************************** Dump of input data file ****************************
#(1) General system descriptors
SystemName            GRP_doping    # Descriptive name of the system
SystemLabel           GRP_doping    # Short name for naming files
%include STRUCT.fdf
%include KPT.fdf
%include BASIS.fdf
#%include TS.fdf # for transiesta calculation
#(4) DFT, Grid, SCF
XC.functional         GGA           # LDA or GGA (default = LDA)
XC.authors            PBE           # CA (Ceperley-Aldr) = PZ
                                    #    (Perdew-Zunger) - LDA - Default
                                    # PW92 (Perdew-Wang-92) - LDA
                                    # PBE (Perdew-Burke-Ernzerhof) - GGA
MeshCutoff            200.000000    Ry      # Default: 50.0 Ry ~ 0.444 Bohr
                                    #         100.0 Ry ~ 0.314 Bohr
MaxSCFIterations      500           # Default: 50
DM.MixingWeight       0.05          # Default: 0.25
DM.NumberPulay        10            # Default: 0
DM.PulayOnFile        F             # SystemLabel.P1, SystemLabel.P2
DM.Tolerance          1.d-4         # Default: 1.d-4
DM.UseSaveDM          .true.        # because of the bug
SCFMustConverge       .true.
NeglNonOverlapInt     F             # Default: F
#(5) Eigenvalue problem: order-N or diagonalization
SolutionMethod        Diagon        # or Transiesta
ElectronicTemperature 300.0 K       # Default: 300.0 K
#(6) Molecular dynamics and relaxations
#MD.TypeOfRun          CG            # Type of dynamics:
#MD.VariableCell       F
#MD.NumCGsteps         0           # 0 for single-point / 100 for gopt
#MD.MaxCGDispl         0.2 Bohr      # Default: 0.2 Bohr
#MD.MaxForceTol        0.02 eV/Ang   # Default: 0.04 eV/Ang
#MD.MaxStressTol       1.0 GPa       # Default: 1.0 GPa
# Geometry Constraints
#%block GeometryConstraints
#	position from 1 to 44
#%endblock GeometryConstraints
BandLinesScale   pi/a
%block BandLines
 1   0.00000000  0.00000000  0.00000000
50   0.00000000  0.07809418  0.00000000
50   0.04509075  0.07809242  0.00000000
20   0.00000000  0.00000000  0.00000000
%endblock BandLines
************************** End of input data file *****************************

reinit: -----------------------------------------------------------------------
reinit: System Name: GRP_doping
reinit: -----------------------------------------------------------------------
reinit: System Label: GRP_doping                                                  
reinit: -----------------------------------------------------------------------

initatom: Reading input for the pseudopotentials and atomic orbitals ----------
 Species number:            1  Label: N Atomic number:           7
 Species number:            2  Label: C Atomic number:           6
Ground state valence configuration:   2s02  2p03
Reading pseudopotential information in formatted form from N.psf

Valence configuration for pseudopotential generation:
2s( 2.00) rc: 1.48
2p( 3.00) rc: 1.48
3d( 0.00) rc: 1.48
4f( 0.00) rc: 1.48
Ground state valence configuration:   2s02  2p02
Reading pseudopotential information in formatted form from C.psf

Valence configuration for pseudopotential generation:
2s( 2.00) rc: 1.54
2p( 2.00) rc: 1.54
3d( 0.00) rc: 1.54
4f( 0.00) rc: 1.54
For N, standard SIESTA heuristics set lmxkb to 3
 (one more than the basis l, including polarization orbitals).
Use PS.lmax or PS.KBprojectors blocks to override.
For C, standard SIESTA heuristics set lmxkb to 3
 (one more than the basis l, including polarization orbitals).
Use PS.lmax or PS.KBprojectors blocks to override.

<basis_specs>
===============================================================================
N                    Z=   7    Mass=  14.010        Charge= 0.17977+309
Lmxo=1 Lmxkb= 3    BasisType=split      Semic=F
L=0  Nsemic=0  Cnfigmx=2
          n=1  nzeta=2  polorb=0
            splnorm:   0.15000    
               vcte:    0.0000    
               rinn:    0.0000    
                rcs:    0.0000      0.0000    
            lambdas:    1.0000      1.0000    
L=1  Nsemic=0  Cnfigmx=2
          n=1  nzeta=2  polorb=1
            splnorm:   0.15000    
               vcte:    0.0000    
               rinn:    0.0000    
                rcs:    0.0000      0.0000    
            lambdas:    1.0000      1.0000    
-------------------------------------------------------------------------------
L=0  Nkbl=1  erefs: 0.17977+309
L=1  Nkbl=1  erefs: 0.17977+309
L=2  Nkbl=1  erefs: 0.17977+309
L=3  Nkbl=1  erefs: 0.17977+309
===============================================================================
</basis_specs>

atom: Called for N                     (Z =   7)

read_vps: Pseudopotential generation method:
read_vps: ATM3      Troullier-Martins                       
Total valence charge:    5.00000

read_vps: Pseudopotential includes a core correction:
read_vps: Pseudo-core for xc-correction

xc_check: Exchange-correlation functional:
xc_check: GGA Perdew, Burke & Ernzerhof 1996
V l=0 = -2*Zval/r beyond r=  1.4606
V l=1 = -2*Zval/r beyond r=  1.4606
V l=2 = -2*Zval/r beyond r=  1.4606
V l=3 = -2*Zval/r beyond r=  1.4606
All V_l potentials equal beyond r=  1.4606
This should be close to max(r_c) in ps generation
All pots = -2*Zval/r beyond r=  1.4606

VLOCAL1: 99.0% of the norm of Vloc inside     20.347 Ry
VLOCAL1: 99.9% of the norm of Vloc inside     46.372 Ry
atom: Maximum radius for 4*pi*r*r*local-pseudopot. charge    1.76189
atom: Maximum radius for r*vlocal+2*Zval:    1.53550
GHOST: No ghost state for L =  0
GHOST: No ghost state for L =  1
GHOST: No ghost state for L =  2
GHOST: No ghost state for L =  3

KBgen: Kleinman-Bylander projectors: 
   l= 0   rc=  1.634559   el= -1.363963   Ekb=  5.296955   kbcos=  0.335621
   l= 1   rc=  1.614250   el= -0.521451   Ekb= -5.259161   kbcos= -0.433408
   l= 2   rc=  1.718383   el=  0.001991   Ekb= -1.271464   kbcos= -0.007566
   l= 3   rc=  1.761893   el=  0.003093   Ekb= -0.494769   kbcos= -0.001015

KBgen: Total number of  Kleinman-Bylander projectors:   16
atom: -------------------------------------------------------------------------

atom: SANKEY-TYPE ORBITALS:
atom: Selected multiple-zeta basis: split     

SPLIT: Orbitals with angular momentum L= 0

SPLIT: Basis orbitals for state 2s

SPLIT: PAO cut-off radius determined from an
SPLIT: energy shift=  0.007350 Ry

   izeta = 1
                 lambda =    1.000000
                     rc =    4.071465
                 energy =   -1.356470
                kinetic =    1.176977
    potential(screened) =   -2.533447
       potential(ionic) =   -8.057990

   izeta = 2
                 rmatch =    2.905100
              splitnorm =    0.150000
                 energy =   -1.158343
                kinetic =    1.813009
    potential(screened) =   -2.971352
       potential(ionic) =   -8.901931

SPLIT: Orbitals with angular momentum L= 1

SPLIT: Basis orbitals for state 2p

SPLIT: PAO cut-off radius determined from an
SPLIT: energy shift=  0.007350 Ry

   izeta = 1
                 lambda =    1.000000
                     rc =    4.972977
                 energy =   -0.513884
                kinetic =    3.441732
    potential(screened) =   -3.955616
       potential(ionic) =   -9.287901

   izeta = 2
                 rmatch =    3.054066
              splitnorm =    0.150000
                 energy =   -0.318226
                kinetic =    5.125348
    potential(screened) =   -5.443573
       potential(ionic) =  -11.380999

POLgen: Perturbative polarization orbital with L=  2

POLgen: Polarization orbital for state 2p

   izeta = 1
                     rc =    4.972977
                 energy =    1.607437
                kinetic =    3.268125
    potential(screened) =   -1.660688
       potential(ionic) =   -5.973652
atom: Total number of Sankey-type orbitals: 13

atm_pop: Valence configuration (for local Pseudopot. screening):
 2s( 2.00)                                                            
 2p( 3.00)                                                            
Vna: chval, zval:    5.00000   5.00000

Vna:  Cut-off radius for the neutral-atom potential:   4.972977
comcore: Pseudo-core radius Rcore=  1.554824

atom: _________________________________________________________________________

<basis_specs>
===============================================================================
C                    Z=   6    Mass=  12.010        Charge= 0.17977+309
Lmxo=1 Lmxkb= 3    BasisType=split      Semic=F
L=0  Nsemic=0  Cnfigmx=2
          n=1  nzeta=2  polorb=0
            splnorm:   0.15000    
               vcte:    0.0000    
               rinn:    0.0000    
                rcs:    0.0000      0.0000    
            lambdas:    1.0000      1.0000    
L=1  Nsemic=0  Cnfigmx=2
          n=1  nzeta=2  polorb=1
            splnorm:   0.15000    
               vcte:    0.0000    
               rinn:    0.0000    
                rcs:    0.0000      0.0000    
            lambdas:    1.0000      1.0000    
-------------------------------------------------------------------------------
L=0  Nkbl=1  erefs: 0.17977+309
L=1  Nkbl=1  erefs: 0.17977+309
L=2  Nkbl=1  erefs: 0.17977+309
L=3  Nkbl=1  erefs: 0.17977+309
===============================================================================
</basis_specs>

atom: Called for C                     (Z =   6)

read_vps: Pseudopotential generation method:
read_vps: ATM3      Troullier-Martins                       
Total valence charge:    4.00000

read_vps: Pseudopotential includes a core correction:
read_vps: Pseudo-core for xc-correction

xc_check: Exchange-correlation functional:
xc_check: GGA Perdew, Burke & Ernzerhof 1996
V l=0 = -2*Zval/r beyond r=  1.5227
V l=1 = -2*Zval/r beyond r=  1.5227
V l=2 = -2*Zval/r beyond r=  1.5227
V l=3 = -2*Zval/r beyond r=  1.5038
All V_l potentials equal beyond r=  1.5227
This should be close to max(r_c) in ps generation
All pots = -2*Zval/r beyond r=  1.5227

VLOCAL1: 99.0% of the norm of Vloc inside     18.722 Ry
VLOCAL1: 99.9% of the norm of Vloc inside     42.668 Ry
atom: Maximum radius for 4*pi*r*r*local-pseudopot. charge    1.83678
atom: Maximum radius for r*vlocal+2*Zval:    1.58088
GHOST: No ghost state for L =  0
GHOST: No ghost state for L =  1
GHOST: No ghost state for L =  2
GHOST: No ghost state for L =  3

KBgen: Kleinman-Bylander projectors: 
   l= 0   rc=  1.704034   el= -1.009801   Ekb=  5.335044   kbcos=  0.316824
   l= 1   rc=  1.704034   el= -0.388707   Ekb= -3.785862   kbcos= -0.366464
   l= 2   rc=  1.791422   el=  0.001971   Ekb= -0.970471   kbcos= -0.009212
   l= 3   rc=  1.859892   el=  0.003065   Ekb= -0.399525   kbcos= -0.001223

KBgen: Total number of  Kleinman-Bylander projectors:   16
atom: -------------------------------------------------------------------------

atom: SANKEY-TYPE ORBITALS:
atom: Selected multiple-zeta basis: split     

SPLIT: Orbitals with angular momentum L= 0

SPLIT: Basis orbitals for state 2s

SPLIT: PAO cut-off radius determined from an
SPLIT: energy shift=  0.007350 Ry

   izeta = 1
                 lambda =    1.000000
                     rc =    4.632753
                 energy =   -1.002270
                kinetic =    0.855760
    potential(screened) =   -1.858031
       potential(ionic) =   -5.417575

   izeta = 2
                 rmatch =    3.431921
              splitnorm =    0.150000
                 energy =   -0.867111
                kinetic =    1.300804
    potential(screened) =   -2.167915
       potential(ionic) =   -5.962684

SPLIT: Orbitals with angular momentum L= 1

SPLIT: Basis orbitals for state 2p

SPLIT: PAO cut-off radius determined from an
SPLIT: energy shift=  0.007350 Ry

   izeta = 1
                 lambda =    1.000000
                     rc =    5.658549
                 energy =   -0.381140
                kinetic =    2.399701
    potential(screened) =   -2.780841
       potential(ionic) =   -6.206085

   izeta = 2
                 rmatch =    3.653288
              splitnorm =    0.150000
                 energy =   -0.249149
                kinetic =    3.542762
    potential(screened) =   -3.791911
       potential(ionic) =   -7.581078

POLgen: Perturbative polarization orbital with L=  2

POLgen: Polarization orbital for state 2p

   izeta = 1
                     rc =    5.658549
                 energy =    1.109913
                kinetic =    2.304789
    potential(screened) =   -1.194876
       potential(ionic) =   -4.013592
atom: Total number of Sankey-type orbitals: 13

atm_pop: Valence configuration (for local Pseudopot. screening):
 2s( 2.00)                                                            
 2p( 2.00)                                                            
Vna: chval, zval:    4.00000   4.00000

Vna:  Cut-off radius for the neutral-atom potential:   5.658549
comcore: Pseudo-core radius Rcore=  1.791422

atom: _________________________________________________________________________

prinput: Basis input ----------------------------------------------------------

PAO.BasisType split     

%block ChemicalSpeciesLabel
    1    7 N                       # Species index, atomic number, species label
    2    6 C                       # Species index, atomic number, species label
%endblock ChemicalSpeciesLabel

%block PAO.Basis                 # Define Basis set
N                     2                    # Species label, number of l-shells
 n=2   0   2                         # n, l, Nzeta 
   4.071      2.905   
   1.000      1.000   
 n=2   1   2 P   1                   # n, l, Nzeta, Polarization, NzetaPol
   4.973      3.054   
   1.000      1.000   
C                     2                    # Species label, number of l-shells
 n=2   0   2                         # n, l, Nzeta 
   4.633      3.432   
   1.000      1.000   
 n=2   1   2 P   1                   # n, l, Nzeta, Polarization, NzetaPol
   5.659      3.653   
   1.000      1.000   
%endblock PAO.Basis

prinput: ----------------------------------------------------------------------

coor:   Atomic-coordinates input format  =     Fractional

siesta: Atomic coordinates (Bohr) and species
siesta:      4.63094  34.85847   0.00000  1        1
siesta:      4.63094  37.54693   0.00000  1        2
siesta:     -0.02582  13.34970   0.00000  1        3
siesta:      2.30256  14.69411   0.00000  1        4
siesta:      2.30256  17.38257   0.00000  1        5
siesta:      4.63094  18.72698   0.00000  1        6
siesta:      4.63094  21.41544   0.00000  1        7
siesta:      6.95932  22.75985   0.00000  1        8
siesta:      6.95932  25.44831   0.00000  1        9
siesta:     -2.35420  17.38257   0.00000  1       10
siesta:     -0.02582  18.72698   0.00000  1       11
siesta:     -0.02582  21.41544   0.00000  1       12
siesta:      2.30256  22.75985   0.00000  1       13
siesta:      2.30256  25.44831   0.00000  1       14
siesta:     -4.68258  18.72698   0.00000  1       15
siesta:     -4.68258  21.41544   0.00000  1       16
siesta:     -2.35420  22.75985   0.00000  1       17
siesta:     -2.35420  25.44831   0.00000  1       18
siesta:     -0.02582  26.79272   0.00000  1       19
siesta:     -0.02582  29.48119   0.00000  1       20
siesta:      2.30256  30.82560   0.00000  1       21
siesta:      2.30256  33.51406   0.00000  1       22
siesta:     -0.02582   2.59549   0.00000  2       23
siesta:     -0.02582   5.28395   0.00000  2       24
siesta:     -2.35420  38.89134   0.00000  2       25
siesta:     -2.35420  41.57980   0.00000  2       26
siesta:      2.30256  38.89134   0.00000  2       27
siesta:      2.30256  41.57980   0.00000  2       28
siesta:      6.95932  30.82560   0.00000  2       29
siesta:      6.95932  33.51406   0.00000  2       30
siesta:      9.28770  26.79272   0.00000  2       31
siesta:      9.28770  29.48119   0.00000  2       32
siesta:     -4.68258  34.85847   0.00000  2       33
siesta:     -4.68258  37.54693   0.00000  2       34
siesta:      2.30256   6.62836   0.00000  2       35
siesta:      2.30256   9.31683   0.00000  2       36
siesta:      4.63094  10.66124   0.00000  2       37
siesta:      4.63094  13.34970   0.00000  2       38
siesta:      6.95932  14.69411   0.00000  2       39
siesta:      6.95932  17.38257   0.00000  2       40
siesta:      9.28770  18.72698   0.00000  2       41
siesta:      9.28770  21.41544   0.00000  2       42
siesta:     11.61608  22.75985   0.00000  2       43
siesta:     11.61608  25.44831   0.00000  2       44
siesta:     -2.35420   6.62836   0.00000  2       45
siesta:     -2.35420   9.31683   0.00000  2       46
siesta:     -0.02582  10.66124   0.00000  2       47
siesta:     -4.68258  10.66124   0.00000  2       48
siesta:     -4.68258  13.34970   0.00000  2       49
siesta:     -2.35420  14.69411   0.00000  2       50
siesta:     -7.01096  14.69411   0.00000  2       51
siesta:     -7.01096  17.38257   0.00000  2       52
siesta:     -9.33934  18.72698   0.00000  2       53
siesta:     -9.33934  21.41544   0.00000  2       54
siesta:     -7.01096  22.75985   0.00000  2       55
siesta:     -7.01096  25.44831   0.00000  2       56
siesta:    -11.66772  22.75985   0.00000  2       57
siesta:    -11.66772  25.44831   0.00000  2       58
siesta:     -9.33934  26.79272   0.00000  2       59
siesta:     -9.33934  29.48119   0.00000  2       60
siesta:      4.63094  26.79272   0.00000  2       61
siesta:      4.63094  29.48119   0.00000  2       62
siesta:     -4.68258  26.79272   0.00000  2       63
siesta:     -4.68258  29.48119   0.00000  2       64
siesta:     -2.35420  30.82560   0.00000  2       65
siesta:     -2.35420  33.51406   0.00000  2       66
siesta:     -7.01096  30.82560   0.00000  2       67
siesta:     -7.01096  33.51406   0.00000  2       68
siesta:     -0.02582  34.85847   0.00000  2       69
siesta:     -0.02582  37.54693   0.00000  2       70
siesta:     -0.02582  42.92421   0.00000  2       71
siesta:     -0.02582  45.61267   0.00000  2       72

siesta: System type = slab      

initatomlists: Number of atoms, orbitals, and projectors:     72   936  1152

siesta: ******************** Simulation parameters ****************************
siesta:
siesta: The following are some of the parameters of the simulation.
siesta: A complete list of the parameters used, including default values,
siesta: can be found in file out.fdf
siesta:
redata: Non-Collinear-spin run           =     F
redata: SpinPolarized (Up/Down) run      =     F
redata: Number of spin components        =     1
redata: Long output                      =     F
redata: Number of Atomic Species         =        2
redata: Charge density info will appear in .RHO file
redata: Write Mulliken Pop.              =     NO
redata: Mesh Cutoff                      =   200.0000  Ry
redata: Net charge of the system         =     0.0000 |e|
redata: Max. number of SCF Iter          =      500
redata: SCF convergence failure will abort job
redata: Performing Pulay mixing using    =    10 iterations
redata: Mix DM in first SCF step ?       =     F
redata: Write Pulay info on disk?        =     F
redata: Discard 1st Pulay DM after  kick =     F
redata: New DM Mixing Weight             =     0.0500
redata: New DM Occupancy tolerance       = 0.000000000001
redata: No kicks to SCF
redata: DM Mixing Weight for Kicks       =     0.5000
redata: DM Tolerance for SCF             =     0.000100
redata: Require Energy convergence for SCF =     F
redata: DM Energy tolerance for SCF      =     0.000100 eV
redata: Require Harris convergence for SCF =     F
redata: DM Harris energy tolerance for SCF =     0.000100 eV
redata: Using Saved Data (generic)   =     F
redata: Use continuation files for DM    =     T
redata: Neglect nonoverlap interactions  =     F
redata: Method of Calculation            =     Diagonalization
redata: Divide and Conquer               =     T
redata: Electronic Temperature           =     0.0019  Ry
redata: Fix the spin of the system       =     F
redata: Dynamics option                  =     Verlet MD run
redata: Initial MD time step             =        1
redata:   Final MD time step             =        1
redata: Length of MD time step           =     1.0000  fs
redata: Initial Temperature of MD run    =     0.0000  K
redata: Perform a MD quench              =     F
redata: ***********************************************************************
Total number of electrons:   310.000000
Total ionic charge:   310.000000

* ProcessorY, Blocksize:    2  24

k-point displ. along   1 input, could be:     0.50    0.00
k-point displ. along   2 input, could be:     0.50    0.00
 Kpoints in:          231 . Kpoints trimmed:          231

siesta: k-grid: Number of k-points =   231
siesta: k-grid: Cutoff (effective) =     5.000 Ang
siesta: k-grid: Supercell and displacements
siesta: k-grid:   21   0   0      0.500
siesta: k-grid:    0  21   0      0.500
siesta: k-grid:    0   0   1      0.000
Naive supercell factors:     2    2    2

superc: Internal auxiliary supercell:     2 x     2 x     2  =       8
superc: Number of atoms, orbitals, and projectors:    576   7488   9216

* Maximum dynamic memory allocated =     4 MB

siesta:                 ==============================
                            Begin MD step =      1
                        ==============================

superc: Internal auxiliary supercell:     2 x     2 x     2  =       8
superc: Number of atoms, orbitals, and projectors:    576   7488   9216

outcell: Unit cell vectors (Ang):
       12.804619    7.392750    0.000000
        0.000000   14.785500    0.000000
        0.000000    0.000000   10.000000

outcell: Cell vector modules (Ang)   :   14.785500   14.785500   10.000000
outcell: Cell angles (23,13,12) (deg):     90.0000     90.0000     60.0000
outcell: Cell volume (Ang**3)        :   1893.2269
New_DM. Step:     1
Initializing Density Matrix...

InitMesh: MESH =   120 x   120 x    90 =     1296000
InitMesh: Mesh cutoff (required, used) =   200.000   223.865 Ry

* Maximum dynamic memory allocated =   186 MB

stepf: Fermi-Dirac step function

siesta: Program's energy decomposition (eV):
siesta: Ebs     =     -6310.273611
siesta: Eions   =     21939.441643
siesta: Ena     =      4960.982509
siesta: Ekin    =      8224.476411
siesta: Enl     =        -0.476544
siesta: DEna    =        -0.000015
siesta: DUscf   =         0.000000
siesta: DUext   =         0.000000
siesta: Exc     =     -4722.088486
siesta: eta*DQ  =         0.000000
siesta: Emadel  =         0.000000
siesta: Emeta   =         0.000000
siesta: Emolmec =         0.000000
siesta: Ekinion =         0.000000
siesta: Eharris =    -13110.068532
siesta: Etot    =    -13476.547768
siesta: FreeEng =    -13476.547768

siesta: iscf   Eharris(eV)      E_KS(eV)   FreeEng(eV)   dDmax  Ef(eV)
siesta:    1   -13110.0685   -13476.5478   -13476.5478  5.9935 -6.9171
timer: Routine,Calls,Time,% = IterSCF        1    4130.862  99.70
elaps: Routine,Calls,Wall,% = IterSCF        1     517.022  99.70
siesta:    2   -19896.0311   -12212.0033   -12212.0675 20.7792 -7.0087
siesta:    3   -13035.8658   -13317.8725   -13317.8885  2.8327 -5.6559
siesta:    4   -13004.0485   -13142.7211   -13142.7754  1.2523 -4.6435
siesta:    5   -12949.4828   -13055.8506   -13055.9047  0.9071 -3.9517
siesta:    6   -12937.9082   -13003.6758   -13003.7375  1.0384 -3.6497
siesta:    7   -12934.9374   -12994.6439   -12994.6930  0.8962 -3.6853
siesta:    8   -12929.0188   -12972.6637   -12972.7332  0.6513 -3.7865
siesta:    9   -12928.5751   -12950.5069   -12950.5821  0.6186 -3.7446
siesta:   10   -12927.8050   -12943.9368   -12944.0043  0.4850 -3.7302
siesta:   11   -12927.3064   -12920.8927   -12920.9666  0.2910 -3.6698
siesta:   12   -12927.7117   -12909.0945   -12909.1552  0.3139 -3.6756
siesta:   13   -12927.0536   -12905.4637   -12905.5323  0.1190 -3.6272
siesta:   14   -12926.2635   -12906.7409   -12906.8062  0.1882 -3.6303
siesta:   15   -12926.0283   -12907.7721   -12907.8497  0.0923 -3.6156
siesta:   16   -12925.8786   -12908.8191   -12908.8829  0.0721 -3.6308
siesta:   17   -12925.8132   -12912.3634   -12912.4343  0.0780 -3.6283
siesta:   18   -12925.7538   -12913.4715   -12913.5337  0.0659 -3.6367
siesta:   19   -12925.7497   -12916.9376   -12917.0044  0.0495 -3.6407
siesta:   20   -12925.7378   -12919.4137   -12919.4803  0.0347 -3.6435
siesta:   21   -12925.7335   -12921.7815   -12921.8481  0.0281 -3.6461
siesta:   22   -12925.7269   -12923.5218   -12923.5896  0.0256 -3.6440
siesta:   23   -12925.7245   -12924.6884   -12924.7557  0.0158 -3.6438
siesta:   24   -12925.7234   -12925.1726   -12925.2397  0.0132 -3.6445
siesta:   25   -12925.7234   -12925.6840   -12925.7515  0.0138 -3.6441
siesta:   26   -12925.7231   -12926.0579   -12926.1253  0.0121 -3.6424
siesta:   27   -12925.7226   -12926.2454   -12926.3128  0.0077 -3.6408
siesta:   28   -12925.7227   -12926.1127   -12926.1803  0.0038 -3.6398
siesta:   29   -12925.7225   -12925.9437   -12926.0111  0.0025 -3.6398
siesta:   30   -12925.7225   -12925.9406   -12926.0081  0.0015 -3.6396
siesta:   31   -12925.7225   -12925.8355   -12925.9029  0.0013 -3.6398
siesta:   32   -12925.7225   -12925.7972   -12925.8647  0.0009 -3.6398
siesta:   33   -12925.7225   -12925.7675   -12925.8350  0.0007 -3.6398
siesta:   34   -12925.7225   -12925.7684   -12925.8359  0.0004 -3.6398
siesta:   35   -12925.7225   -12925.7415   -12925.8090  0.0003 -3.6399
siesta:   36   -12925.7225   -12925.7412   -12925.8087  0.0003 -3.6399
siesta:   37   -12925.7225   -12925.7389   -12925.8064  0.0002 -3.6399
siesta:   38   -12925.7225   -12925.7350   -12925.8025  0.0001 -3.6399
siesta:   39   -12925.7225   -12925.7275   -12925.7950  0.0001 -3.6399

siesta: E_KS(eV) =           -12925.7268

siesta: E_KS - E_eggbox =    -12925.7268

siesta: Atomic forces (eV/Ang):
----------------------------------------
   Tot    0.016312   -0.191438    0.000000
----------------------------------------
   Max  694.655529
   Res  179.245972    sqrt( Sum f_i^2 / 3N )
----------------------------------------
   Max  694.655529    constrained

Stress-tensor-Voigt (kbar):     -706.85    -3201.21       -0.09       -7.91        0.00        0.00
(Free)E + p*V (eV/cell)   -11386.4437
Target enthalpy (eV/cell)   -12925.7943

siesta: Stress tensor (static) (eV/Ang**3):
        -0.441175   -0.004936    0.000000
        -0.004936   -1.998016    0.000000
         0.000000    0.000000   -0.000057

siesta: Pressure (static):       1302.71661402  kBar

siesta: Stress tensor (total) (eV/Ang**3):
        -0.441175   -0.004936    0.000000
        -0.004936   -1.998016    0.000000
         0.000000    0.000000   -0.000057

siesta: Pressure (total):       1302.71661402  kBar

siesta: Temp_ion =       0.000 K

* Maximum dynamic memory allocated =   203 MB
Computing bands...

siesta: Program's energy decomposition (eV):
siesta: Ebs     =     -5067.078855
siesta: Eions   =     21939.441643
siesta: Ena     =      4960.982509
siesta: Ekin    =     11345.987024
siesta: Enl     =     -1696.398936
siesta: DEna    =      -810.362679
siesta: DUscf   =       113.555907
siesta: DUext   =         0.000000
siesta: Exc     =     -4900.048950
siesta: eta*DQ  =         0.000000
siesta: Emadel  =         0.000000
siesta: Emeta   =         0.000000
siesta: Emolmec =         0.000000
siesta: Ekinion =         0.000000
siesta: Eharris =    -12925.722488
siesta: Etot    =    -12925.726767
siesta: FreeEng =    -12925.794272

siesta: Final energy (eV):
siesta:  Band Struct. =   -5067.078855
siesta:       Kinetic =   11345.987024
siesta:       Hartree =   36847.063740
siesta:    Ext. field =       0.000000
siesta:   Exch.-corr. =   -4900.048950
siesta:  Ion-electron =  -84531.903663
siesta:       Ion-ion =   28313.175081
siesta:       Ekinion =       0.000000
siesta:         Total =  -12925.726767

siesta: Atomic forces (eV/Ang):
siesta:      1   32.331572    5.075520    0.000000
siesta:      2   23.503397 -652.073611    0.000000
siesta:      3   -2.078340 -119.188048    0.000000
siesta:      4    9.281248  672.468987    0.000000
siesta:      5   30.168274  -10.242500    0.000000
siesta:      6    1.165989    1.967954    0.000000
siesta:      7    1.558627    0.506152    0.000000
siesta:      8    0.556181    0.462269    0.000000
siesta:      9   -2.262122   -0.527256    0.000000
siesta:     10  -34.208558  -15.641035    0.000000
siesta:     11    3.099899  694.655529    0.000000
siesta:     12   -0.540641   -7.529852    0.000000
siesta:     13    0.652021    0.357442    0.000000
siesta:     14    1.794364    0.556588    0.000000
siesta:     15   -0.119153    2.689428    0.000000
siesta:     16   -1.256838    0.088142    0.000000
siesta:     17   -1.397583   -0.150855    0.000000
siesta:     18   -1.437593    0.202806    0.000000
siesta:     19   -0.762747    4.331938    0.000000
siesta:     20  -16.579025 -683.318330    0.000000
siesta:     21   32.604653    9.208025    0.000000
siesta:     22   -4.329494 -675.339854    0.000000
siesta:     23   12.816507  641.643721    0.000000
siesta:     24    3.389712 -118.165247    0.000000
siesta:     25    1.481597  124.390563    0.000000
siesta:     26   -5.303687 -546.866727    0.000000
siesta:     27   -4.730187  122.752952    0.000000
siesta:     28   16.943120 -654.450902    0.000000
siesta:     29    0.796396    1.575759    0.000000
siesta:     30   -1.804138    0.665666    0.000000
siesta:     31    2.004078    2.521179    0.000000
siesta:     32   -0.202989   -1.069661    0.000000
siesta:     33  -26.564642    5.835829    0.000000
siesta:     34  -33.907398 -549.429379    0.000000
siesta:     35   35.398232  654.095996    0.000000
siesta:     36   -2.142676 -124.712499    0.000000
siesta:     37   33.964024  655.670006    0.000000
siesta:     38   26.953001   -9.682103    0.000000
siesta:     39   -2.147963    0.257728    0.000000
siesta:     40    1.822877   -0.805251    0.000000
siesta:     41   -1.158228   -0.052068    0.000000
siesta:     42    1.369916   -1.467032    0.000000
siesta:     43   -0.871465    5.148779    0.000000
siesta:     44   -0.629504   -4.905761    0.000000
siesta:     45  -12.315731  548.308025    0.000000
siesta:     46    2.344842 -127.882104    0.000000
siesta:     47    3.456466  538.024368    0.000000
siesta:     48  -33.597363  549.235060    0.000000
siesta:     49  -26.701504   -6.574526    0.000000
siesta:     50  -18.573302  559.313943    0.000000
siesta:     51    2.705487   -0.425810    0.000000
siesta:     52   -2.538203   -0.353123    0.000000
siesta:     53    1.543143   -0.891492    0.000000
siesta:     54   -1.303828   -1.843433    0.000000
siesta:     55    0.609018    0.200270    0.000000
siesta:     56    1.065690   -1.015426    0.000000
siesta:     57    0.279758    6.771098    0.000000
siesta:     58    0.176524   -6.885926    0.000000
siesta:     59   -1.826207    1.983815    0.000000
siesta:     60    1.436769    0.481117    0.000000
siesta:     61   -0.069395    0.224287    0.000000
siesta:     62   -0.833694   -3.464490    0.000000
siesta:     63    0.374087    1.081886    0.000000
siesta:     64    2.026742   -3.766776    0.000000
siesta:     65  -24.657684    9.663922    0.000000
siesta:     66  -22.789730 -557.286037    0.000000
siesta:     67   -2.661271   -0.010946    0.000000
siesta:     68    2.656974    1.750168    0.000000
siesta:     69   -3.624070  130.021700    0.000000
siesta:     70    4.146264 -545.847177    0.000000
siesta:     71   -1.233149  116.778137    0.000000
siesta:     72    0.698965 -639.292959    0.000000
siesta: ----------------------------------------
siesta:    Tot    0.016312   -0.191438    0.000000

siesta: Stress tensor (static) (eV/Ang**3):
siesta:    -0.441175   -0.004936    0.000000
siesta:    -0.004936   -1.998016    0.000000
siesta:     0.000000    0.000000   -0.000057

siesta: Cell volume =       1893.226884 Ang**3

siesta: Pressure (static):
siesta:                Solid            Molecule  Units
siesta:           0.00885551          0.14115405  Ry/Bohr**3
siesta:           0.81308297         12.96028484  eV/Ang**3
siesta:        1302.71661402      20764.88998746  kBar
(Free)E+ p_basis*V_orbitals  =      -12898.201853
(Free)Eharris+ p_basis*V_orbitals  =      -12898.196823

siesta: Electric dipole (a.u.)  =    0.000000    0.000000    0.000000
siesta: Electric dipole (Debye) =    0.000000    0.000000    0.000000

* Maximum dynamic memory allocated : Node    0 =   203 MB
* Maximum dynamic memory allocated : Node    1 =    73 MB
* Maximum dynamic memory allocated : Node    2 =    75 MB
* Maximum dynamic memory allocated : Node    3 =   193 MB
* Maximum dynamic memory allocated : Node    4 =   180 MB
* Maximum dynamic memory allocated : Node    5 =    70 MB
* Maximum dynamic memory allocated : Node    6 =    71 MB
* Maximum dynamic memory allocated : Node    7 =   165 MB

* Maximum memory occured during matrixMtoO                    

timer: CPU execution times:
timer:  Routine       Calls   Time/call    Tot.time        %
timer:  siesta            1  158794.078  158794.078   100.00
timer:  Setup             1       3.889       3.889     0.00
timer:  bands             3     268.161     804.484     0.51
timer:  writewave         1       0.042       0.042     0.00
timer:  KSV_init          1       0.005       0.005     0.00
timer:  IterMD            1  157978.388  157978.388    99.49
timer:  hsparse           1       0.234       0.234     0.00
timer:  overlap           1       7.706       7.706     0.00
timer:  IterSCF          39    4046.359  157808.002    99.38
timer:  kinefsm           2       3.951       7.902     0.00
timer:  nlefsm            2      18.363      36.726     0.02
timer:  DHSCF            40      89.016    3560.651     2.24
timer:  DHSCF1            1       0.765       0.765     0.00
timer:  DHSCF2            1      33.504      33.504     0.02
timer:  REORD           322       0.010       3.194     0.00
timer:  POISON           41       2.238      91.754     0.06
timer:  DHSCF3           40      87.370    3494.809     2.20
timer:  rhoofd           40      16.268     650.717     0.41
timer:  cellXC           40       3.470     138.816     0.09
timer:  vmat             40      42.768    1710.731     1.08
timer:  MolMec            2       0.000       0.000     0.00
timer:  diagon           39    3955.628  154269.482    97.15
timer:  c-eigval       9130       6.664   60846.330    38.32
timer:  c-buildHS      9130       0.110    1006.268     0.63
timer:  cdiag         18139       6.880  124797.075    78.59
timer:  cdiag1        18139       0.428    7771.633     4.89
timer:  cdiag2        18139       1.907   34597.210    21.79
timer:  cdiag3        18139       3.939   71457.677    45.00
timer:  cdiag4        18139       0.206    3734.946     2.35
timer:  c-eigvec       9009       7.262   65425.434    41.20
timer:  c-buildD       9009       3.192   28752.675    18.11
timer:  DHSCF4            1      29.434      29.434     0.02
timer:  dfscf             1      27.648      27.648     0.02
timer:  overfsm           1       0.398       0.398     0.00
timer:  optical           1       6.617       6.617     0.00
  

elaps: ELAPSED times:
elaps:  Routine       Calls   Time/call    Tot.time        %
elaps:  siesta            1   19871.054   19871.054   100.00
elaps:  Setup             1       0.502       0.502     0.00
elaps:  bands             3      33.648     100.943     0.51
elaps:  writewave         1       0.006       0.006     0.00
elaps:  KSV_init          1       0.001       0.001     0.00
elaps:  IterMD            1   19768.942   19768.942    99.49
elaps:  hsparse           1       0.029       0.029     0.00
elaps:  overlap           1       0.967       0.967     0.00
elaps:  IterSCF          39     506.352   19747.741    99.38
elaps:  kinefsm           2       0.496       0.991     0.00
elaps:  nlefsm            2       2.258       4.516     0.02
elaps:  DHSCF            40      11.248     449.910     2.26
elaps:  DHSCF1            1       0.097       0.097     0.00
elaps:  DHSCF2            1       4.190       4.190     0.02
elaps:  REORD           322       0.001       0.435     0.00
elaps:  POISON           41       0.280      11.462     0.06
elaps:  DHSCF3           40      10.930     437.203     2.20
elaps:  rhoofd           40       4.731     189.231     0.95
elaps:  cellXC           40       0.433      17.336     0.09
elaps:  vmat             40       5.350     213.985     1.08
elaps:  MolMec            2       0.000       0.000     0.00
elaps:  diagon           39     494.992   19304.704    97.15
elaps:  c-eigval       9130       0.834    7613.084    38.31
elaps:  c-buildHS      9130       0.015     138.461     0.70
elaps:  cdiag         18139       0.861   15615.421    78.58
elaps:  cdiag1        18139       0.054     976.940     4.92
elaps:  cdiag2        18139       0.239    4328.895    21.78
elaps:  cdiag3        18139       0.494    8953.216    45.06
elaps:  cdiag4        18139       0.026     479.752     2.41
elaps:  c-eigvec       9009       0.912    8215.263    41.34
elaps:  c-buildD       9009       0.396    3569.899    17.97
elaps:  DHSCF4            1       8.127       8.127     0.04
elaps:  dfscf             1       7.736       7.736     0.04
elaps:  overfsm           1       0.049       0.049     0.00
elaps:  optical           1       0.001       0.001     0.00
  
>> End of run:  26-APR-2016  17:03:52
