Siesta Version:                                        siesta-3.2-pl-3
Architecture  : x86_64-unknown-linux-gnu--unknown
Compiler flags: mpiifort -g -O2 -fPIC -xSSE4.1 -fp-model source -shared-intel 
PARALLEL version

* Running on   12 nodes in parallel
>> Start of run:   6-APR-2016  15:09:56

                           ***********************       
                           *  WELCOME TO SIESTA  *       
                           ***********************       

reinit: Reading from standard input
************************** Dump of input data file ****************************
#(1) General system descriptors
SystemName            GRP_doping    # Descriptive name of the system
SystemLabel           GRP_doping    # Short name for naming files
%include STRUCT.fdf
%include KPT.fdf
%include BASIS.fdf
#%include TS.fdf # for transiesta calculation
#(4) DFT, Grid, SCF
XC.functional         GGA           # LDA or GGA (default = LDA)
XC.authors            PBE           # CA (Ceperley-Aldr) = PZ
                                    #    (Perdew-Zunger) - LDA - Default
                                    # PW92 (Perdew-Wang-92) - LDA
                                    # PBE (Perdew-Burke-Ernzerhof) - GGA
MeshCutoff            200.000000    Ry      # Default: 50.0 Ry ~ 0.444 Bohr
                                    #         100.0 Ry ~ 0.314 Bohr
MaxSCFIterations      500           # Default: 50
DM.MixingWeight       0.05          # Default: 0.25
DM.NumberPulay        10            # Default: 0
DM.PulayOnFile        F             # SystemLabel.P1, SystemLabel.P2
DM.Tolerance          1.d-4         # Default: 1.d-4
DM.UseSaveDM          .true.        # because of the bug
SCFMustConverge       .true.
NeglNonOverlapInt     F             # Default: F
Diag.ParallelOverK    .true.
#(5) Eigenvalue problem: order-N or diagonalization
SolutionMethod        Diagon        # or Transiesta
ElectronicTemperature 300.0 K       # Default: 300.0 K
#(6) Molecular dynamics and relaxations
#MD.TypeOfRun          CG            # Type of dynamics:
#MD.VariableCell       F
#MD.NumCGsteps         0           # 0 for single-point / 100 for gopt
#MD.MaxCGDispl         0.2 Bohr      # Default: 0.2 Bohr
#MD.MaxForceTol        0.02 eV/Ang   # Default: 0.04 eV/Ang
#MD.MaxStressTol       1.0 GPa       # Default: 1.0 GPa
************************** End of input data file *****************************

reinit: -----------------------------------------------------------------------
reinit: System Name: GRP_doping
reinit: -----------------------------------------------------------------------
reinit: System Label: GRP_doping                                                  
reinit: -----------------------------------------------------------------------

initatom: Reading input for the pseudopotentials and atomic orbitals ----------
 Species number:            1  Label: C Atomic number:           6
 Species number:            2  Label: N Atomic number:           7
Ground state valence configuration:   2s02  2p02
Reading pseudopotential information in formatted form from C.psf

Valence configuration for pseudopotential generation:
2s( 2.00) rc: 1.54
2p( 2.00) rc: 1.54
3d( 0.00) rc: 1.54
4f( 0.00) rc: 1.54
Ground state valence configuration:   2s02  2p03
Reading pseudopotential information in formatted form from N.psf

Valence configuration for pseudopotential generation:
2s( 2.00) rc: 1.48
2p( 3.00) rc: 1.48
3d( 0.00) rc: 1.48
4f( 0.00) rc: 1.48
For C, standard SIESTA heuristics set lmxkb to 3
 (one more than the basis l, including polarization orbitals).
Use PS.lmax or PS.KBprojectors blocks to override.
For N, standard SIESTA heuristics set lmxkb to 3
 (one more than the basis l, including polarization orbitals).
Use PS.lmax or PS.KBprojectors blocks to override.

<basis_specs>
===============================================================================
C                    Z=   6    Mass=  12.010        Charge= 0.17977+309
Lmxo=1 Lmxkb= 3    BasisType=split      Semic=F
L=0  Nsemic=0  Cnfigmx=2
          n=1  nzeta=2  polorb=0
            splnorm:   0.15000    
               vcte:    0.0000    
               rinn:    0.0000    
                rcs:    0.0000      0.0000    
            lambdas:    1.0000      1.0000    
L=1  Nsemic=0  Cnfigmx=2
          n=1  nzeta=2  polorb=1
            splnorm:   0.15000    
               vcte:    0.0000    
               rinn:    0.0000    
                rcs:    0.0000      0.0000    
            lambdas:    1.0000      1.0000    
-------------------------------------------------------------------------------
L=0  Nkbl=1  erefs: 0.17977+309
L=1  Nkbl=1  erefs: 0.17977+309
L=2  Nkbl=1  erefs: 0.17977+309
L=3  Nkbl=1  erefs: 0.17977+309
===============================================================================
</basis_specs>

atom: Called for C                     (Z =   6)

read_vps: Pseudopotential generation method:
read_vps: ATM3      Troullier-Martins                       
Total valence charge:    4.00000

read_vps: Pseudopotential includes a core correction:
read_vps: Pseudo-core for xc-correction

xc_check: Exchange-correlation functional:
xc_check: GGA Perdew, Burke & Ernzerhof 1996
V l=0 = -2*Zval/r beyond r=  1.5227
V l=1 = -2*Zval/r beyond r=  1.5227
V l=2 = -2*Zval/r beyond r=  1.5227
V l=3 = -2*Zval/r beyond r=  1.5038
All V_l potentials equal beyond r=  1.5227
This should be close to max(r_c) in ps generation
All pots = -2*Zval/r beyond r=  1.5227

VLOCAL1: 99.0% of the norm of Vloc inside     18.722 Ry
VLOCAL1: 99.9% of the norm of Vloc inside     42.668 Ry
atom: Maximum radius for 4*pi*r*r*local-pseudopot. charge    1.83678
atom: Maximum radius for r*vlocal+2*Zval:    1.58088
GHOST: No ghost state for L =  0
GHOST: No ghost state for L =  1
GHOST: No ghost state for L =  2
GHOST: No ghost state for L =  3

KBgen: Kleinman-Bylander projectors: 
   l= 0   rc=  1.704034   el= -1.009801   Ekb=  5.335044   kbcos=  0.316824
   l= 1   rc=  1.704034   el= -0.388707   Ekb= -3.785862   kbcos= -0.366464
   l= 2   rc=  1.791422   el=  0.001971   Ekb= -0.970471   kbcos= -0.009212
   l= 3   rc=  1.859892   el=  0.003065   Ekb= -0.399525   kbcos= -0.001223

KBgen: Total number of  Kleinman-Bylander projectors:   16
atom: -------------------------------------------------------------------------

atom: SANKEY-TYPE ORBITALS:
atom: Selected multiple-zeta basis: split     

SPLIT: Orbitals with angular momentum L= 0

SPLIT: Basis orbitals for state 2s

SPLIT: PAO cut-off radius determined from an
SPLIT: energy shift=  0.007350 Ry

   izeta = 1
                 lambda =    1.000000
                     rc =    4.632753
                 energy =   -1.002270
                kinetic =    0.855760
    potential(screened) =   -1.858031
       potential(ionic) =   -5.417575

   izeta = 2
                 rmatch =    3.431921
              splitnorm =    0.150000
                 energy =   -0.867111
                kinetic =    1.300804
    potential(screened) =   -2.167915
       potential(ionic) =   -5.962684

SPLIT: Orbitals with angular momentum L= 1

SPLIT: Basis orbitals for state 2p

SPLIT: PAO cut-off radius determined from an
SPLIT: energy shift=  0.007350 Ry

   izeta = 1
                 lambda =    1.000000
                     rc =    5.658549
                 energy =   -0.381140
                kinetic =    2.399701
    potential(screened) =   -2.780841
       potential(ionic) =   -6.206085

   izeta = 2
                 rmatch =    3.653288
              splitnorm =    0.150000
                 energy =   -0.249149
                kinetic =    3.542762
    potential(screened) =   -3.791911
       potential(ionic) =   -7.581078

POLgen: Perturbative polarization orbital with L=  2

POLgen: Polarization orbital for state 2p

   izeta = 1
                     rc =    5.658549
                 energy =    1.109913
                kinetic =    2.304789
    potential(screened) =   -1.194876
       potential(ionic) =   -4.013592
atom: Total number of Sankey-type orbitals: 13

atm_pop: Valence configuration (for local Pseudopot. screening):
 2s( 2.00)                                                            
 2p( 2.00)                                                            
Vna: chval, zval:    4.00000   4.00000

Vna:  Cut-off radius for the neutral-atom potential:   5.658549
comcore: Pseudo-core radius Rcore=  1.791422

atom: _________________________________________________________________________

<basis_specs>
===============================================================================
N                    Z=   7    Mass=  14.010        Charge= 0.17977+309
Lmxo=1 Lmxkb= 3    BasisType=split      Semic=F
L=0  Nsemic=0  Cnfigmx=2
          n=1  nzeta=2  polorb=0
            splnorm:   0.15000    
               vcte:    0.0000    
               rinn:    0.0000    
                rcs:    0.0000      0.0000    
            lambdas:    1.0000      1.0000    
L=1  Nsemic=0  Cnfigmx=2
          n=1  nzeta=2  polorb=1
            splnorm:   0.15000    
               vcte:    0.0000    
               rinn:    0.0000    
                rcs:    0.0000      0.0000    
            lambdas:    1.0000      1.0000    
-------------------------------------------------------------------------------
L=0  Nkbl=1  erefs: 0.17977+309
L=1  Nkbl=1  erefs: 0.17977+309
L=2  Nkbl=1  erefs: 0.17977+309
L=3  Nkbl=1  erefs: 0.17977+309
===============================================================================
</basis_specs>

atom: Called for N                     (Z =   7)

read_vps: Pseudopotential generation method:
read_vps: ATM3      Troullier-Martins                       
Total valence charge:    5.00000

read_vps: Pseudopotential includes a core correction:
read_vps: Pseudo-core for xc-correction

xc_check: Exchange-correlation functional:
xc_check: GGA Perdew, Burke & Ernzerhof 1996
V l=0 = -2*Zval/r beyond r=  1.4606
V l=1 = -2*Zval/r beyond r=  1.4606
V l=2 = -2*Zval/r beyond r=  1.4606
V l=3 = -2*Zval/r beyond r=  1.4606
All V_l potentials equal beyond r=  1.4606
This should be close to max(r_c) in ps generation
All pots = -2*Zval/r beyond r=  1.4606

VLOCAL1: 99.0% of the norm of Vloc inside     20.347 Ry
VLOCAL1: 99.9% of the norm of Vloc inside     46.372 Ry
atom: Maximum radius for 4*pi*r*r*local-pseudopot. charge    1.76189
atom: Maximum radius for r*vlocal+2*Zval:    1.53550
GHOST: No ghost state for L =  0
GHOST: No ghost state for L =  1
GHOST: No ghost state for L =  2
GHOST: No ghost state for L =  3

KBgen: Kleinman-Bylander projectors: 
   l= 0   rc=  1.634559   el= -1.363963   Ekb=  5.296955   kbcos=  0.335621
   l= 1   rc=  1.614250   el= -0.521451   Ekb= -5.259161   kbcos= -0.433408
   l= 2   rc=  1.718383   el=  0.001991   Ekb= -1.271464   kbcos= -0.007566
   l= 3   rc=  1.761893   el=  0.003093   Ekb= -0.494769   kbcos= -0.001015

KBgen: Total number of  Kleinman-Bylander projectors:   16
atom: -------------------------------------------------------------------------

atom: SANKEY-TYPE ORBITALS:
atom: Selected multiple-zeta basis: split     

SPLIT: Orbitals with angular momentum L= 0

SPLIT: Basis orbitals for state 2s

SPLIT: PAO cut-off radius determined from an
SPLIT: energy shift=  0.007350 Ry

   izeta = 1
                 lambda =    1.000000
                     rc =    4.071465
                 energy =   -1.356470
                kinetic =    1.176977
    potential(screened) =   -2.533447
       potential(ionic) =   -8.057990

   izeta = 2
                 rmatch =    2.905100
              splitnorm =    0.150000
                 energy =   -1.158343
                kinetic =    1.813009
    potential(screened) =   -2.971352
       potential(ionic) =   -8.901931

SPLIT: Orbitals with angular momentum L= 1

SPLIT: Basis orbitals for state 2p

SPLIT: PAO cut-off radius determined from an
SPLIT: energy shift=  0.007350 Ry

   izeta = 1
                 lambda =    1.000000
                     rc =    4.972977
                 energy =   -0.513884
                kinetic =    3.441732
    potential(screened) =   -3.955616
       potential(ionic) =   -9.287901

   izeta = 2
                 rmatch =    3.054066
              splitnorm =    0.150000
                 energy =   -0.318226
                kinetic =    5.125348
    potential(screened) =   -5.443573
       potential(ionic) =  -11.380999

POLgen: Perturbative polarization orbital with L=  2

POLgen: Polarization orbital for state 2p

   izeta = 1
                     rc =    4.972977
                 energy =    1.607437
                kinetic =    3.268125
    potential(screened) =   -1.660688
       potential(ionic) =   -5.973652
atom: Total number of Sankey-type orbitals: 13

atm_pop: Valence configuration (for local Pseudopot. screening):
 2s( 2.00)                                                            
 2p( 3.00)                                                            
Vna: chval, zval:    5.00000   5.00000

Vna:  Cut-off radius for the neutral-atom potential:   4.972977
comcore: Pseudo-core radius Rcore=  1.554824

atom: _________________________________________________________________________

prinput: Basis input ----------------------------------------------------------

PAO.BasisType split     

%block ChemicalSpeciesLabel
    1    6 C                       # Species index, atomic number, species label
    2    7 N                       # Species index, atomic number, species label
%endblock ChemicalSpeciesLabel

%block PAO.Basis                 # Define Basis set
C                     2                    # Species label, number of l-shells
 n=2   0   2                         # n, l, Nzeta 
   4.633      3.432   
   1.000      1.000   
 n=2   1   2 P   1                   # n, l, Nzeta, Polarization, NzetaPol
   5.659      3.653   
   1.000      1.000   
N                     2                    # Species label, number of l-shells
 n=2   0   2                         # n, l, Nzeta 
   4.071      2.905   
   1.000      1.000   
 n=2   1   2 P   1                   # n, l, Nzeta, Polarization, NzetaPol
   4.973      3.054   
   1.000      1.000   
%endblock PAO.Basis

prinput: ----------------------------------------------------------------------

coor:   Atomic-coordinates input format  =     Cartesian coordinates
coor:                                          (in Angstroms)

siesta: Atomic coordinates (Bohr) and species
siesta:      2.23554   1.32097   0.00000  1        1
siesta:     32.50328  21.48508   0.00000  1        2
siesta:     34.83141  22.82873   0.00000  1        3
siesta:     37.15930  18.79590   0.00000  1        4
siesta:     32.50291  13.41944   0.00000  1        5
siesta:     34.83104  14.76308   0.00000  1        6
siesta:     30.17465   9.38661   0.00000  1        7
siesta:     32.50278  10.73026   0.00000  1        8
siesta:     27.84639   5.35379   0.00000  1        9
siesta:     30.17453   6.69743   0.00000  1       10
siesta:     27.84714  21.48508   0.00000  1       11
siesta:     30.17527  22.82873   0.00000  1       12
siesta:      6.89168   1.32097   0.00000  1       13
siesta:      9.21981   2.66461   0.00000  1       14
siesta:     13.87595   2.66461   0.00000  1       15
siesta:     16.20396   1.32097   0.00000  1       16
siesta:     18.53210   2.66461   0.00000  1       17
siesta:     23.19013   2.66461   0.00000  1       18
siesta:     25.51813   1.32097   0.00000  1       19
siesta:     27.84627   2.66461   0.00000  1       20
siesta:      4.56380   5.35379   0.00000  1       21
siesta:      6.89193   6.69743   0.00000  1       22
siesta:      9.21994   5.35379   0.00000  1       23
siesta:     11.54807   6.69743   0.00000  1       24
siesta:     13.87608   5.35379   0.00000  1       25
siesta:     16.20421   6.69743   0.00000  1       26
siesta:     18.53411   5.35379   0.00000  1       27
siesta:     20.86224   6.69743   0.00000  1       28
siesta:     23.19025   5.35379   0.00000  1       29
siesta:     25.51838   6.69743   0.00000  1       30
siesta:      9.22019  10.73026   0.00000  1       31
siesta:     11.54820   9.38661   0.00000  1       32
siesta:     13.87633  10.73026   0.00000  1       33
siesta:     18.53247  10.73026   0.00000  1       34
siesta:     20.86237   9.38661   0.00000  1       35
siesta:     23.19050  10.73026   0.00000  1       36
siesta:      9.22031  13.41944   0.00000  1       37
siesta:     11.54845  14.76308   0.00000  1       38
siesta:     13.87645  13.41944   0.00000  1       39
siesta:     16.20459  14.76308   0.00000  1       40
siesta:     18.53448  13.41944   0.00000  1       41
siesta:     20.86262  14.76308   0.00000  1       42
siesta:     13.87670  18.79590   0.00000  1       43
siesta:     16.20471  17.45226   0.00000  1       44
siesta:     18.53284  18.79590   0.00000  1       45
siesta:     13.87683  21.48508   0.00000  1       46
siesta:     16.20496  22.82873   0.00000  1       47
siesta:     18.53486  21.48508   0.00000  1       48
siesta:     20.86299  22.82873   0.00000  1       49
siesta:     27.84664  10.73026   0.00000  1       50
siesta:     23.19063  13.41944   0.00000  1       51
siesta:     25.51876  14.76308   0.00000  1       52
siesta:     23.19088  18.79590   0.00000  1       53
siesta:     27.84677  13.41944   0.00000  1       54
siesta:     30.17490  14.76308   0.00000  1       55
siesta:     25.51888  17.45226   0.00000  1       56
siesta:     27.84702  18.79590   0.00000  1       57
siesta:     23.19100  21.48508   0.00000  1       58
siesta:     25.51913  22.82873   0.00000  1       59
siesta:     30.17503  17.45226   0.00000  1       60
siesta:     32.50316  18.79590   0.00000  1       61
siesta:     37.16131  21.48508   0.00000  1       62
siesta:     39.48945  22.82873   0.00000  1       63
siesta:      4.56367   2.66461   0.00000  2       64
siesta:     34.83116  17.45226   0.00000  2       65
siesta:     11.54782   1.32097   0.00000  2       66
siesta:     20.86199   1.32097   0.00000  2       67
siesta:      6.89205   9.38661   0.00000  2       68
siesta:     16.20434   9.38661   0.00000  2       69
siesta:     11.54857  17.45226   0.00000  2       70
siesta:     25.51851   9.38661   0.00000  2       71
siesta:     20.86274  17.45226   0.00000  2       72

siesta: System type = slab      

initatomlists: Number of atoms, orbitals, and projectors:     72   936  1152

siesta: ******************** Simulation parameters ****************************
siesta:
siesta: The following are some of the parameters of the simulation.
siesta: A complete list of the parameters used, including default values,
siesta: can be found in file out.fdf
siesta:
redata: Non-Collinear-spin run           =     F
redata: SpinPolarized (Up/Down) run      =     F
redata: Number of spin components        =     1
redata: Long output                      =     F
redata: Number of Atomic Species         =        2
redata: Charge density info will appear in .RHO file
redata: Write Mulliken Pop.              =     NO
redata: Mesh Cutoff                      =   200.0000  Ry
redata: Net charge of the system         =     0.0000 |e|
redata: Max. number of SCF Iter          =      500
redata: SCF convergence failure will abort job
redata: Performing Pulay mixing using    =    10 iterations
redata: Mix DM in first SCF step ?       =     F
redata: Write Pulay info on disk?        =     F
redata: Discard 1st Pulay DM after  kick =     F
redata: New DM Mixing Weight             =     0.0500
redata: New DM Occupancy tolerance       = 0.000000000001
redata: No kicks to SCF
redata: DM Mixing Weight for Kicks       =     0.5000
redata: DM Tolerance for SCF             =     0.000100
redata: Require Energy convergence for SCF =     F
redata: DM Energy tolerance for SCF      =     0.000100 eV
redata: Require Harris convergence for SCF =     F
redata: DM Harris energy tolerance for SCF =     0.000100 eV
redata: Using Saved Data (generic)   =     F
redata: Use continuation files for DM    =     T
redata: Neglect nonoverlap interactions  =     F
redata: Method of Calculation            =     Diagonalization
redata: Divide and Conquer               =     T
redata: Electronic Temperature           =     0.0019  Ry
redata: Fix the spin of the system       =     F
redata: Dynamics option                  =     Verlet MD run
redata: Initial MD time step             =        1
redata:   Final MD time step             =        1
redata: Length of MD time step           =     1.0000  fs
redata: Initial Temperature of MD run    =     0.0000  K
redata: Perform a MD quench              =     F
redata: ***********************************************************************
Total number of electrons:   297.000000
Total ionic charge:   297.000000

* ProcessorY, Blocksize:    3  24

k-point displ. along   1 input, could be:     0.50    0.00
k-point displ. along   2 input, could be:     0.50    0.00
 Kpoints in:          231 . Kpoints trimmed:          231

siesta: k-grid: Number of k-points =   231
siesta: k-grid: Cutoff (effective) =     5.000 Ang
siesta: k-grid: Supercell and displacements
siesta: k-grid:   21   0   0      0.500
siesta: k-grid:    0  21   0      0.500
siesta: k-grid:    0   0   1      0.000
Naive supercell factors:     2    2    2

superc: Internal auxiliary supercell:     2 x     2 x     2  =       8
superc: Number of atoms, orbitals, and projectors:    576   7488   9216

* Maximum dynamic memory allocated =     4 MB

siesta:                 ==============================
                            Begin MD step =      1
                        ==============================

superc: Internal auxiliary supercell:     2 x     2 x     2  =       8
superc: Number of atoms, orbitals, and projectors:    576   7488   9216

outcell: Unit cell vectors (Ang):
       14.785000    0.000000    0.000000
        7.393000   12.805052    0.000000
        0.000000    0.000000   10.000000

outcell: Cell vector modules (Ang)   :   14.785000   14.786000   10.000000
outcell: Cell angles (23,13,12) (deg):     90.0000     90.0000     60.0000
outcell: Cell volume (Ang**3)        :   1893.2269
New_DM. Step:     1
Initializing Density Matrix...

iodm: Reading Density Matrix from files

InitMesh: MESH =   120 x   120 x    90 =     1296000
InitMesh: Mesh cutoff (required, used) =   200.000   223.865 Ry

* Maximum dynamic memory allocated =   134 MB

stepf: Fermi-Dirac step function

siesta: Program's energy decomposition (eV):
siesta: Ebs     =     -4185.921765
siesta: Eions   =     19849.732669
siesta: Ena     =      4064.210852
siesta: Ekin    =      8579.929309
siesta: Enl     =     -1058.995913
siesta: DEna    =      -247.311139
siesta: DUscf   =        22.421185
siesta: DUext   =         0.000000
siesta: Exc     =     -4250.292344
siesta: eta*DQ  =         0.000000
siesta: Emadel  =         0.000000
siesta: Emeta   =         0.000000
siesta: Emolmec =         0.000000
siesta: Ekinion =         0.000000
siesta: Eharris =    -12739.773411
siesta: Etot    =    -12739.770718
siesta: FreeEng =    -12739.770718

siesta: iscf   Eharris(eV)      E_KS(eV)   FreeEng(eV)   dDmax  Ef(eV)
siesta:    1   -12739.7734   -12739.7707   -12739.7707  0.0001 -3.4103
timer: Routine,Calls,Time,% = IterSCF        1    1185.660  98.96
elaps: Routine,Calls,Wall,% = IterSCF        1      99.046  98.96

siesta: E_KS(eV) =           -12739.7734

siesta: E_KS - E_eggbox =    -12739.7734

siesta: Atomic forces (eV/Ang):
----------------------------------------
   Tot    0.207614   -0.300580    0.000000
----------------------------------------
   Max    1.077014
   Res    0.306534    sqrt( Sum f_i^2 / 3N )
----------------------------------------
   Max    1.077014    constrained

Stress-tensor-Voigt (kbar):        0.75        1.09        0.15       -0.51        0.00        0.00
(Free)E + p*V (eV/cell)   -12740.5931
Target enthalpy (eV/cell)   -12739.8108

siesta: Stress tensor (static) (eV/Ang**3):
         0.000471   -0.000316    0.000000
        -0.000316    0.000678    0.000000
         0.000000    0.000000    0.000091

siesta: Pressure (static):         -0.66205556  kBar

siesta: Stress tensor (total) (eV/Ang**3):
         0.000471   -0.000316    0.000000
        -0.000316    0.000678    0.000000
         0.000000    0.000000    0.000091

siesta: Pressure (total):         -0.66205556  kBar

siesta: Temp_ion =       0.000 K

* Maximum dynamic memory allocated =   228 MB

siesta: Program's energy decomposition (eV):
siesta: Ebs     =     -4185.921765
siesta: Eions   =     19849.732669
siesta: Ena     =      4064.210852
siesta: Ekin    =      8579.924580
siesta: Enl     =     -1058.996971
siesta: DEna    =      -247.308222
siesta: DUscf   =        22.421125
siesta: DUext   =         0.000000
siesta: Exc     =     -4250.292107
siesta: eta*DQ  =         0.000000
siesta: Emadel  =         0.000000
siesta: Emeta   =         0.000000
siesta: Emolmec =         0.000000
siesta: Ekinion =         0.000000
siesta: Eharris =    -12739.773411
siesta: Etot    =    -12739.773411
siesta: FreeEng =    -12739.810766

siesta: Final energy (eV):
siesta:  Band Struct. =   -4185.921765
siesta:       Kinetic =    8579.924580
siesta:       Hartree =   24798.421806
siesta:    Ext. field =       0.000000
siesta:   Exch.-corr. =   -4250.292107
siesta:  Ion-electron =  -57573.996837
siesta:       Ion-ion =   15706.169147
siesta:       Ekinion =       0.000000
siesta:         Total =  -12739.773411

siesta: Atomic forces (eV/Ang):
siesta:      1    0.267130    0.065375    0.000000
siesta:      2   -0.102246    0.122424    0.000000
siesta:      3    0.317264    1.021137    0.000000
siesta:      4   -0.063822   -0.287884    0.000000
siesta:      5    0.830558    0.143783    0.000000
siesta:      6   -0.542901    0.735761    0.000000
siesta:      7    0.082708    0.300673    0.000000
siesta:      8    0.377390   -0.110675    0.000000
siesta:      9   -0.246487    1.014461    0.000000
siesta:     10    0.247188   -1.077014    0.000000
siesta:     11   -0.004981    0.630518    0.000000
siesta:     12    0.060252   -0.700082    0.000000
siesta:     13    0.110435   -0.254842    0.000000
siesta:     14   -0.149425   -0.294138    0.000000
siesta:     15   -0.183241   -0.352312    0.000000
siesta:     16    0.033802    0.152788    0.000000
siesta:     17    0.197474   -0.346508    0.000000
siesta:     18   -0.415897   -0.075500    0.000000
siesta:     19   -0.408584   -0.723871    0.000000
siesta:     20    0.432320   -0.072557    0.000000
siesta:     21   -0.059006    0.179395    0.000000
siesta:     22   -0.383538    0.006404    0.000000
siesta:     23    0.684049    0.360581    0.000000
siesta:     24   -0.472181   -0.216346    0.000000
siesta:     25    0.033964    0.257520    0.000000
siesta:     26   -0.054368   -0.048017    0.000000
siesta:     27    0.249433    0.377529    0.000000
siesta:     28    0.010837   -0.032191    0.000000
siesta:     29   -0.409839    0.035099    0.000000
siesta:     30    0.417921    0.337365    0.000000
siesta:     31   -0.623304    0.071350    0.000000
siesta:     32    0.292169   -0.129936    0.000000
siesta:     33    0.107421   -0.311080    0.000000
siesta:     34    0.003504   -0.144170    0.000000
siesta:     35   -0.205086   -0.279227    0.000000
siesta:     36    0.415597   -0.033264    0.000000
siesta:     37   -0.014709    0.317007    0.000000
siesta:     38    0.151184   -0.150438    0.000000
siesta:     39    0.107119    0.356278    0.000000
siesta:     40    0.127455   -0.054355    0.000000
siesta:     41   -0.416134    0.066704    0.000000
siesta:     42    0.255487    0.296576    0.000000
siesta:     43   -0.214515   -0.056295    0.000000
siesta:     44   -0.220008   -0.346642    0.000000
siesta:     45    0.487322    0.254314    0.000000
siesta:     46   -0.687357   -0.103431    0.000000
siesta:     47    0.232125    0.477287    0.000000
siesta:     48    0.684243   -0.753209    0.000000
siesta:     49   -0.815112    0.833851    0.000000
siesta:     50   -0.339846   -0.546396    0.000000
siesta:     51   -0.132897   -0.053367    0.000000
siesta:     52    0.357959    0.283763    0.000000
siesta:     53   -0.380176    0.004918    0.000000
siesta:     54   -0.298472    0.022096    0.000000
siesta:     55   -0.372951   -0.495995    0.000000
siesta:     56   -0.475025   -0.501458    0.000000
siesta:     57   -0.074087    0.283361    0.000000
siesta:     58    0.281693   -0.066429    0.000000
siesta:     59    0.001519    0.376091    0.000000
siesta:     60    0.460279   -0.036503    0.000000
siesta:     61    0.610205   -0.009806    0.000000
siesta:     62   -0.578464   -0.550086    0.000000
siesta:     63    0.607443    0.270265    0.000000
siesta:     64    0.183952    0.136799    0.000000
siesta:     65    0.743382   -0.475946    0.000000
siesta:     66   -0.031907   -0.018058    0.000000
siesta:     67   -0.025835   -0.349399    0.000000
siesta:     68    0.156525   -0.112501    0.000000
siesta:     69   -0.020325    0.219528    0.000000
siesta:     70   -0.691354    0.048791    0.000000
siesta:     71   -0.161401    0.069986    0.000000
siesta:     72   -0.136216   -0.260425    0.000000
siesta: ----------------------------------------
siesta:    Tot    0.207614   -0.300580    0.000000

siesta: Stress tensor (static) (eV/Ang**3):
siesta:     0.000471   -0.000316    0.000000
siesta:    -0.000316    0.000678    0.000000
siesta:     0.000000    0.000000    0.000091

siesta: Cell volume =       1893.226895 Ang**3

siesta: Pressure (static):
siesta:                Solid            Molecule  Units
siesta:          -0.00000450         -0.00006357  Ry/Bohr**3
siesta:          -0.00041322         -0.00583710  eV/Ang**3
siesta:          -0.66205556         -9.35216406  kBar
(Free)E+ p_basis*V_orbitals  =      -12710.359819
(Free)Eharris+ p_basis*V_orbitals  =      -12710.362512

siesta: Electric dipole (a.u.)  =    0.000000    0.000000    0.000000
siesta: Electric dipole (Debye) =    0.000000    0.000000    0.000000

* Maximum dynamic memory allocated : Node    0 =   228 MB
* Maximum dynamic memory allocated : Node    1 =   143 MB
* Maximum dynamic memory allocated : Node    2 =   144 MB
* Maximum dynamic memory allocated : Node    3 =   217 MB
* Maximum dynamic memory allocated : Node    4 =   224 MB
* Maximum dynamic memory allocated : Node    5 =   139 MB
* Maximum dynamic memory allocated : Node    6 =   140 MB
* Maximum dynamic memory allocated : Node    7 =   218 MB
* Maximum dynamic memory allocated : Node    8 =   224 MB
* Maximum dynamic memory allocated : Node    9 =   139 MB
* Maximum dynamic memory allocated : Node   10 =   140 MB
* Maximum dynamic memory allocated : Node   11 =   217 MB

* Maximum memory occured during cdiag                         

timer: CPU execution times:
timer:  Routine       Calls   Time/call    Tot.time        %
timer:  siesta            1    1309.630    1309.630   100.00
timer:  Setup             1       3.390       3.390     0.26
timer:  bands             1       0.016       0.016     0.00
timer:  writewave         1       0.023       0.023     0.00
timer:  KSV_init          1       0.003       0.003     0.00
timer:  IterMD            1    1299.728    1299.728    99.24
timer:  hsparse           1       0.185       0.185     0.01
timer:  overlap           1       6.033       6.033     0.46
timer:  IterSCF           1    1185.660    1185.660    90.53
timer:  kinefsm           2       3.051       6.102     0.47
timer:  nlefsm            2      18.712      37.424     2.86
timer:  DHSCF             2      81.750     163.500    12.48
timer:  DHSCF1            1       0.903       0.903     0.07
timer:  DHSCF2            1      23.798      23.798     1.82
timer:  REORD            18       0.003       0.063     0.00
timer:  POISON            3       0.476       1.429     0.11
timer:  DHSCF3            2      58.983     117.966     9.01
timer:  rhoofd            2      11.402      22.805     1.74
timer:  cellXC            2       2.452       4.903     0.37
timer:  vmat              2      29.903      59.806     4.57
timer:  MolMec            2       0.000       0.000     0.00
timer:  diagon            1    1058.758    1058.758    80.84
timer:  cdiag            40      18.116     697.291    53.24
timer:  cdiag1           40       0.874      33.645     2.57
timer:  cdiag2           40       3.039     116.957     8.93
timer:  cdiag3           40      13.994     538.675    41.13
timer:  cdiag4           40       0.205       7.884     0.60
timer:  DHSCF4            1      20.780      20.780     1.59
timer:  dfscf             1      19.347      19.347     1.48
timer:  overfsm           1       0.262       0.262     0.02
timer:  optical           1       5.962       5.962     0.46
  

elaps: ELAPSED times:
elaps:  Routine       Calls   Time/call    Tot.time        %
elaps:  siesta            1     109.401     109.401   100.00
elaps:  Setup             1       0.283       0.283     0.26
elaps:  bands             1       0.001       0.001     0.00
elaps:  writewave         1       0.002       0.002     0.00
elaps:  KSV_init          1       0.000       0.000     0.00
elaps:  IterMD            1     108.573     108.573    99.24
elaps:  hsparse           1       0.018       0.018     0.02
elaps:  overlap           1       0.703       0.703     0.64
elaps:  IterSCF           1      99.046      99.046    90.53
elaps:  kinefsm           2       0.357       0.714     0.65
elaps:  nlefsm            2       1.680       3.361     3.07
elaps:  DHSCF             2       7.571      15.142    13.84
elaps:  DHSCF1            1       0.077       0.077     0.07
elaps:  DHSCF2            1       1.987       1.987     1.82
elaps:  REORD            18       0.000       0.005     0.00
elaps:  POISON            3       0.040       0.121     0.11
elaps:  DHSCF3            2       4.927       9.853     9.01
elaps:  rhoofd            2       1.680       3.359     3.07
elaps:  cellXC            2       0.205       0.409     0.37
elaps:  vmat              2       2.498       4.995     4.57
elaps:  MolMec            2       0.000       0.000     0.00
elaps:  diagon            1      88.446      88.446    80.85
elaps:  cdiag            40       1.472      58.887    53.83
elaps:  cdiag1           40       0.071       2.859     2.61
elaps:  cdiag2           40       0.247       9.876     9.03
elaps:  cdiag3           40       1.136      45.439    41.53
elaps:  cdiag4           40       0.018       0.704     0.64
elaps:  DHSCF4            1       3.221       3.221     2.94
elaps:  dfscf             1       3.035       3.035     2.77
elaps:  overfsm           1       0.027       0.027     0.02
elaps:  optical           1       0.000       0.000     0.00
  
>> End of run:   6-APR-2016  15:11:46
