Siesta Version:                                        siesta-3.2-pl-3
Architecture  : x86_64-unknown-linux-gnu--unknown
Compiler flags: mpiifort -g -O2 -fPIC -xSSE4.1 -fp-model source -shared-intel 
PARALLEL version

* Running on   12 nodes in parallel
>> Start of run:   3-MAY-2016   9:06:56

                           ***********************       
                           *  WELCOME TO SIESTA  *       
                           ***********************       

reinit: Reading from standard input
************************** Dump of input data file ****************************
#(1) General system descriptors
SystemName            GRP_doping    # Descriptive name of the system
SystemLabel           GRP_doping    # Short name for naming files
%include STRUCT.fdf
%include KPT.fdf
%include BASIS.fdf
#%include TS.fdf # for transiesta calculation
#(4) DFT, Grid, SCF
XC.functional         GGA           # LDA or GGA (default = LDA)
XC.authors            PBE           # CA (Ceperley-Aldr) = PZ
                                    #    (Perdew-Zunger) - LDA - Default
                                    # PW92 (Perdew-Wang-92) - LDA
                                    # PBE (Perdew-Burke-Ernzerhof) - GGA
MeshCutoff            200.000000    Ry      # Default: 50.0 Ry ~ 0.444 Bohr
                                    #         100.0 Ry ~ 0.314 Bohr
MaxSCFIterations      500           # Default: 50
DM.MixingWeight       0.05          # Default: 0.25
DM.NumberPulay        10            # Default: 0
DM.PulayOnFile        F             # SystemLabel.P1, SystemLabel.P2
DM.Tolerance          1.d-4         # Default: 1.d-4
DM.UseSaveDM          .true.        # because of the bug
SCFMustConverge       .true.
NeglNonOverlapInt     F             # Default: F
#(5) Eigenvalue problem: order-N or diagonalization
SolutionMethod        Diagon        # or Transiesta
ElectronicTemperature 300.0 K       # Default: 300.0 K
#(6) Molecular dynamics and relaxations
#MD.TypeOfRun          CG            # Type of dynamics:
#MD.VariableCell       F
#MD.NumCGsteps         0           # 0 for single-point / 100 for gopt
#MD.MaxCGDispl         0.2 Bohr      # Default: 0.2 Bohr
#MD.MaxForceTol        0.02 eV/Ang   # Default: 0.04 eV/Ang
#MD.MaxStressTol       1.0 GPa       # Default: 1.0 GPa
# Geometry Constraints
#%block GeometryConstraints
#	position from 1 to 44
#%endblock GeometryConstraints
BandLinesScale   pi/a
%block BandLines
 1   0.00000000  0.00000000  0.00000000
50   0.00000000  0.07809418  0.00000000
50   0.04509075  0.07809242  0.00000000
20   0.00000000  0.00000000  0.00000000
%endblock BandLines
************************** End of input data file *****************************

reinit: -----------------------------------------------------------------------
reinit: System Name: GRP_doping
reinit: -----------------------------------------------------------------------
reinit: System Label: GRP_doping                                                  
reinit: -----------------------------------------------------------------------

initatom: Reading input for the pseudopotentials and atomic orbitals ----------
 Species number:            1  Label: B Atomic number:           5
 Species number:            2  Label: C Atomic number:           6
Ground state valence configuration:   2s02  2p01
Reading pseudopotential information in formatted form from B.psf

Valence configuration for pseudopotential generation:
2s( 2.00) rc: 1.74
2p( 1.00) rc: 1.74
3d( 0.00) rc: 1.74
4f( 0.00) rc: 1.74
Ground state valence configuration:   2s02  2p02
Reading pseudopotential information in formatted form from C.psf

Valence configuration for pseudopotential generation:
2s( 2.00) rc: 1.54
2p( 2.00) rc: 1.54
3d( 0.00) rc: 1.54
4f( 0.00) rc: 1.54
For B, standard SIESTA heuristics set lmxkb to 3
 (one more than the basis l, including polarization orbitals).
Use PS.lmax or PS.KBprojectors blocks to override.
For C, standard SIESTA heuristics set lmxkb to 3
 (one more than the basis l, including polarization orbitals).
Use PS.lmax or PS.KBprojectors blocks to override.

<basis_specs>
===============================================================================
B                    Z=   5    Mass=  10.810        Charge= 0.17977+309
Lmxo=1 Lmxkb= 3    BasisType=split      Semic=F
L=0  Nsemic=0  Cnfigmx=2
          n=1  nzeta=2  polorb=0
            splnorm:   0.15000    
               vcte:    0.0000    
               rinn:    0.0000    
                rcs:    0.0000      0.0000    
            lambdas:    1.0000      1.0000    
L=1  Nsemic=0  Cnfigmx=2
          n=1  nzeta=2  polorb=1
            splnorm:   0.15000    
               vcte:    0.0000    
               rinn:    0.0000    
                rcs:    0.0000      0.0000    
            lambdas:    1.0000      1.0000    
-------------------------------------------------------------------------------
L=0  Nkbl=1  erefs: 0.17977+309
L=1  Nkbl=1  erefs: 0.17977+309
L=2  Nkbl=1  erefs: 0.17977+309
L=3  Nkbl=1  erefs: 0.17977+309
===============================================================================
</basis_specs>

atom: Called for B                     (Z =   5)

read_vps: Pseudopotential generation method:
read_vps: ATM3      Troullier-Martins                       
Total valence charge:    3.00000

read_vps: Pseudopotential includes a core correction:
read_vps: Pseudo-core for xc-correction

xc_check: Exchange-correlation functional:
xc_check: GGA Perdew, Burke & Ernzerhof 1996
V l=0 = -2*Zval/r beyond r=  1.7165
V l=1 = -2*Zval/r beyond r=  1.7165
V l=2 = -2*Zval/r beyond r=  1.7165
V l=3 = -2*Zval/r beyond r=  1.6951
All V_l potentials equal beyond r=  1.7165
This should be close to max(r_c) in ps generation
All pots = -2*Zval/r beyond r=  1.7165

VLOCAL1: 99.0% of the norm of Vloc inside     14.733 Ry
VLOCAL1: 99.9% of the norm of Vloc inside     33.577 Ry
atom: Maximum radius for 4*pi*r*r*local-pseudopot. charge    2.04484
atom: Maximum radius for r*vlocal+2*Zval:    1.75994
GHOST: No ghost state for L =  0
GHOST: No ghost state for L =  1
GHOST: No ghost state for L =  2
GHOST: No ghost state for L =  3

KBgen: Kleinman-Bylander projectors: 
   l= 0   rc=  1.897051   el= -0.693730   Ekb=  4.595746   kbcos=  0.286105
   l= 1   rc=  1.920920   el= -0.265236   Ekb= -2.350715   kbcos= -0.315747
   l= 2   rc=  2.044840   el=  0.002055   Ekb= -0.690767   kbcos= -0.013822
   l= 3   rc=  2.149707   el=  0.003188   Ekb= -0.315358   kbcos= -0.002055

KBgen: Total number of  Kleinman-Bylander projectors:   16
atom: -------------------------------------------------------------------------

atom: SANKEY-TYPE ORBITALS:
atom: Selected multiple-zeta basis: split     

SPLIT: Orbitals with angular momentum L= 0

SPLIT: Basis orbitals for state 2s

SPLIT: PAO cut-off radius determined from an
SPLIT: energy shift=  0.007350 Ry

   izeta = 1
                 lambda =    1.000000
                     rc =    5.422032
                 energy =   -0.686029
                kinetic =    0.576707
    potential(screened) =   -1.262736
       potential(ionic) =   -3.271094

   izeta = 2
                 rmatch =    4.222573
              splitnorm =    0.150000
                 energy =   -0.602132
                kinetic =    0.858975
    potential(screened) =   -1.461107
       potential(ionic) =   -3.582536

SPLIT: Orbitals with angular momentum L= 1

SPLIT: Basis orbitals for state 2p

SPLIT: PAO cut-off radius determined from an
SPLIT: energy shift=  0.007350 Ry

   izeta = 1
                 lambda =    1.000000
                     rc =    6.790259
                 energy =   -0.258578
                kinetic =    1.481412
    potential(screened) =   -1.739989
       potential(ionic) =   -3.657461

   izeta = 2
                 rmatch =    4.608740
              splitnorm =    0.150000
                 energy =   -0.173757
                kinetic =    2.186690
    potential(screened) =   -2.360447
       potential(ionic) =   -4.464260

POLgen: Perturbative polarization orbital with L=  2

POLgen: Polarization orbital for state 2p

   izeta = 1
                     rc =    6.790259
                 energy =    0.684082
                kinetic =    1.471481
    potential(screened) =   -0.787399
       potential(ionic) =   -2.406985
atom: Total number of Sankey-type orbitals: 13

atm_pop: Valence configuration (for local Pseudopot. screening):
 2s( 2.00)                                                            
 2p( 1.00)                                                            
Vna: chval, zval:    3.00000   3.00000

Vna:  Cut-off radius for the neutral-atom potential:   6.790259
comcore: Pseudo-core radius Rcore=  2.122997

atom: _________________________________________________________________________

<basis_specs>
===============================================================================
C                    Z=   6    Mass=  12.010        Charge= 0.17977+309
Lmxo=1 Lmxkb= 3    BasisType=split      Semic=F
L=0  Nsemic=0  Cnfigmx=2
          n=1  nzeta=2  polorb=0
            splnorm:   0.15000    
               vcte:    0.0000    
               rinn:    0.0000    
                rcs:    0.0000      0.0000    
            lambdas:    1.0000      1.0000    
L=1  Nsemic=0  Cnfigmx=2
          n=1  nzeta=2  polorb=1
            splnorm:   0.15000    
               vcte:    0.0000    
               rinn:    0.0000    
                rcs:    0.0000      0.0000    
            lambdas:    1.0000      1.0000    
-------------------------------------------------------------------------------
L=0  Nkbl=1  erefs: 0.17977+309
L=1  Nkbl=1  erefs: 0.17977+309
L=2  Nkbl=1  erefs: 0.17977+309
L=3  Nkbl=1  erefs: 0.17977+309
===============================================================================
</basis_specs>

atom: Called for C                     (Z =   6)

read_vps: Pseudopotential generation method:
read_vps: ATM3      Troullier-Martins                       
Total valence charge:    4.00000

read_vps: Pseudopotential includes a core correction:
read_vps: Pseudo-core for xc-correction

xc_check: Exchange-correlation functional:
xc_check: GGA Perdew, Burke & Ernzerhof 1996
V l=0 = -2*Zval/r beyond r=  1.5227
V l=1 = -2*Zval/r beyond r=  1.5227
V l=2 = -2*Zval/r beyond r=  1.5227
V l=3 = -2*Zval/r beyond r=  1.5038
All V_l potentials equal beyond r=  1.5227
This should be close to max(r_c) in ps generation
All pots = -2*Zval/r beyond r=  1.5227

VLOCAL1: 99.0% of the norm of Vloc inside     18.722 Ry
VLOCAL1: 99.9% of the norm of Vloc inside     42.668 Ry
atom: Maximum radius for 4*pi*r*r*local-pseudopot. charge    1.83678
atom: Maximum radius for r*vlocal+2*Zval:    1.58088
GHOST: No ghost state for L =  0
GHOST: No ghost state for L =  1
GHOST: No ghost state for L =  2
GHOST: No ghost state for L =  3

KBgen: Kleinman-Bylander projectors: 
   l= 0   rc=  1.704034   el= -1.009801   Ekb=  5.335044   kbcos=  0.316824
   l= 1   rc=  1.704034   el= -0.388707   Ekb= -3.785862   kbcos= -0.366464
   l= 2   rc=  1.791422   el=  0.001971   Ekb= -0.970471   kbcos= -0.009212
   l= 3   rc=  1.859892   el=  0.003065   Ekb= -0.399525   kbcos= -0.001223

KBgen: Total number of  Kleinman-Bylander projectors:   16
atom: -------------------------------------------------------------------------

atom: SANKEY-TYPE ORBITALS:
atom: Selected multiple-zeta basis: split     

SPLIT: Orbitals with angular momentum L= 0

SPLIT: Basis orbitals for state 2s

SPLIT: PAO cut-off radius determined from an
SPLIT: energy shift=  0.007350 Ry

   izeta = 1
                 lambda =    1.000000
                     rc =    4.632753
                 energy =   -1.002270
                kinetic =    0.855760
    potential(screened) =   -1.858031
       potential(ionic) =   -5.417575

   izeta = 2
                 rmatch =    3.431921
              splitnorm =    0.150000
                 energy =   -0.867111
                kinetic =    1.300804
    potential(screened) =   -2.167915
       potential(ionic) =   -5.962684

SPLIT: Orbitals with angular momentum L= 1

SPLIT: Basis orbitals for state 2p

SPLIT: PAO cut-off radius determined from an
SPLIT: energy shift=  0.007350 Ry

   izeta = 1
                 lambda =    1.000000
                     rc =    5.658549
                 energy =   -0.381140
                kinetic =    2.399701
    potential(screened) =   -2.780841
       potential(ionic) =   -6.206085

   izeta = 2
                 rmatch =    3.653288
              splitnorm =    0.150000
                 energy =   -0.249149
                kinetic =    3.542762
    potential(screened) =   -3.791911
       potential(ionic) =   -7.581078

POLgen: Perturbative polarization orbital with L=  2

POLgen: Polarization orbital for state 2p

   izeta = 1
                     rc =    5.658549
                 energy =    1.109913
                kinetic =    2.304789
    potential(screened) =   -1.194876
       potential(ionic) =   -4.013592
atom: Total number of Sankey-type orbitals: 13

atm_pop: Valence configuration (for local Pseudopot. screening):
 2s( 2.00)                                                            
 2p( 2.00)                                                            
Vna: chval, zval:    4.00000   4.00000

Vna:  Cut-off radius for the neutral-atom potential:   5.658549
comcore: Pseudo-core radius Rcore=  1.791422

atom: _________________________________________________________________________

prinput: Basis input ----------------------------------------------------------

PAO.BasisType split     

%block ChemicalSpeciesLabel
    1    5 B                       # Species index, atomic number, species label
    2    6 C                       # Species index, atomic number, species label
%endblock ChemicalSpeciesLabel

%block PAO.Basis                 # Define Basis set
B                     2                    # Species label, number of l-shells
 n=2   0   2                         # n, l, Nzeta 
   5.422      4.223   
   1.000      1.000   
 n=2   1   2 P   1                   # n, l, Nzeta, Polarization, NzetaPol
   6.790      4.609   
   1.000      1.000   
C                     2                    # Species label, number of l-shells
 n=2   0   2                         # n, l, Nzeta 
   4.633      3.432   
   1.000      1.000   
 n=2   1   2 P   1                   # n, l, Nzeta, Polarization, NzetaPol
   5.659      3.653   
   1.000      1.000   
%endblock PAO.Basis

prinput: ----------------------------------------------------------------------

coor:   Atomic-coordinates input format  =     Fractional

siesta: Atomic coordinates (Bohr) and species
siesta:      2.30256   9.31683   0.00000  1        1
siesta:      9.28770  21.41544   0.00000  1        2
siesta:     -0.02582  10.66124   0.00000  1        3
siesta:     -0.02582  13.34970   0.00000  1        4
siesta:      4.63094  21.41544   0.00000  1        5
siesta:      6.95932  22.75985   0.00000  1        6
siesta:     -2.35420  14.69411   0.00000  1        7
siesta:     -2.35420  17.38257   0.00000  1        8
siesta:     -0.02582  18.72698   0.00000  1        9
siesta:     -0.02582  21.41544   0.00000  1       10
siesta:      2.30256  22.75985   0.00000  1       11
siesta:     -4.68258  21.41544   0.00000  1       12
siesta:     -9.33934  21.41544   0.00000  1       13
siesta:     -7.01096  22.75985   0.00000  1       14
siesta:    -11.66772  22.75985   0.00000  1       15
siesta:     -0.02582   2.59549   0.00000  2       16
siesta:     -0.02582   5.28395   0.00000  2       17
siesta:     -2.35420  38.89134   0.00000  2       18
siesta:     -2.35420  41.57980   0.00000  2       19
siesta:      2.30256  38.89134   0.00000  2       20
siesta:      2.30256  41.57980   0.00000  2       21
siesta:      4.63094  34.85847   0.00000  2       22
siesta:      4.63094  37.54693   0.00000  2       23
siesta:      6.95932  30.82560   0.00000  2       24
siesta:      6.95932  33.51406   0.00000  2       25
siesta:      9.28770  26.79272   0.00000  2       26
siesta:      9.28770  29.48119   0.00000  2       27
siesta:     -4.68258  34.85847   0.00000  2       28
siesta:     -4.68258  37.54693   0.00000  2       29
siesta:      2.30256   6.62836   0.00000  2       30
siesta:      4.63094  10.66124   0.00000  2       31
siesta:      4.63094  13.34970   0.00000  2       32
siesta:      6.95932  14.69411   0.00000  2       33
siesta:      6.95932  17.38257   0.00000  2       34
siesta:      9.28770  18.72698   0.00000  2       35
siesta:     11.61608  22.75985   0.00000  2       36
siesta:     11.61608  25.44831   0.00000  2       37
siesta:     -2.35420   6.62836   0.00000  2       38
siesta:     -2.35420   9.31683   0.00000  2       39
siesta:      2.30256  14.69411   0.00000  2       40
siesta:      2.30256  17.38257   0.00000  2       41
siesta:      4.63094  18.72698   0.00000  2       42
siesta:      6.95932  25.44831   0.00000  2       43
siesta:     -4.68258  10.66124   0.00000  2       44
siesta:     -4.68258  13.34970   0.00000  2       45
siesta:      2.30256  25.44831   0.00000  2       46
siesta:     -7.01096  14.69411   0.00000  2       47
siesta:     -7.01096  17.38257   0.00000  2       48
siesta:     -4.68258  18.72698   0.00000  2       49
siesta:     -2.35420  22.75985   0.00000  2       50
siesta:     -2.35420  25.44831   0.00000  2       51
siesta:     -9.33934  18.72698   0.00000  2       52
siesta:     -7.01096  25.44831   0.00000  2       53
siesta:    -11.66772  25.44831   0.00000  2       54
siesta:     -9.33934  26.79272   0.00000  2       55
siesta:     -9.33934  29.48119   0.00000  2       56
siesta:      4.63094  26.79272   0.00000  2       57
siesta:      4.63094  29.48119   0.00000  2       58
siesta:     -0.02582  26.79272   0.00000  2       59
siesta:     -0.02582  29.48119   0.00000  2       60
siesta:     -4.68258  26.79272   0.00000  2       61
siesta:     -4.68258  29.48119   0.00000  2       62
siesta:      2.30256  30.82560   0.00000  2       63
siesta:      2.30256  33.51406   0.00000  2       64
siesta:     -2.35420  30.82560   0.00000  2       65
siesta:     -2.35420  33.51406   0.00000  2       66
siesta:     -7.01096  30.82560   0.00000  2       67
siesta:     -7.01096  33.51406   0.00000  2       68
siesta:     -0.02582  34.85847   0.00000  2       69
siesta:     -0.02582  37.54693   0.00000  2       70
siesta:     -0.02582  42.92421   0.00000  2       71
siesta:     -0.02582  45.61267   0.00000  2       72

siesta: System type = slab      

initatomlists: Number of atoms, orbitals, and projectors:     72   936  1152

siesta: ******************** Simulation parameters ****************************
siesta:
siesta: The following are some of the parameters of the simulation.
siesta: A complete list of the parameters used, including default values,
siesta: can be found in file out.fdf
siesta:
redata: Non-Collinear-spin run           =     F
redata: SpinPolarized (Up/Down) run      =     F
redata: Number of spin components        =     1
redata: Long output                      =     F
redata: Number of Atomic Species         =        2
redata: Charge density info will appear in .RHO file
redata: Write Mulliken Pop.              =     NO
redata: Mesh Cutoff                      =   200.0000  Ry
redata: Net charge of the system         =     0.0000 |e|
redata: Max. number of SCF Iter          =      500
redata: SCF convergence failure will abort job
redata: Performing Pulay mixing using    =    10 iterations
redata: Mix DM in first SCF step ?       =     F
redata: Write Pulay info on disk?        =     F
redata: Discard 1st Pulay DM after  kick =     F
redata: New DM Mixing Weight             =     0.0500
redata: New DM Occupancy tolerance       = 0.000000000001
redata: No kicks to SCF
redata: DM Mixing Weight for Kicks       =     0.5000
redata: DM Tolerance for SCF             =     0.000100
redata: Require Energy convergence for SCF =     F
redata: DM Energy tolerance for SCF      =     0.000100 eV
redata: Require Harris convergence for SCF =     F
redata: DM Harris energy tolerance for SCF =     0.000100 eV
redata: Using Saved Data (generic)   =     F
redata: Use continuation files for DM    =     T
redata: Neglect nonoverlap interactions  =     F
redata: Method of Calculation            =     Diagonalization
redata: Divide and Conquer               =     T
redata: Electronic Temperature           =     0.0019  Ry
redata: Fix the spin of the system       =     F
redata: Dynamics option                  =     Verlet MD run
redata: Initial MD time step             =        1
redata:   Final MD time step             =        1
redata: Length of MD time step           =     1.0000  fs
redata: Initial Temperature of MD run    =     0.0000  K
redata: Perform a MD quench              =     F
redata: ***********************************************************************
Total number of electrons:   273.000000
Total ionic charge:   273.000000

* ProcessorY, Blocksize:    3  24

k-point displ. along   1 input, could be:     0.50    0.00
k-point displ. along   2 input, could be:     0.50    0.00
 Kpoints in:          231 . Kpoints trimmed:          231

siesta: k-grid: Number of k-points =   231
siesta: k-grid: Cutoff (effective) =     5.000 Ang
siesta: k-grid: Supercell and displacements
siesta: k-grid:   21   0   0      0.500
siesta: k-grid:    0  21   0      0.500
siesta: k-grid:    0   0   1      0.000
Naive supercell factors:     2    2    2

superc: Internal auxiliary supercell:     2 x     2 x     2  =       8
superc: Number of atoms, orbitals, and projectors:    576   7488   9216

* Maximum dynamic memory allocated =     4 MB

siesta:                 ==============================
                            Begin MD step =      1
                        ==============================

superc: Internal auxiliary supercell:     2 x     2 x     2  =       8
superc: Number of atoms, orbitals, and projectors:    576   7488   9216

outcell: Unit cell vectors (Ang):
       12.804619    7.392750    0.000000
        0.000000   14.785500    0.000000
        0.000000    0.000000   10.000000

outcell: Cell vector modules (Ang)   :   14.785500   14.785500   10.000000
outcell: Cell angles (23,13,12) (deg):     90.0000     90.0000     60.0000
outcell: Cell volume (Ang**3)        :   1893.2269
New_DM. Step:     1
Initializing Density Matrix...

InitMesh: MESH =   120 x   120 x    90 =     1296000
InitMesh: Mesh cutoff (required, used) =   200.000   223.865 Ry

* Maximum dynamic memory allocated =   155 MB

stepf: Fermi-Dirac step function

siesta: Program's energy decomposition (eV):
siesta: Ebs     =     -5616.383575
siesta: Eions   =     16482.160403
siesta: Ena     =      4361.311337
siesta: Ekin    =      5587.107004
siesta: Enl     =       764.543814
siesta: DEna    =        -0.000010
siesta: DUscf   =         0.000000
siesta: DUext   =         0.000000
siesta: Exc     =     -4188.765582
siesta: eta*DQ  =         0.000000
siesta: Emadel  =         0.000000
siesta: Emeta   =         0.000000
siesta: Emolmec =         0.000000
siesta: Ekinion =         0.000000
siesta: Eharris =     -9710.481083
siesta: Etot    =     -9957.963840
siesta: FreeEng =     -9957.963840

siesta: iscf   Eharris(eV)      E_KS(eV)   FreeEng(eV)   dDmax  Ef(eV)
siesta:    1    -9710.4811    -9957.9638    -9957.9638  7.1096 -8.2675
timer: Routine,Calls,Time,% = IterSCF        1    3056.620  99.59
elaps: Routine,Calls,Wall,% = IterSCF        1     255.323  99.59
siesta:    2   -13780.8628    -8997.0348    -8997.0918 17.1291 -2.9642
siesta:    3    -9682.7589    -9785.7319    -9785.7711  2.5758 -5.7711
siesta:    4    -9634.9606    -9701.8347    -9701.8919  1.4052 -5.5516
siesta:    5    -9587.3290    -9618.0739    -9618.1201  1.1686 -5.1324
siesta:    6    -9571.0279    -9592.8071    -9592.8541  1.0959 -4.9169
siesta:    7    -9560.2398    -9571.1205    -9571.1888  0.6817 -5.1191
siesta:    8    -9558.2534    -9564.1620    -9564.2063  0.7485 -5.1758
siesta:    9    -9557.1200    -9561.5244    -9561.5726  0.6934 -5.2079
siesta:   10    -9556.8051    -9547.8767    -9547.9253  0.4973 -5.1825
siesta:   11    -9556.3883    -9542.5292    -9542.5625  0.3173 -5.1330
siesta:   12    -9555.7271    -9538.3039    -9538.3387  0.2030 -5.1132
siesta:   13    -9555.5434    -9538.1134    -9538.1484  0.1736 -5.1374
siesta:   14    -9555.0081    -9542.1189    -9542.1639  0.1479 -5.1451
siesta:   15    -9554.8481    -9544.5803    -9544.6305  0.1816 -5.1193
siesta:   16    -9554.6979    -9546.7429    -9546.7837  0.1511 -5.1374
siesta:   17    -9554.6479    -9549.4068    -9549.4527  0.0498 -5.1406
siesta:   18    -9554.6429    -9550.9158    -9550.9528  0.0461 -5.1523
siesta:   19    -9554.6101    -9551.6913    -9551.7348  0.0327 -5.1586
siesta:   20    -9554.5987    -9553.6171    -9553.6593  0.0159 -5.1756
siesta:   21    -9554.5948    -9554.3410    -9554.3852  0.0129 -5.1770
siesta:   22    -9554.5934    -9554.6127    -9554.6560  0.0139 -5.1752
siesta:   23    -9554.5933    -9554.7268    -9554.7706  0.0105 -5.1669
siesta:   24    -9554.5931    -9554.8992    -9554.9422  0.0069 -5.1616
siesta:   25    -9554.5924    -9554.8560    -9554.8990  0.0050 -5.1617
siesta:   26    -9554.5922    -9554.6959    -9554.7391  0.0029 -5.1617
siesta:   27    -9554.5919    -9554.6807    -9554.7239  0.0027 -5.1619
siesta:   28    -9554.5919    -9554.6891    -9554.7325  0.0020 -5.1620
siesta:   29    -9554.5919    -9554.6745    -9554.7179  0.0017 -5.1621
siesta:   30    -9554.5919    -9554.6264    -9554.6698  0.0006 -5.1625
siesta:   31    -9554.5919    -9554.6255    -9554.6689  0.0006 -5.1625
siesta:   32    -9554.5919    -9554.6243    -9554.6676  0.0003 -5.1625
siesta:   33    -9554.5919    -9554.6123    -9554.6557  0.0002 -5.1624
siesta:   34    -9554.5919    -9554.6023    -9554.6456  0.0001 -5.1624

siesta: E_KS(eV) =            -9554.5999

siesta: E_KS - E_eggbox =     -9554.5999

siesta: Atomic forces (eV/Ang):
----------------------------------------
   Tot   -0.087606   -0.058651    0.000000
----------------------------------------
   Max  563.881803
   Res  148.385924    sqrt( Sum f_i^2 / 3N )
----------------------------------------
   Max  563.881803    constrained

Stress-tensor-Voigt (kbar):     -741.26    -2683.42       -0.53        7.50        0.00        0.00
(Free)E + p*V (eV/cell)    -8205.5148
Target enthalpy (eV/cell)    -9554.6433

siesta: Stress tensor (static) (eV/Ang**3):
        -0.462651    0.004679    0.000000
         0.004680   -1.674840    0.000000
         0.000000    0.000000   -0.000333

siesta: Pressure (static):       1141.73614922  kBar

siesta: Stress tensor (total) (eV/Ang**3):
        -0.462651    0.004679    0.000000
         0.004680   -1.674840    0.000000
         0.000000    0.000000   -0.000333

siesta: Pressure (total):       1141.73614922  kBar

siesta: Temp_ion =       0.000 K

* Maximum dynamic memory allocated =   166 MB
Computing bands...

siesta: Program's energy decomposition (eV):
siesta: Ebs     =     -4261.574073
siesta: Eions   =     16482.160403
siesta: Ena     =      4361.311337
siesta: Ekin    =      8454.250683
siesta: Enl     =      -858.756643
siesta: DEna    =      -776.554575
siesta: DUscf   =       104.741906
siesta: DUext   =         0.000000
siesta: Exc     =     -4357.432253
siesta: eta*DQ  =         0.000000
siesta: Emadel  =         0.000000
siesta: Emeta   =         0.000000
siesta: Emolmec =         0.000000
siesta: Ekinion =         0.000000
siesta: Eharris =     -9554.591879
siesta: Etot    =     -9554.599949
siesta: FreeEng =     -9554.643287

siesta: Final energy (eV):
siesta:  Band Struct. =   -4261.574073
siesta:       Kinetic =    8454.250683
siesta:       Hartree =   27545.785598
siesta:    Ext. field =       0.000000
siesta:   Exch.-corr. =   -4357.432253
siesta:  Ion-electron =  -63246.702986
siesta:       Ion-ion =   22049.499008
siesta:       Ekinion =       0.000000
siesta:         Total =   -9554.599949

siesta: Atomic forces (eV/Ang):
siesta:      1   -6.309151 -104.859814    0.000000
siesta:      2    8.210445   -4.470689    0.000000
siesta:      3    3.278178  383.009233    0.000000
siesta:      4   -2.967282 -106.790857    0.000000
siesta:      5   -0.504720   -6.323858    0.000000
siesta:      6   -1.343814    6.327395    0.000000
siesta:      7  -18.363480  395.973093    0.000000
siesta:      8  -19.934077    1.284593    0.000000
siesta:      9   -1.305816  411.035860    0.000000
siesta:     10   -3.005736   -0.579311    0.000000
siesta:     11    0.439364    6.774572    0.000000
siesta:     12    4.127906   -2.881216    0.000000
siesta:     13   -4.105791   -7.029978    0.000000
siesta:     14    0.255343    5.454131    0.000000
siesta:     15   -6.166477    3.850287    0.000000
siesta:     16   -0.058711  549.371664    0.000000
siesta:     17    0.404715 -125.836300    0.000000
siesta:     18    1.531055  123.222800    0.000000
siesta:     19  -17.579086 -401.289557    0.000000
siesta:     20    0.097489  132.174487    0.000000
siesta:     21   26.290106 -557.240397    0.000000
siesta:     22   23.916129    5.759622    0.000000
siesta:     23   38.425267 -549.315981    0.000000
siesta:     24    1.670343    0.355904    0.000000
siesta:     25   -2.152249    2.147650    0.000000
siesta:     26    2.058789    2.602646    0.000000
siesta:     27   -0.519453   -0.010199    0.000000
siesta:     28  -27.350344    4.712241    0.000000
siesta:     29  -37.479141 -551.015981    0.000000
siesta:     30   12.243460  545.647680    0.000000
siesta:     31   25.528922  542.590725    0.000000
siesta:     32   25.608733   -5.482248    0.000000
siesta:     33   -2.068285   -1.561374    0.000000
siesta:     34    3.359682   -1.860198    0.000000
siesta:     35   -2.780061   -4.087632    0.000000
siesta:     36    1.740781    8.451830    0.000000
siesta:     37    0.064168   -6.032200    0.000000
siesta:     38   -9.746165  547.275325    0.000000
siesta:     39    8.006044 -116.163098    0.000000
siesta:     40   14.412445  555.376657    0.000000
siesta:     41   23.224796   -2.901173    0.000000
siesta:     42   -2.586937   -2.092102    0.000000
siesta:     43   -0.479363    3.131013    0.000000
siesta:     44  -29.161997  549.284497    0.000000
siesta:     45  -24.506914    0.584262    0.000000
siesta:     46   -1.024607    3.547097    0.000000
siesta:     47    2.023402   -2.222328    0.000000
siesta:     48   -3.544105   -1.933241    0.000000
siesta:     49   -0.011612   -1.864385    0.000000
siesta:     50    0.959890    4.968039    0.000000
siesta:     51    0.529411   -0.279312    0.000000
siesta:     52    2.841957   -1.880322    0.000000
siesta:     53    1.241864    3.148751    0.000000
siesta:     54    0.044101    0.065518    0.000000
siesta:     55   -2.856855    2.261610    0.000000
siesta:     56    0.545525   -0.363640    0.000000
siesta:     57    0.862409    0.716624    0.000000
siesta:     58   -1.009569   -1.661154    0.000000
siesta:     59    0.453009   -0.945025    0.000000
siesta:     60   -0.286845 -563.881803    0.000000
siesta:     61   -1.166676    0.289368    0.000000
siesta:     62    0.880317   -1.562941    0.000000
siesta:     63   22.044692    5.355499    0.000000
siesta:     64   25.379696 -562.503502    0.000000
siesta:     65  -21.934829    5.357311    0.000000
siesta:     66  -26.916278 -557.563046    0.000000
siesta:     67   -1.353234    0.493715    0.000000
siesta:     68    2.808669    1.937005    0.000000
siesta:     69    2.763181  126.272940    0.000000
siesta:     70   -2.432679 -402.603061    0.000000
siesta:     71   -8.343519  124.513070    0.000000
siesta:     72    2.995970 -408.295440    0.000000
siesta: ----------------------------------------
siesta:    Tot   -0.087606   -0.058651    0.000000

siesta: Stress tensor (static) (eV/Ang**3):
siesta:    -0.462651    0.004679    0.000000
siesta:     0.004680   -1.674840    0.000000
siesta:     0.000000    0.000000   -0.000333

siesta: Cell volume =       1893.226884 Ang**3

siesta: Pressure (static):
siesta:                Solid            Molecule  Units
siesta:           0.00776121          0.11410838  Ry/Bohr**3
siesta:           0.71260795         10.47704309  eV/Ang**3
siesta:        1141.73614922      16786.25508028  kBar
(Free)E+ p_basis*V_orbitals  =       -9519.166368
(Free)Eharris+ p_basis*V_orbitals  =       -9519.155957

siesta: Electric dipole (a.u.)  =    0.000000    0.000000    0.000000
siesta: Electric dipole (Debye) =    0.000000    0.000000    0.000000

* Maximum dynamic memory allocated : Node    0 =   164 MB
* Maximum dynamic memory allocated : Node    1 =    65 MB
* Maximum dynamic memory allocated : Node    2 =    66 MB
* Maximum dynamic memory allocated : Node    3 =   151 MB
* Maximum dynamic memory allocated : Node    4 =   166 MB
* Maximum dynamic memory allocated : Node    5 =    61 MB
* Maximum dynamic memory allocated : Node    6 =    62 MB
* Maximum dynamic memory allocated : Node    7 =   157 MB
* Maximum dynamic memory allocated : Node    8 =   153 MB
* Maximum dynamic memory allocated : Node    9 =    61 MB
* Maximum dynamic memory allocated : Node   10 =    62 MB
* Maximum dynamic memory allocated : Node   11 =   145 MB

* Maximum memory occured during matrixMtoO                    

timer: CPU execution times:
timer:  Routine       Calls   Time/call    Tot.time        %
timer:  siesta            1  101331.292  101331.292   100.00
timer:  Setup             1       3.338       3.338     0.00
timer:  bands             3     225.932     677.796     0.67
timer:  writewave         1       0.023       0.023     0.00
timer:  KSV_init          1       0.004       0.004     0.00
timer:  IterMD            1  100643.260  100643.260    99.32
timer:  hsparse           1       0.280       0.280     0.00
timer:  overlap           1       7.205       7.205     0.01
timer:  IterSCF          34    2955.340  100481.545    99.16
timer:  kinefsm           2       3.672       7.344     0.01
timer:  nlefsm            2      20.401      40.801     0.04
timer:  DHSCF            35      85.203    2982.111     2.94
timer:  DHSCF1            1       1.195       1.195     0.00
timer:  DHSCF2            1      33.284      33.284     0.03
timer:  REORD           282       0.002       0.607     0.00
timer:  POISON           36       0.451      16.219     0.02
timer:  DHSCF3           35      83.421    2919.731     2.88
timer:  rhoofd           35      16.909     591.802     0.58
timer:  cellXC           35       2.451      85.775     0.08
timer:  vmat             35      41.710    1459.850     1.44
timer:  MolMec            2       0.000       0.000     0.00
timer:  diagon           34    2868.931   97543.668    96.26
timer:  c-eigval       7975       5.596   44624.344    44.04
timer:  c-buildHS      7975       0.036     288.255     0.28
timer:  cdiag         15829       5.694   90130.366    88.95
timer:  cdiag1        15829       0.260    4122.329     4.07
timer:  cdiag2        15829       1.826   28905.541    28.53
timer:  cdiag3        15829       3.395   53734.166    53.03
timer:  cdiag4        15829       0.087    1373.553     1.36
timer:  c-eigvec       7854       5.861   46032.362    45.43
timer:  c-buildD       7854       0.958    7521.771     7.42
timer:  DHSCF4            1      27.660      27.660     0.03
timer:  dfscf             1      25.560      25.560     0.03
timer:  overfsm           1       0.325       0.325     0.00
timer:  optical           1       6.296       6.296     0.01
  

elaps: ELAPSED times:
elaps:  Routine       Calls   Time/call    Tot.time        %
elaps:  siesta            1    8464.149    8464.149   100.00
elaps:  Setup             1       0.277       0.277     0.00
elaps:  bands             3      18.887      56.661     0.67
elaps:  writewave         1       0.002       0.002     0.00
elaps:  KSV_init          1       0.000       0.000     0.00
elaps:  IterMD            1    8406.680    8406.680    99.32
elaps:  hsparse           1       0.027       0.027     0.00
elaps:  overlap           1       0.716       0.716     0.01
elaps:  IterSCF          34     246.858    8393.172    99.16
elaps:  kinefsm           2       0.367       0.733     0.01
elaps:  nlefsm            2       1.829       3.658     0.04
elaps:  DHSCF            35       7.174     251.079     2.97
elaps:  DHSCF1            1       0.102       0.102     0.00
elaps:  DHSCF2            1       2.779       2.779     0.03
elaps:  REORD           282       0.000       0.084     0.00
elaps:  POISON           36       0.038       1.373     0.02
elaps:  DHSCF3           35       6.970     243.938     2.88
elaps:  rhoofd           35       2.755      96.420     1.14
elaps:  cellXC           35       0.204       7.146     0.08
elaps:  vmat             35       3.485     121.990     1.44
elaps:  MolMec            2       0.000       0.000     0.00
elaps:  diagon           34     239.647    8148.007    96.26
elaps:  c-eigval       7975       0.467    3727.390    44.04
elaps:  c-buildHS      7975       0.004      30.485     0.36
elaps:  cdiag         15829       0.470    7445.544    87.97
elaps:  cdiag1        15829       0.021     337.401     3.99
elaps:  cdiag2        15829       0.153    2416.650    28.55
elaps:  cdiag3        15829       0.284    4494.714    53.10
elaps:  cdiag4        15829       0.007     109.938     1.30
elaps:  c-eigvec       7854       0.481    3774.037    44.59
elaps:  c-buildD       7854       0.089     699.190     8.26
elaps:  DHSCF4            1       4.222       4.222     0.05
elaps:  dfscf             1       3.969       3.969     0.05
elaps:  overfsm           1       0.034       0.034     0.00
elaps:  optical           1       0.000       0.000     0.00
  
>> End of run:   3-MAY-2016  11:28:00
