Siesta Version:                                        siesta-3.2-pl-3
Architecture  : x86_64-unknown-linux-gnu--unknown
Compiler flags: mpiifort -g -O2 -fPIC -xSSE4.1 -fp-model source -shared-intel 
PARALLEL version

* Running on    8 nodes in parallel
>> Start of run:  30-APR-2016   3:34:01

                           ***********************       
                           *  WELCOME TO SIESTA  *       
                           ***********************       

reinit: Reading from standard input
************************** Dump of input data file ****************************
#(1) General system descriptors
SystemName            GRP_doping    # Descriptive name of the system
SystemLabel           GRP_doping    # Short name for naming files
%include STRUCT.fdf
%include KPT.fdf
%include BASIS.fdf
#%include TS.fdf # for transiesta calculation
#(4) DFT, Grid, SCF
XC.functional         GGA           # LDA or GGA (default = LDA)
XC.authors            PBE           # CA (Ceperley-Aldr) = PZ
                                    #    (Perdew-Zunger) - LDA - Default
                                    # PW92 (Perdew-Wang-92) - LDA
                                    # PBE (Perdew-Burke-Ernzerhof) - GGA
MeshCutoff            200.000000    Ry      # Default: 50.0 Ry ~ 0.444 Bohr
                                    #         100.0 Ry ~ 0.314 Bohr
MaxSCFIterations      500           # Default: 50
DM.MixingWeight       0.05          # Default: 0.25
DM.NumberPulay        10            # Default: 0
DM.PulayOnFile        F             # SystemLabel.P1, SystemLabel.P2
DM.Tolerance          1.d-4         # Default: 1.d-4
DM.UseSaveDM          .true.        # because of the bug
SCFMustConverge       .true.
NeglNonOverlapInt     F             # Default: F
#(5) Eigenvalue problem: order-N or diagonalization
SolutionMethod        Diagon        # or Transiesta
ElectronicTemperature 300.0 K       # Default: 300.0 K
#(6) Molecular dynamics and relaxations
#MD.TypeOfRun          CG            # Type of dynamics:
#MD.VariableCell       F
#MD.NumCGsteps         0           # 0 for single-point / 100 for gopt
#MD.MaxCGDispl         0.2 Bohr      # Default: 0.2 Bohr
#MD.MaxForceTol        0.02 eV/Ang   # Default: 0.04 eV/Ang
#MD.MaxStressTol       1.0 GPa       # Default: 1.0 GPa
# Geometry Constraints
#%block GeometryConstraints
#	position from 1 to 44
#%endblock GeometryConstraints
BandLinesScale   pi/a
%block BandLines
 1   0.00000000  0.00000000  0.00000000
50   0.00000000  0.07809418  0.00000000
50   0.04509075  0.07809242  0.00000000
20   0.00000000  0.00000000  0.00000000
%endblock BandLines
************************** End of input data file *****************************

reinit: -----------------------------------------------------------------------
reinit: System Name: GRP_doping
reinit: -----------------------------------------------------------------------
reinit: System Label: GRP_doping                                                  
reinit: -----------------------------------------------------------------------

initatom: Reading input for the pseudopotentials and atomic orbitals ----------
 Species number:            1  Label: B Atomic number:           5
 Species number:            2  Label: C Atomic number:           6
Ground state valence configuration:   2s02  2p01
Reading pseudopotential information in formatted form from B.psf

Valence configuration for pseudopotential generation:
2s( 2.00) rc: 1.74
2p( 1.00) rc: 1.74
3d( 0.00) rc: 1.74
4f( 0.00) rc: 1.74
Ground state valence configuration:   2s02  2p02
Reading pseudopotential information in formatted form from C.psf

Valence configuration for pseudopotential generation:
2s( 2.00) rc: 1.54
2p( 2.00) rc: 1.54
3d( 0.00) rc: 1.54
4f( 0.00) rc: 1.54
For B, standard SIESTA heuristics set lmxkb to 3
 (one more than the basis l, including polarization orbitals).
Use PS.lmax or PS.KBprojectors blocks to override.
For C, standard SIESTA heuristics set lmxkb to 3
 (one more than the basis l, including polarization orbitals).
Use PS.lmax or PS.KBprojectors blocks to override.

<basis_specs>
===============================================================================
B                    Z=   5    Mass=  10.810        Charge= 0.17977+309
Lmxo=1 Lmxkb= 3    BasisType=split      Semic=F
L=0  Nsemic=0  Cnfigmx=2
          n=1  nzeta=2  polorb=0
            splnorm:   0.15000    
               vcte:    0.0000    
               rinn:    0.0000    
                rcs:    0.0000      0.0000    
            lambdas:    1.0000      1.0000    
L=1  Nsemic=0  Cnfigmx=2
          n=1  nzeta=2  polorb=1
            splnorm:   0.15000    
               vcte:    0.0000    
               rinn:    0.0000    
                rcs:    0.0000      0.0000    
            lambdas:    1.0000      1.0000    
-------------------------------------------------------------------------------
L=0  Nkbl=1  erefs: 0.17977+309
L=1  Nkbl=1  erefs: 0.17977+309
L=2  Nkbl=1  erefs: 0.17977+309
L=3  Nkbl=1  erefs: 0.17977+309
===============================================================================
</basis_specs>

atom: Called for B                     (Z =   5)

read_vps: Pseudopotential generation method:
read_vps: ATM3      Troullier-Martins                       
Total valence charge:    3.00000

read_vps: Pseudopotential includes a core correction:
read_vps: Pseudo-core for xc-correction

xc_check: Exchange-correlation functional:
xc_check: GGA Perdew, Burke & Ernzerhof 1996
V l=0 = -2*Zval/r beyond r=  1.7165
V l=1 = -2*Zval/r beyond r=  1.7165
V l=2 = -2*Zval/r beyond r=  1.7165
V l=3 = -2*Zval/r beyond r=  1.6951
All V_l potentials equal beyond r=  1.7165
This should be close to max(r_c) in ps generation
All pots = -2*Zval/r beyond r=  1.7165

VLOCAL1: 99.0% of the norm of Vloc inside     14.733 Ry
VLOCAL1: 99.9% of the norm of Vloc inside     33.577 Ry
atom: Maximum radius for 4*pi*r*r*local-pseudopot. charge    2.04484
atom: Maximum radius for r*vlocal+2*Zval:    1.75994
GHOST: No ghost state for L =  0
GHOST: No ghost state for L =  1
GHOST: No ghost state for L =  2
GHOST: No ghost state for L =  3

KBgen: Kleinman-Bylander projectors: 
   l= 0   rc=  1.897051   el= -0.693730   Ekb=  4.595746   kbcos=  0.286105
   l= 1   rc=  1.920920   el= -0.265236   Ekb= -2.350715   kbcos= -0.315747
   l= 2   rc=  2.044840   el=  0.002055   Ekb= -0.690767   kbcos= -0.013822
   l= 3   rc=  2.149707   el=  0.003188   Ekb= -0.315358   kbcos= -0.002055

KBgen: Total number of  Kleinman-Bylander projectors:   16
atom: -------------------------------------------------------------------------

atom: SANKEY-TYPE ORBITALS:
atom: Selected multiple-zeta basis: split     

SPLIT: Orbitals with angular momentum L= 0

SPLIT: Basis orbitals for state 2s

SPLIT: PAO cut-off radius determined from an
SPLIT: energy shift=  0.007350 Ry

   izeta = 1
                 lambda =    1.000000
                     rc =    5.422032
                 energy =   -0.686029
                kinetic =    0.576707
    potential(screened) =   -1.262736
       potential(ionic) =   -3.271094

   izeta = 2
                 rmatch =    4.222573
              splitnorm =    0.150000
                 energy =   -0.602132
                kinetic =    0.858975
    potential(screened) =   -1.461107
       potential(ionic) =   -3.582536

SPLIT: Orbitals with angular momentum L= 1

SPLIT: Basis orbitals for state 2p

SPLIT: PAO cut-off radius determined from an
SPLIT: energy shift=  0.007350 Ry

   izeta = 1
                 lambda =    1.000000
                     rc =    6.790259
                 energy =   -0.258578
                kinetic =    1.481412
    potential(screened) =   -1.739989
       potential(ionic) =   -3.657461

   izeta = 2
                 rmatch =    4.608740
              splitnorm =    0.150000
                 energy =   -0.173757
                kinetic =    2.186690
    potential(screened) =   -2.360447
       potential(ionic) =   -4.464260

POLgen: Perturbative polarization orbital with L=  2

POLgen: Polarization orbital for state 2p

   izeta = 1
                     rc =    6.790259
                 energy =    0.684082
                kinetic =    1.471481
    potential(screened) =   -0.787399
       potential(ionic) =   -2.406985
atom: Total number of Sankey-type orbitals: 13

atm_pop: Valence configuration (for local Pseudopot. screening):
 2s( 2.00)                                                            
 2p( 1.00)                                                            
Vna: chval, zval:    3.00000   3.00000

Vna:  Cut-off radius for the neutral-atom potential:   6.790259
comcore: Pseudo-core radius Rcore=  2.122997

atom: _________________________________________________________________________

<basis_specs>
===============================================================================
C                    Z=   6    Mass=  12.010        Charge= 0.17977+309
Lmxo=1 Lmxkb= 3    BasisType=split      Semic=F
L=0  Nsemic=0  Cnfigmx=2
          n=1  nzeta=2  polorb=0
            splnorm:   0.15000    
               vcte:    0.0000    
               rinn:    0.0000    
                rcs:    0.0000      0.0000    
            lambdas:    1.0000      1.0000    
L=1  Nsemic=0  Cnfigmx=2
          n=1  nzeta=2  polorb=1
            splnorm:   0.15000    
               vcte:    0.0000    
               rinn:    0.0000    
                rcs:    0.0000      0.0000    
            lambdas:    1.0000      1.0000    
-------------------------------------------------------------------------------
L=0  Nkbl=1  erefs: 0.17977+309
L=1  Nkbl=1  erefs: 0.17977+309
L=2  Nkbl=1  erefs: 0.17977+309
L=3  Nkbl=1  erefs: 0.17977+309
===============================================================================
</basis_specs>

atom: Called for C                     (Z =   6)

read_vps: Pseudopotential generation method:
read_vps: ATM3      Troullier-Martins                       
Total valence charge:    4.00000

read_vps: Pseudopotential includes a core correction:
read_vps: Pseudo-core for xc-correction

xc_check: Exchange-correlation functional:
xc_check: GGA Perdew, Burke & Ernzerhof 1996
V l=0 = -2*Zval/r beyond r=  1.5227
V l=1 = -2*Zval/r beyond r=  1.5227
V l=2 = -2*Zval/r beyond r=  1.5227
V l=3 = -2*Zval/r beyond r=  1.5038
All V_l potentials equal beyond r=  1.5227
This should be close to max(r_c) in ps generation
All pots = -2*Zval/r beyond r=  1.5227

VLOCAL1: 99.0% of the norm of Vloc inside     18.722 Ry
VLOCAL1: 99.9% of the norm of Vloc inside     42.668 Ry
atom: Maximum radius for 4*pi*r*r*local-pseudopot. charge    1.83678
atom: Maximum radius for r*vlocal+2*Zval:    1.58088
GHOST: No ghost state for L =  0
GHOST: No ghost state for L =  1
GHOST: No ghost state for L =  2
GHOST: No ghost state for L =  3

KBgen: Kleinman-Bylander projectors: 
   l= 0   rc=  1.704034   el= -1.009801   Ekb=  5.335044   kbcos=  0.316824
   l= 1   rc=  1.704034   el= -0.388707   Ekb= -3.785862   kbcos= -0.366464
   l= 2   rc=  1.791422   el=  0.001971   Ekb= -0.970471   kbcos= -0.009212
   l= 3   rc=  1.859892   el=  0.003065   Ekb= -0.399525   kbcos= -0.001223

KBgen: Total number of  Kleinman-Bylander projectors:   16
atom: -------------------------------------------------------------------------

atom: SANKEY-TYPE ORBITALS:
atom: Selected multiple-zeta basis: split     

SPLIT: Orbitals with angular momentum L= 0

SPLIT: Basis orbitals for state 2s

SPLIT: PAO cut-off radius determined from an
SPLIT: energy shift=  0.007350 Ry

   izeta = 1
                 lambda =    1.000000
                     rc =    4.632753
                 energy =   -1.002270
                kinetic =    0.855760
    potential(screened) =   -1.858031
       potential(ionic) =   -5.417575

   izeta = 2
                 rmatch =    3.431921
              splitnorm =    0.150000
                 energy =   -0.867111
                kinetic =    1.300804
    potential(screened) =   -2.167915
       potential(ionic) =   -5.962684

SPLIT: Orbitals with angular momentum L= 1

SPLIT: Basis orbitals for state 2p

SPLIT: PAO cut-off radius determined from an
SPLIT: energy shift=  0.007350 Ry

   izeta = 1
                 lambda =    1.000000
                     rc =    5.658549
                 energy =   -0.381140
                kinetic =    2.399701
    potential(screened) =   -2.780841
       potential(ionic) =   -6.206085

   izeta = 2
                 rmatch =    3.653288
              splitnorm =    0.150000
                 energy =   -0.249149
                kinetic =    3.542762
    potential(screened) =   -3.791911
       potential(ionic) =   -7.581078

POLgen: Perturbative polarization orbital with L=  2

POLgen: Polarization orbital for state 2p

   izeta = 1
                     rc =    5.658549
                 energy =    1.109913
                kinetic =    2.304789
    potential(screened) =   -1.194876
       potential(ionic) =   -4.013592
atom: Total number of Sankey-type orbitals: 13

atm_pop: Valence configuration (for local Pseudopot. screening):
 2s( 2.00)                                                            
 2p( 2.00)                                                            
Vna: chval, zval:    4.00000   4.00000

Vna:  Cut-off radius for the neutral-atom potential:   5.658549
comcore: Pseudo-core radius Rcore=  1.791422

atom: _________________________________________________________________________

prinput: Basis input ----------------------------------------------------------

PAO.BasisType split     

%block ChemicalSpeciesLabel
    1    5 B                       # Species index, atomic number, species label
    2    6 C                       # Species index, atomic number, species label
%endblock ChemicalSpeciesLabel

%block PAO.Basis                 # Define Basis set
B                     2                    # Species label, number of l-shells
 n=2   0   2                         # n, l, Nzeta 
   5.422      4.223   
   1.000      1.000   
 n=2   1   2 P   1                   # n, l, Nzeta, Polarization, NzetaPol
   6.790      4.609   
   1.000      1.000   
C                     2                    # Species label, number of l-shells
 n=2   0   2                         # n, l, Nzeta 
   4.633      3.432   
   1.000      1.000   
 n=2   1   2 P   1                   # n, l, Nzeta, Polarization, NzetaPol
   5.659      3.653   
   1.000      1.000   
%endblock PAO.Basis

prinput: ----------------------------------------------------------------------

coor:   Atomic-coordinates input format  =     Fractional

siesta: Atomic coordinates (Bohr) and species
siesta:      2.30256  38.89134   0.00000  1        1
siesta:      2.30256  41.57980   0.00000  1        2
siesta:      4.63094  34.85847   0.00000  1        3
siesta:      4.63094  37.54693   0.00000  1        4
siesta:      6.95932  30.82560   0.00000  1        5
siesta:      6.95932  33.51406   0.00000  1        6
siesta:      2.30256   9.31683   0.00000  1        7
siesta:      4.63094  13.34970   0.00000  1        8
siesta:     -0.02582  10.66124   0.00000  1        9
siesta:     -0.02582  13.34970   0.00000  1       10
siesta:      2.30256  14.69411   0.00000  1       11
siesta:      2.30256  25.44831   0.00000  1       12
siesta:     -4.68258  21.41544   0.00000  1       13
siesta:     -2.35420  22.75985   0.00000  1       14
siesta:     -7.01096  22.75985   0.00000  1       15
siesta:     -7.01096  25.44831   0.00000  1       16
siesta:     -9.33934  26.79272   0.00000  1       17
siesta:     -0.02582  26.79272   0.00000  1       18
siesta:     -0.02582  29.48119   0.00000  1       19
siesta:     -0.02582   2.59549   0.00000  2       20
siesta:     -0.02582   5.28395   0.00000  2       21
siesta:     -2.35420  38.89134   0.00000  2       22
siesta:     -2.35420  41.57980   0.00000  2       23
siesta:      9.28770  26.79272   0.00000  2       24
siesta:      9.28770  29.48119   0.00000  2       25
siesta:     -4.68258  34.85847   0.00000  2       26
siesta:     -4.68258  37.54693   0.00000  2       27
siesta:      2.30256   6.62836   0.00000  2       28
siesta:      4.63094  10.66124   0.00000  2       29
siesta:      6.95932  14.69411   0.00000  2       30
siesta:      6.95932  17.38257   0.00000  2       31
siesta:      9.28770  18.72698   0.00000  2       32
siesta:      9.28770  21.41544   0.00000  2       33
siesta:     11.61608  22.75985   0.00000  2       34
siesta:     11.61608  25.44831   0.00000  2       35
siesta:     -2.35420   6.62836   0.00000  2       36
siesta:     -2.35420   9.31683   0.00000  2       37
siesta:      2.30256  17.38257   0.00000  2       38
siesta:      4.63094  18.72698   0.00000  2       39
siesta:      4.63094  21.41544   0.00000  2       40
siesta:      6.95932  22.75985   0.00000  2       41
siesta:      6.95932  25.44831   0.00000  2       42
siesta:     -4.68258  10.66124   0.00000  2       43
siesta:     -4.68258  13.34970   0.00000  2       44
siesta:     -2.35420  14.69411   0.00000  2       45
siesta:     -2.35420  17.38257   0.00000  2       46
siesta:     -0.02582  18.72698   0.00000  2       47
siesta:     -0.02582  21.41544   0.00000  2       48
siesta:      2.30256  22.75985   0.00000  2       49
siesta:     -7.01096  14.69411   0.00000  2       50
siesta:     -7.01096  17.38257   0.00000  2       51
siesta:     -4.68258  18.72698   0.00000  2       52
siesta:     -2.35420  25.44831   0.00000  2       53
siesta:     -9.33934  18.72698   0.00000  2       54
siesta:     -9.33934  21.41544   0.00000  2       55
siesta:    -11.66772  22.75985   0.00000  2       56
siesta:    -11.66772  25.44831   0.00000  2       57
siesta:     -9.33934  29.48119   0.00000  2       58
siesta:      4.63094  26.79272   0.00000  2       59
siesta:      4.63094  29.48119   0.00000  2       60
siesta:     -4.68258  26.79272   0.00000  2       61
siesta:     -4.68258  29.48119   0.00000  2       62
siesta:      2.30256  30.82560   0.00000  2       63
siesta:      2.30256  33.51406   0.00000  2       64
siesta:     -2.35420  30.82560   0.00000  2       65
siesta:     -2.35420  33.51406   0.00000  2       66
siesta:     -7.01096  30.82560   0.00000  2       67
siesta:     -7.01096  33.51406   0.00000  2       68
siesta:     -0.02582  34.85847   0.00000  2       69
siesta:     -0.02582  37.54693   0.00000  2       70
siesta:     -0.02582  42.92421   0.00000  2       71
siesta:     -0.02582  45.61267   0.00000  2       72

siesta: System type = slab      

initatomlists: Number of atoms, orbitals, and projectors:     72   936  1152

siesta: ******************** Simulation parameters ****************************
siesta:
siesta: The following are some of the parameters of the simulation.
siesta: A complete list of the parameters used, including default values,
siesta: can be found in file out.fdf
siesta:
redata: Non-Collinear-spin run           =     F
redata: SpinPolarized (Up/Down) run      =     F
redata: Number of spin components        =     1
redata: Long output                      =     F
redata: Number of Atomic Species         =        2
redata: Charge density info will appear in .RHO file
redata: Write Mulliken Pop.              =     NO
redata: Mesh Cutoff                      =   200.0000  Ry
redata: Net charge of the system         =     0.0000 |e|
redata: Max. number of SCF Iter          =      500
redata: SCF convergence failure will abort job
redata: Performing Pulay mixing using    =    10 iterations
redata: Mix DM in first SCF step ?       =     F
redata: Write Pulay info on disk?        =     F
redata: Discard 1st Pulay DM after  kick =     F
redata: New DM Mixing Weight             =     0.0500
redata: New DM Occupancy tolerance       = 0.000000000001
redata: No kicks to SCF
redata: DM Mixing Weight for Kicks       =     0.5000
redata: DM Tolerance for SCF             =     0.000100
redata: Require Energy convergence for SCF =     F
redata: DM Energy tolerance for SCF      =     0.000100 eV
redata: Require Harris convergence for SCF =     F
redata: DM Harris energy tolerance for SCF =     0.000100 eV
redata: Using Saved Data (generic)   =     F
redata: Use continuation files for DM    =     T
redata: Neglect nonoverlap interactions  =     F
redata: Method of Calculation            =     Diagonalization
redata: Divide and Conquer               =     T
redata: Electronic Temperature           =     0.0019  Ry
redata: Fix the spin of the system       =     F
redata: Dynamics option                  =     Verlet MD run
redata: Initial MD time step             =        1
redata:   Final MD time step             =        1
redata: Length of MD time step           =     1.0000  fs
redata: Initial Temperature of MD run    =     0.0000  K
redata: Perform a MD quench              =     F
redata: ***********************************************************************
Total number of electrons:   269.000000
Total ionic charge:   269.000000

* ProcessorY, Blocksize:    2  24

k-point displ. along   1 input, could be:     0.50    0.00
k-point displ. along   2 input, could be:     0.50    0.00
 Kpoints in:          231 . Kpoints trimmed:          231

siesta: k-grid: Number of k-points =   231
siesta: k-grid: Cutoff (effective) =     5.000 Ang
siesta: k-grid: Supercell and displacements
siesta: k-grid:   21   0   0      0.500
siesta: k-grid:    0  21   0      0.500
siesta: k-grid:    0   0   1      0.000
Naive supercell factors:     2    2    2

superc: Internal auxiliary supercell:     2 x     2 x     2  =       8
superc: Number of atoms, orbitals, and projectors:    576   7488   9216

* Maximum dynamic memory allocated =     4 MB

siesta:                 ==============================
                            Begin MD step =      1
                        ==============================

superc: Internal auxiliary supercell:     2 x     2 x     2  =       8
superc: Number of atoms, orbitals, and projectors:    576   7488   9216

outcell: Unit cell vectors (Ang):
       12.804619    7.392750    0.000000
        0.000000   14.785500    0.000000
        0.000000    0.000000   10.000000

outcell: Cell vector modules (Ang)   :   14.785500   14.785500   10.000000
outcell: Cell angles (23,13,12) (deg):     90.0000     90.0000     60.0000
outcell: Cell volume (Ang**3)        :   1893.2269
New_DM. Step:     1
Initializing Density Matrix...

InitMesh: MESH =   120 x   120 x    90 =     1296000
InitMesh: Mesh cutoff (required, used) =   200.000   223.865 Ry

* Maximum dynamic memory allocated =   227 MB

stepf: Fermi-Dirac step function

siesta: Program's energy decomposition (eV):
siesta: Ebs     =     -5521.114842
siesta: Eions   =     15969.933558
siesta: Ena     =      4260.538663
siesta: Ekin    =      5376.155659
siesta: Enl     =       800.038337
siesta: DEna    =        -0.000008
siesta: DUscf   =         0.000000
siesta: DUext   =         0.000000
siesta: Exc     =     -4190.838958
siesta: eta*DQ  =         0.000000
siesta: Emadel  =         0.000000
siesta: Emeta   =         0.000000
siesta: Emolmec =         0.000000
siesta: Ekinion =         0.000000
siesta: Eharris =     -9512.198649
siesta: Etot    =     -9724.039865
siesta: FreeEng =     -9724.039865

siesta: iscf   Eharris(eV)      E_KS(eV)   FreeEng(eV)   dDmax  Ef(eV)
siesta:    1    -9512.1986    -9724.0399    -9724.0399  6.8364 -8.3530
timer: Routine,Calls,Time,% = IterSCF        1    4454.794  99.72
elaps: Routine,Calls,Wall,% = IterSCF        1     557.620  99.71
siesta:    2   -14809.1952    -8636.3815    -8636.4527 17.5436 -5.2396
siesta:    3    -9551.5899    -9548.3631    -9548.3979  2.1424 -6.1766
siesta:    4    -9492.1180    -9478.8131    -9478.8552  1.3635 -5.8358
siesta:    5    -9387.6860    -9369.3029    -9369.3582  0.9831 -5.1539
siesta:    6    -9376.8486    -9353.6852    -9353.7336  0.9344 -5.0120
siesta:    7    -9365.4743    -9346.7708    -9346.8209  0.9146 -5.0847
siesta:    8    -9362.6386    -9340.7058    -9340.7507  0.8998 -5.0552
siesta:    9    -9360.2830    -9338.3000    -9338.3732  0.8490 -5.0638
siesta:   10    -9358.0228    -9330.3784    -9330.4185  0.5321 -5.0008
siesta:   11    -9357.0063    -9329.5578    -9329.5934  0.3863 -5.0278
siesta:   12    -9357.0800    -9329.5532    -9329.6028  0.5261 -5.0132
siesta:   13    -9356.5706    -9329.7869    -9329.8212  0.2424 -5.0154
siesta:   14    -9356.0111    -9333.4181    -9333.4740  0.2217 -5.0403
siesta:   15    -9355.7301    -9335.4004    -9335.4627  0.2105 -5.0760
siesta:   16    -9355.6397    -9341.3225    -9341.3792  0.1527 -5.1130
siesta:   17    -9355.4487    -9347.5706    -9347.6317  0.0761 -5.1387
siesta:   18    -9355.4109    -9349.7343    -9349.7813  0.0592 -5.1413
siesta:   19    -9355.3627    -9352.7832    -9352.8317  0.0818 -5.1421
siesta:   20    -9355.3571    -9354.3070    -9354.3611  0.0680 -5.1335
siesta:   21    -9355.3573    -9355.7073    -9355.7601  0.0263 -5.1276
siesta:   22    -9355.3533    -9356.0719    -9356.1216  0.0249 -5.1232
siesta:   23    -9355.3483    -9356.2021    -9356.2526  0.0100 -5.1186
siesta:   24    -9355.3465    -9355.9554    -9356.0061  0.0117 -5.1175
siesta:   25    -9355.3458    -9355.9667    -9356.0170  0.0062 -5.1156
siesta:   26    -9355.3454    -9355.8541    -9355.9045  0.0055 -5.1150
siesta:   27    -9355.3452    -9355.7603    -9355.8106  0.0041 -5.1133
siesta:   28    -9355.3450    -9355.6190    -9355.6693  0.0026 -5.1135
siesta:   29    -9355.3451    -9355.5487    -9355.5991  0.0012 -5.1145
siesta:   30    -9355.3450    -9355.4991    -9355.5493  0.0011 -5.1148
siesta:   31    -9355.3450    -9355.3786    -9355.4289  0.0009 -5.1149
siesta:   32    -9355.3449    -9355.3476    -9355.3980  0.0006 -5.1149
siesta:   33    -9355.3450    -9355.3373    -9355.3877  0.0006 -5.1148
siesta:   34    -9355.3450    -9355.3435    -9355.3939  0.0004 -5.1148
siesta:   35    -9355.3450    -9355.3408    -9355.3911  0.0002 -5.1148
siesta:   36    -9355.3450    -9355.3424    -9355.3928  0.0002 -5.1149
siesta:   37    -9355.3450    -9355.3451    -9355.3954  0.0001 -5.1149

siesta: E_KS(eV) =            -9355.3465

siesta: E_KS - E_eggbox =     -9355.3465

siesta: Atomic forces (eV/Ang):
----------------------------------------
   Tot   -0.144814    0.181487    0.000000
----------------------------------------
   Max  561.371790
   Res  141.290825    sqrt( Sum f_i^2 / 3N )
----------------------------------------
   Max  561.371790    constrained

Stress-tensor-Voigt (kbar):     -715.08    -2534.10       -0.63       -5.36        0.00        0.00
(Free)E + p*V (eV/cell)    -8075.3507
Target enthalpy (eV/cell)    -9355.3968

siesta: Stress tensor (static) (eV/Ang**3):
        -0.446316   -0.003345    0.000000
        -0.003344   -1.581644    0.000000
         0.000000    0.000000   -0.000396

siesta: Pressure (static):       1083.27330647  kBar

siesta: Stress tensor (total) (eV/Ang**3):
        -0.446316   -0.003345    0.000000
        -0.003344   -1.581644    0.000000
         0.000000    0.000000   -0.000396

siesta: Pressure (total):       1083.27330647  kBar

siesta: Temp_ion =       0.000 K

* Maximum dynamic memory allocated =   244 MB
Computing bands...

siesta: Program's energy decomposition (eV):
siesta: Ebs     =     -4198.812471
siesta: Eions   =     15969.933558
siesta: Ena     =      4260.538663
siesta: Ekin    =      8173.554038
siesta: Enl     =      -825.364293
siesta: DEna    =      -741.018633
siesta: DUscf   =        99.153591
siesta: DUext   =         0.000000
siesta: Exc     =     -4352.276293
siesta: eta*DQ  =         0.000000
siesta: Emadel  =         0.000000
siesta: Emeta   =         0.000000
siesta: Emolmec =         0.000000
siesta: Ekinion =         0.000000
siesta: Eharris =     -9355.344986
siesta: Etot    =     -9355.346486
siesta: FreeEng =     -9355.396797

siesta: Final energy (eV):
siesta:  Band Struct. =   -4198.812471
siesta:       Kinetic =    8173.554038
siesta:       Hartree =   26272.812713
siesta:    Ext. field =       0.000000
siesta:   Exch.-corr. =   -4352.276293
siesta:  Ion-electron =  -60465.455564
siesta:       Ion-ion =   21016.018622
siesta:       Ekinion =       0.000000
siesta:         Total =   -9355.346486

siesta: Atomic forces (eV/Ang):
siesta:      1    5.320475   99.617563    0.000000
siesta:      2    4.078484 -292.151476    0.000000
siesta:      3   15.338345    1.166956    0.000000
siesta:      4   21.096167 -396.195568    0.000000
siesta:      5    3.846067   -2.052011    0.000000
siesta:      6    3.229717    4.598342    0.000000
siesta:      7   -0.957950 -102.967455    0.000000
siesta:      8   21.130882    1.216005    0.000000
siesta:      9    3.274281  392.552303    0.000000
siesta:     10   -3.815496 -111.170497    0.000000
siesta:     11   22.017674  299.592308    0.000000
siesta:     12    3.311348   -1.333533    0.000000
siesta:     13   -0.373056   -3.680037    0.000000
siesta:     14    3.569721    1.045225    0.000000
siesta:     15   -3.468598   -2.403311    0.000000
siesta:     16    4.419376    2.509995    0.000000
siesta:     17   -8.656246    3.658502    0.000000
siesta:     18   -3.662467   -0.383828    0.000000
siesta:     19   -0.547076 -409.599182    0.000000
siesta:     20   -0.617854  407.322998    0.000000
siesta:     21    1.359326 -123.901690    0.000000
siesta:     22    3.979423  131.050238    0.000000
siesta:     23  -27.519045 -552.675032    0.000000
siesta:     24    3.161592    2.490500    0.000000
siesta:     25    1.165600   -2.572954    0.000000
siesta:     26  -26.496778    3.379656    0.000000
siesta:     27  -33.647909 -548.384576    0.000000
siesta:     28    9.543198  546.327685    0.000000
siesta:     29   19.753131  398.387601    0.000000
siesta:     30    0.554686    0.130723    0.000000
siesta:     31    2.029575   -1.542345    0.000000
siesta:     32   -0.268572    0.376713    0.000000
siesta:     33    2.120874   -2.570912    0.000000
siesta:     34   -0.082790    7.648062    0.000000
siesta:     35    0.060539   -7.775846    0.000000
siesta:     36  -11.711331  548.352278    0.000000
siesta:     37    5.058169 -117.658623    0.000000
siesta:     38   22.711661   -1.287452    0.000000
siesta:     39   -1.833980    1.863788    0.000000
siesta:     40   -0.200472   -0.351719    0.000000
siesta:     41    0.002215    1.427744    0.000000
siesta:     42   -0.058572   -0.815120    0.000000
siesta:     43  -35.962628  547.502572    0.000000
siesta:     44  -26.246210   -6.519542    0.000000
siesta:     45   -9.199672  551.423332    0.000000
siesta:     46  -22.474118   -6.753293    0.000000
siesta:     47    3.220971  561.371790    0.000000
siesta:     48    2.634584   -0.708719    0.000000
siesta:     49    0.442282   -4.741245    0.000000
siesta:     50    2.527606   -1.300019    0.000000
siesta:     51   -1.827618   -1.737194    0.000000
siesta:     52    1.216777   -1.825743    0.000000
siesta:     53   -2.004980    3.135001    0.000000
siesta:     54    0.978690    0.691466    0.000000
siesta:     55   -5.840545   -4.232575    0.000000
siesta:     56   -1.016893    5.301117    0.000000
siesta:     57   -2.571906   -7.573972    0.000000
siesta:     58    3.062424    2.990268    0.000000
siesta:     59    2.309779    1.486970    0.000000
siesta:     60   -3.505677   -2.893301    0.000000
siesta:     61    3.109966    0.890484    0.000000
siesta:     62    1.900365   -0.848630    0.000000
siesta:     63   20.974632    2.352409    0.000000
siesta:     64   33.270242 -556.064322    0.000000
siesta:     65  -22.020340    1.847553    0.000000
siesta:     66  -28.146185 -557.143725    0.000000
siesta:     67   -2.407560    1.335475    0.000000
siesta:     68    2.621574    2.222113    0.000000
siesta:     69    3.617422  127.738126    0.000000
siesta:     70   12.052735 -403.148724    0.000000
siesta:     71   13.264287  123.631697    0.000000
siesta:     72   -2.339152 -551.489898    0.000000
siesta: ----------------------------------------
siesta:    Tot   -0.144814    0.181487    0.000000

siesta: Stress tensor (static) (eV/Ang**3):
siesta:    -0.446316   -0.003345    0.000000
siesta:    -0.003344   -1.581644    0.000000
siesta:     0.000000    0.000000   -0.000396

siesta: Cell volume =       1893.226884 Ang**3

siesta: Pressure (static):
siesta:                Solid            Molecule  Units
siesta:           0.00736380          0.10728629  Ry/Bohr**3
siesta:           0.67611871          9.85066253  eV/Ang**3
siesta:        1083.27330647      15782.67192498  kBar
(Free)E+ p_basis*V_orbitals  =       -9318.656065
(Free)Eharris+ p_basis*V_orbitals  =       -9318.655967

siesta: Electric dipole (a.u.)  =    0.000000    0.000000    0.000000
siesta: Electric dipole (Debye) =    0.000000    0.000000    0.000000

* Maximum dynamic memory allocated : Node    0 =   244 MB
* Maximum dynamic memory allocated : Node    1 =    85 MB
* Maximum dynamic memory allocated : Node    2 =    87 MB
* Maximum dynamic memory allocated : Node    3 =   231 MB
* Maximum dynamic memory allocated : Node    4 =   221 MB
* Maximum dynamic memory allocated : Node    5 =    80 MB
* Maximum dynamic memory allocated : Node    6 =    82 MB
* Maximum dynamic memory allocated : Node    7 =   204 MB

* Maximum memory occured during matrixMtoO                    

timer: CPU execution times:
timer:  Routine       Calls   Time/call    Tot.time        %
timer:  siesta            1  163776.684  163776.684   100.00
timer:  Setup             1       3.897       3.897     0.00
timer:  bands             3     269.146     807.437     0.49
timer:  writewave         1       0.044       0.044     0.00
timer:  KSV_init          1       0.007       0.007     0.00
timer:  IterMD            1  162959.641  162959.641    99.50
timer:  hsparse           1       0.392       0.392     0.00
timer:  overlap           1       7.798       7.798     0.00
timer:  IterSCF          37    4397.995  162725.824    99.36
timer:  kinefsm           2       4.030       8.061     0.00
timer:  nlefsm            2      21.507      43.013     0.03
timer:  DHSCF            38     123.889    4707.779     2.87
timer:  DHSCF1            1       0.992       0.992     0.00
timer:  DHSCF2            1      45.351      45.351     0.03
timer:  REORD           306       0.010       3.071     0.00
timer:  POISON           39       2.244      87.534     0.05
timer:  DHSCF3           38     121.493    4616.737     2.82
timer:  rhoofd           38      25.251     959.522     0.59
timer:  cellXC           38       3.469     131.808     0.08
timer:  vmat             38      58.980    2241.238     1.37
timer:  MolMec            2       0.001       0.001     0.00
timer:  diagon           37    4272.452  158080.737    96.52
timer:  c-eigval       8668       6.672   57834.294    35.31
timer:  c-buildHS      8668       0.122    1059.158     0.65
timer:  cdiag         17215       6.886  118534.017    72.38
timer:  cdiag1        17215       0.429    7377.172     4.50
timer:  cdiag2        17215       1.910   32872.541    20.07
timer:  cdiag3        17215       3.936   67750.924    41.37
timer:  cdiag4        17215       0.226    3892.718     2.38
timer:  c-eigvec       8547       7.300   62393.363    38.10
timer:  c-buildD       8547       4.518   38611.868    23.58
timer:  DHSCF4            1      42.637      42.637     0.03
timer:  dfscf             1      39.963      39.963     0.02
timer:  overfsm           1       0.479       0.479     0.00
timer:  optical           1       5.008       5.008     0.00
  

elaps: ELAPSED times:
elaps:  Routine       Calls   Time/call    Tot.time        %
elaps:  siesta            1   20496.714   20496.714   100.00
elaps:  Setup             1       0.504       0.504     0.00
elaps:  bands             3      33.695     101.086     0.49
elaps:  writewave         1       0.006       0.006     0.00
elaps:  KSV_init          1       0.001       0.001     0.00
elaps:  IterMD            1   20394.463   20394.463    99.50
elaps:  hsparse           1       0.051       0.051     0.00
elaps:  overlap           1       0.981       0.981     0.00
elaps:  IterSCF          37     550.415   20365.349    99.36
elaps:  kinefsm           2       0.506       1.013     0.00
elaps:  nlefsm            2       2.732       5.464     0.03
elaps:  DHSCF            38      15.648     594.637     2.90
elaps:  DHSCF1            1       0.126       0.126     0.00
elaps:  DHSCF2            1       5.673       5.673     0.03
elaps:  REORD           306       0.001       0.400     0.00
elaps:  POISON           39       0.281      10.959     0.05
elaps:  DHSCF3           38      15.199     577.574     2.82
elaps:  rhoofd           38       6.949     264.074     1.29
elaps:  cellXC           38       0.433      16.458     0.08
elaps:  vmat             38       7.379     280.385     1.37
elaps:  MolMec            2       0.000       0.000     0.00
elaps:  diagon           37     534.722   19784.714    96.53
elaps:  c-eigval       8668       0.835    7236.169    35.30
elaps:  c-buildHS      8668       0.017     145.081     0.71
elaps:  cdiag         17215       0.847   14580.549    71.14
elaps:  cdiag1        17215       0.053     914.372     4.46
elaps:  cdiag2        17215       0.239    4113.151    20.07
elaps:  cdiag3        17215       0.493    8488.657    41.41
elaps:  cdiag4        17215       0.029     495.028     2.42
elaps:  c-eigvec       8547       0.888    7586.505    37.01
elaps:  c-buildD       8547       0.592    5056.668    24.67
elaps:  DHSCF4            1      10.987      10.987     0.05
elaps:  dfscf             1      10.439      10.439     0.05
elaps:  overfsm           1       0.060       0.060     0.00
elaps:  optical           1       0.001       0.001     0.00
  
>> End of run:  30-APR-2016   9:15:38
