Siesta Version:                                        siesta-3.2-pl-3
Architecture  : x86_64-unknown-linux-gnu--unknown
Compiler flags: mpiifort -g -O2 -fPIC -xSSE4.1 -fp-model source -shared-intel 
PARALLEL version

* Running on    8 nodes in parallel
>> Start of run:  30-APR-2016   6:26:20

                           ***********************       
                           *  WELCOME TO SIESTA  *       
                           ***********************       

reinit: Reading from standard input
************************** Dump of input data file ****************************
#(1) General system descriptors
SystemName            GRP_doping    # Descriptive name of the system
SystemLabel           GRP_doping    # Short name for naming files
%include STRUCT.fdf
%include KPT.fdf
%include BASIS.fdf
#%include TS.fdf # for transiesta calculation
#(4) DFT, Grid, SCF
XC.functional         GGA           # LDA or GGA (default = LDA)
XC.authors            PBE           # CA (Ceperley-Aldr) = PZ
                                    #    (Perdew-Zunger) - LDA - Default
                                    # PW92 (Perdew-Wang-92) - LDA
                                    # PBE (Perdew-Burke-Ernzerhof) - GGA
MeshCutoff            200.000000    Ry      # Default: 50.0 Ry ~ 0.444 Bohr
                                    #         100.0 Ry ~ 0.314 Bohr
MaxSCFIterations      500           # Default: 50
DM.MixingWeight       0.05          # Default: 0.25
DM.NumberPulay        10            # Default: 0
DM.PulayOnFile        F             # SystemLabel.P1, SystemLabel.P2
DM.Tolerance          1.d-4         # Default: 1.d-4
DM.UseSaveDM          .true.        # because of the bug
SCFMustConverge       .true.
NeglNonOverlapInt     F             # Default: F
#(5) Eigenvalue problem: order-N or diagonalization
SolutionMethod        Diagon        # or Transiesta
ElectronicTemperature 300.0 K       # Default: 300.0 K
#(6) Molecular dynamics and relaxations
#MD.TypeOfRun          CG            # Type of dynamics:
#MD.VariableCell       F
#MD.NumCGsteps         0           # 0 for single-point / 100 for gopt
#MD.MaxCGDispl         0.2 Bohr      # Default: 0.2 Bohr
#MD.MaxForceTol        0.02 eV/Ang   # Default: 0.04 eV/Ang
#MD.MaxStressTol       1.0 GPa       # Default: 1.0 GPa
# Geometry Constraints
#%block GeometryConstraints
#	position from 1 to 44
#%endblock GeometryConstraints
BandLinesScale   pi/a
%block BandLines
 1   0.00000000  0.00000000  0.00000000
50   0.00000000  0.07809418  0.00000000
50   0.04509075  0.07809242  0.00000000
20   0.00000000  0.00000000  0.00000000
%endblock BandLines
************************** End of input data file *****************************

reinit: -----------------------------------------------------------------------
reinit: System Name: GRP_doping
reinit: -----------------------------------------------------------------------
reinit: System Label: GRP_doping                                                  
reinit: -----------------------------------------------------------------------

initatom: Reading input for the pseudopotentials and atomic orbitals ----------
 Species number:            1  Label: B Atomic number:           5
 Species number:            2  Label: C Atomic number:           6
Ground state valence configuration:   2s02  2p01
Reading pseudopotential information in formatted form from B.psf

Valence configuration for pseudopotential generation:
2s( 2.00) rc: 1.74
2p( 1.00) rc: 1.74
3d( 0.00) rc: 1.74
4f( 0.00) rc: 1.74
Ground state valence configuration:   2s02  2p02
Reading pseudopotential information in formatted form from C.psf

Valence configuration for pseudopotential generation:
2s( 2.00) rc: 1.54
2p( 2.00) rc: 1.54
3d( 0.00) rc: 1.54
4f( 0.00) rc: 1.54
For B, standard SIESTA heuristics set lmxkb to 3
 (one more than the basis l, including polarization orbitals).
Use PS.lmax or PS.KBprojectors blocks to override.
For C, standard SIESTA heuristics set lmxkb to 3
 (one more than the basis l, including polarization orbitals).
Use PS.lmax or PS.KBprojectors blocks to override.

<basis_specs>
===============================================================================
B                    Z=   5    Mass=  10.810        Charge= 0.17977+309
Lmxo=1 Lmxkb= 3    BasisType=split      Semic=F
L=0  Nsemic=0  Cnfigmx=2
          n=1  nzeta=2  polorb=0
            splnorm:   0.15000    
               vcte:    0.0000    
               rinn:    0.0000    
                rcs:    0.0000      0.0000    
            lambdas:    1.0000      1.0000    
L=1  Nsemic=0  Cnfigmx=2
          n=1  nzeta=2  polorb=1
            splnorm:   0.15000    
               vcte:    0.0000    
               rinn:    0.0000    
                rcs:    0.0000      0.0000    
            lambdas:    1.0000      1.0000    
-------------------------------------------------------------------------------
L=0  Nkbl=1  erefs: 0.17977+309
L=1  Nkbl=1  erefs: 0.17977+309
L=2  Nkbl=1  erefs: 0.17977+309
L=3  Nkbl=1  erefs: 0.17977+309
===============================================================================
</basis_specs>

atom: Called for B                     (Z =   5)

read_vps: Pseudopotential generation method:
read_vps: ATM3      Troullier-Martins                       
Total valence charge:    3.00000

read_vps: Pseudopotential includes a core correction:
read_vps: Pseudo-core for xc-correction

xc_check: Exchange-correlation functional:
xc_check: GGA Perdew, Burke & Ernzerhof 1996
V l=0 = -2*Zval/r beyond r=  1.7165
V l=1 = -2*Zval/r beyond r=  1.7165
V l=2 = -2*Zval/r beyond r=  1.7165
V l=3 = -2*Zval/r beyond r=  1.6951
All V_l potentials equal beyond r=  1.7165
This should be close to max(r_c) in ps generation
All pots = -2*Zval/r beyond r=  1.7165

VLOCAL1: 99.0% of the norm of Vloc inside     14.733 Ry
VLOCAL1: 99.9% of the norm of Vloc inside     33.577 Ry
atom: Maximum radius for 4*pi*r*r*local-pseudopot. charge    2.04484
atom: Maximum radius for r*vlocal+2*Zval:    1.75994
GHOST: No ghost state for L =  0
GHOST: No ghost state for L =  1
GHOST: No ghost state for L =  2
GHOST: No ghost state for L =  3

KBgen: Kleinman-Bylander projectors: 
   l= 0   rc=  1.897051   el= -0.693730   Ekb=  4.595746   kbcos=  0.286105
   l= 1   rc=  1.920920   el= -0.265236   Ekb= -2.350715   kbcos= -0.315747
   l= 2   rc=  2.044840   el=  0.002055   Ekb= -0.690767   kbcos= -0.013822
   l= 3   rc=  2.149707   el=  0.003188   Ekb= -0.315358   kbcos= -0.002055

KBgen: Total number of  Kleinman-Bylander projectors:   16
atom: -------------------------------------------------------------------------

atom: SANKEY-TYPE ORBITALS:
atom: Selected multiple-zeta basis: split     

SPLIT: Orbitals with angular momentum L= 0

SPLIT: Basis orbitals for state 2s

SPLIT: PAO cut-off radius determined from an
SPLIT: energy shift=  0.007350 Ry

   izeta = 1
                 lambda =    1.000000
                     rc =    5.422032
                 energy =   -0.686029
                kinetic =    0.576707
    potential(screened) =   -1.262736
       potential(ionic) =   -3.271094

   izeta = 2
                 rmatch =    4.222573
              splitnorm =    0.150000
                 energy =   -0.602132
                kinetic =    0.858975
    potential(screened) =   -1.461107
       potential(ionic) =   -3.582536

SPLIT: Orbitals with angular momentum L= 1

SPLIT: Basis orbitals for state 2p

SPLIT: PAO cut-off radius determined from an
SPLIT: energy shift=  0.007350 Ry

   izeta = 1
                 lambda =    1.000000
                     rc =    6.790259
                 energy =   -0.258578
                kinetic =    1.481412
    potential(screened) =   -1.739989
       potential(ionic) =   -3.657461

   izeta = 2
                 rmatch =    4.608740
              splitnorm =    0.150000
                 energy =   -0.173757
                kinetic =    2.186690
    potential(screened) =   -2.360447
       potential(ionic) =   -4.464260

POLgen: Perturbative polarization orbital with L=  2

POLgen: Polarization orbital for state 2p

   izeta = 1
                     rc =    6.790259
                 energy =    0.684082
                kinetic =    1.471481
    potential(screened) =   -0.787399
       potential(ionic) =   -2.406985
atom: Total number of Sankey-type orbitals: 13

atm_pop: Valence configuration (for local Pseudopot. screening):
 2s( 2.00)                                                            
 2p( 1.00)                                                            
Vna: chval, zval:    3.00000   3.00000

Vna:  Cut-off radius for the neutral-atom potential:   6.790259
comcore: Pseudo-core radius Rcore=  2.122997

atom: _________________________________________________________________________

<basis_specs>
===============================================================================
C                    Z=   6    Mass=  12.010        Charge= 0.17977+309
Lmxo=1 Lmxkb= 3    BasisType=split      Semic=F
L=0  Nsemic=0  Cnfigmx=2
          n=1  nzeta=2  polorb=0
            splnorm:   0.15000    
               vcte:    0.0000    
               rinn:    0.0000    
                rcs:    0.0000      0.0000    
            lambdas:    1.0000      1.0000    
L=1  Nsemic=0  Cnfigmx=2
          n=1  nzeta=2  polorb=1
            splnorm:   0.15000    
               vcte:    0.0000    
               rinn:    0.0000    
                rcs:    0.0000      0.0000    
            lambdas:    1.0000      1.0000    
-------------------------------------------------------------------------------
L=0  Nkbl=1  erefs: 0.17977+309
L=1  Nkbl=1  erefs: 0.17977+309
L=2  Nkbl=1  erefs: 0.17977+309
L=3  Nkbl=1  erefs: 0.17977+309
===============================================================================
</basis_specs>

atom: Called for C                     (Z =   6)

read_vps: Pseudopotential generation method:
read_vps: ATM3      Troullier-Martins                       
Total valence charge:    4.00000

read_vps: Pseudopotential includes a core correction:
read_vps: Pseudo-core for xc-correction

xc_check: Exchange-correlation functional:
xc_check: GGA Perdew, Burke & Ernzerhof 1996
V l=0 = -2*Zval/r beyond r=  1.5227
V l=1 = -2*Zval/r beyond r=  1.5227
V l=2 = -2*Zval/r beyond r=  1.5227
V l=3 = -2*Zval/r beyond r=  1.5038
All V_l potentials equal beyond r=  1.5227
This should be close to max(r_c) in ps generation
All pots = -2*Zval/r beyond r=  1.5227

VLOCAL1: 99.0% of the norm of Vloc inside     18.722 Ry
VLOCAL1: 99.9% of the norm of Vloc inside     42.668 Ry
atom: Maximum radius for 4*pi*r*r*local-pseudopot. charge    1.83678
atom: Maximum radius for r*vlocal+2*Zval:    1.58088
GHOST: No ghost state for L =  0
GHOST: No ghost state for L =  1
GHOST: No ghost state for L =  2
GHOST: No ghost state for L =  3

KBgen: Kleinman-Bylander projectors: 
   l= 0   rc=  1.704034   el= -1.009801   Ekb=  5.335044   kbcos=  0.316824
   l= 1   rc=  1.704034   el= -0.388707   Ekb= -3.785862   kbcos= -0.366464
   l= 2   rc=  1.791422   el=  0.001971   Ekb= -0.970471   kbcos= -0.009212
   l= 3   rc=  1.859892   el=  0.003065   Ekb= -0.399525   kbcos= -0.001223

KBgen: Total number of  Kleinman-Bylander projectors:   16
atom: -------------------------------------------------------------------------

atom: SANKEY-TYPE ORBITALS:
atom: Selected multiple-zeta basis: split     

SPLIT: Orbitals with angular momentum L= 0

SPLIT: Basis orbitals for state 2s

SPLIT: PAO cut-off radius determined from an
SPLIT: energy shift=  0.007350 Ry

   izeta = 1
                 lambda =    1.000000
                     rc =    4.632753
                 energy =   -1.002270
                kinetic =    0.855760
    potential(screened) =   -1.858031
       potential(ionic) =   -5.417575

   izeta = 2
                 rmatch =    3.431921
              splitnorm =    0.150000
                 energy =   -0.867111
                kinetic =    1.300804
    potential(screened) =   -2.167915
       potential(ionic) =   -5.962684

SPLIT: Orbitals with angular momentum L= 1

SPLIT: Basis orbitals for state 2p

SPLIT: PAO cut-off radius determined from an
SPLIT: energy shift=  0.007350 Ry

   izeta = 1
                 lambda =    1.000000
                     rc =    5.658549
                 energy =   -0.381140
                kinetic =    2.399701
    potential(screened) =   -2.780841
       potential(ionic) =   -6.206085

   izeta = 2
                 rmatch =    3.653288
              splitnorm =    0.150000
                 energy =   -0.249149
                kinetic =    3.542762
    potential(screened) =   -3.791911
       potential(ionic) =   -7.581078

POLgen: Perturbative polarization orbital with L=  2

POLgen: Polarization orbital for state 2p

   izeta = 1
                     rc =    5.658549
                 energy =    1.109913
                kinetic =    2.304789
    potential(screened) =   -1.194876
       potential(ionic) =   -4.013592
atom: Total number of Sankey-type orbitals: 13

atm_pop: Valence configuration (for local Pseudopot. screening):
 2s( 2.00)                                                            
 2p( 2.00)                                                            
Vna: chval, zval:    4.00000   4.00000

Vna:  Cut-off radius for the neutral-atom potential:   5.658549
comcore: Pseudo-core radius Rcore=  1.791422

atom: _________________________________________________________________________

prinput: Basis input ----------------------------------------------------------

PAO.BasisType split     

%block ChemicalSpeciesLabel
    1    5 B                       # Species index, atomic number, species label
    2    6 C                       # Species index, atomic number, species label
%endblock ChemicalSpeciesLabel

%block PAO.Basis                 # Define Basis set
B                     2                    # Species label, number of l-shells
 n=2   0   2                         # n, l, Nzeta 
   5.422      4.223   
   1.000      1.000   
 n=2   1   2 P   1                   # n, l, Nzeta, Polarization, NzetaPol
   6.790      4.609   
   1.000      1.000   
C                     2                    # Species label, number of l-shells
 n=2   0   2                         # n, l, Nzeta 
   4.633      3.432   
   1.000      1.000   
 n=2   1   2 P   1                   # n, l, Nzeta, Polarization, NzetaPol
   5.659      3.653   
   1.000      1.000   
%endblock PAO.Basis

prinput: ----------------------------------------------------------------------

coor:   Atomic-coordinates input format  =     Fractional

siesta: Atomic coordinates (Bohr) and species
siesta:     -2.35420  41.57980   0.00000  1        1
siesta:      2.30256  38.89134   0.00000  1        2
siesta:      2.30256  41.57980   0.00000  1        3
siesta:      4.63094  34.85847   0.00000  1        4
siesta:      4.63094  37.54693   0.00000  1        5
siesta:      6.95932  30.82560   0.00000  1        6
siesta:      6.95932  33.51406   0.00000  1        7
siesta:      9.28770  26.79272   0.00000  1        8
siesta:      9.28770  29.48119   0.00000  1        9
siesta:      4.63094  10.66124   0.00000  1       10
siesta:      4.63094  13.34970   0.00000  1       11
siesta:      2.30256  14.69411   0.00000  1       12
siesta:     -4.68258  21.41544   0.00000  1       13
siesta:     -2.35420  22.75985   0.00000  1       14
siesta:     -7.01096  22.75985   0.00000  1       15
siesta:     -7.01096  25.44831   0.00000  1       16
siesta:     -9.33934  26.79272   0.00000  1       17
siesta:     -0.02582  42.92421   0.00000  1       18
siesta:     -0.02582  45.61267   0.00000  1       19
siesta:     -0.02582   2.59549   0.00000  2       20
siesta:     -0.02582   5.28395   0.00000  2       21
siesta:     -2.35420  38.89134   0.00000  2       22
siesta:     -4.68258  34.85847   0.00000  2       23
siesta:     -4.68258  37.54693   0.00000  2       24
siesta:      2.30256   6.62836   0.00000  2       25
siesta:      2.30256   9.31683   0.00000  2       26
siesta:      6.95932  14.69411   0.00000  2       27
siesta:      6.95932  17.38257   0.00000  2       28
siesta:      9.28770  18.72698   0.00000  2       29
siesta:      9.28770  21.41544   0.00000  2       30
siesta:     11.61608  22.75985   0.00000  2       31
siesta:     11.61608  25.44831   0.00000  2       32
siesta:     -2.35420   6.62836   0.00000  2       33
siesta:     -2.35420   9.31683   0.00000  2       34
siesta:     -0.02582  10.66124   0.00000  2       35
siesta:     -0.02582  13.34970   0.00000  2       36
siesta:      2.30256  17.38257   0.00000  2       37
siesta:      4.63094  18.72698   0.00000  2       38
siesta:      4.63094  21.41544   0.00000  2       39
siesta:      6.95932  22.75985   0.00000  2       40
siesta:      6.95932  25.44831   0.00000  2       41
siesta:     -4.68258  10.66124   0.00000  2       42
siesta:     -4.68258  13.34970   0.00000  2       43
siesta:     -2.35420  14.69411   0.00000  2       44
siesta:     -2.35420  17.38257   0.00000  2       45
siesta:     -0.02582  18.72698   0.00000  2       46
siesta:     -0.02582  21.41544   0.00000  2       47
siesta:      2.30256  22.75985   0.00000  2       48
siesta:      2.30256  25.44831   0.00000  2       49
siesta:     -7.01096  14.69411   0.00000  2       50
siesta:     -7.01096  17.38257   0.00000  2       51
siesta:     -4.68258  18.72698   0.00000  2       52
siesta:     -2.35420  25.44831   0.00000  2       53
siesta:     -9.33934  18.72698   0.00000  2       54
siesta:     -9.33934  21.41544   0.00000  2       55
siesta:    -11.66772  22.75985   0.00000  2       56
siesta:    -11.66772  25.44831   0.00000  2       57
siesta:     -9.33934  29.48119   0.00000  2       58
siesta:      4.63094  26.79272   0.00000  2       59
siesta:      4.63094  29.48119   0.00000  2       60
siesta:     -0.02582  26.79272   0.00000  2       61
siesta:     -0.02582  29.48119   0.00000  2       62
siesta:     -4.68258  26.79272   0.00000  2       63
siesta:     -4.68258  29.48119   0.00000  2       64
siesta:      2.30256  30.82560   0.00000  2       65
siesta:      2.30256  33.51406   0.00000  2       66
siesta:     -2.35420  30.82560   0.00000  2       67
siesta:     -2.35420  33.51406   0.00000  2       68
siesta:     -7.01096  30.82560   0.00000  2       69
siesta:     -7.01096  33.51406   0.00000  2       70
siesta:     -0.02582  34.85847   0.00000  2       71
siesta:     -0.02582  37.54693   0.00000  2       72

siesta: System type = slab      

initatomlists: Number of atoms, orbitals, and projectors:     72   936  1152

siesta: ******************** Simulation parameters ****************************
siesta:
siesta: The following are some of the parameters of the simulation.
siesta: A complete list of the parameters used, including default values,
siesta: can be found in file out.fdf
siesta:
redata: Non-Collinear-spin run           =     F
redata: SpinPolarized (Up/Down) run      =     F
redata: Number of spin components        =     1
redata: Long output                      =     F
redata: Number of Atomic Species         =        2
redata: Charge density info will appear in .RHO file
redata: Write Mulliken Pop.              =     NO
redata: Mesh Cutoff                      =   200.0000  Ry
redata: Net charge of the system         =     0.0000 |e|
redata: Max. number of SCF Iter          =      500
redata: SCF convergence failure will abort job
redata: Performing Pulay mixing using    =    10 iterations
redata: Mix DM in first SCF step ?       =     F
redata: Write Pulay info on disk?        =     F
redata: Discard 1st Pulay DM after  kick =     F
redata: New DM Mixing Weight             =     0.0500
redata: New DM Occupancy tolerance       = 0.000000000001
redata: No kicks to SCF
redata: DM Mixing Weight for Kicks       =     0.5000
redata: DM Tolerance for SCF             =     0.000100
redata: Require Energy convergence for SCF =     F
redata: DM Energy tolerance for SCF      =     0.000100 eV
redata: Require Harris convergence for SCF =     F
redata: DM Harris energy tolerance for SCF =     0.000100 eV
redata: Using Saved Data (generic)   =     F
redata: Use continuation files for DM    =     T
redata: Neglect nonoverlap interactions  =     F
redata: Method of Calculation            =     Diagonalization
redata: Divide and Conquer               =     T
redata: Electronic Temperature           =     0.0019  Ry
redata: Fix the spin of the system       =     F
redata: Dynamics option                  =     Verlet MD run
redata: Initial MD time step             =        1
redata:   Final MD time step             =        1
redata: Length of MD time step           =     1.0000  fs
redata: Initial Temperature of MD run    =     0.0000  K
redata: Perform a MD quench              =     F
redata: ***********************************************************************
Total number of electrons:   269.000000
Total ionic charge:   269.000000

* ProcessorY, Blocksize:    2  24

k-point displ. along   1 input, could be:     0.50    0.00
k-point displ. along   2 input, could be:     0.50    0.00
 Kpoints in:          231 . Kpoints trimmed:          231

siesta: k-grid: Number of k-points =   231
siesta: k-grid: Cutoff (effective) =     5.000 Ang
siesta: k-grid: Supercell and displacements
siesta: k-grid:   21   0   0      0.500
siesta: k-grid:    0  21   0      0.500
siesta: k-grid:    0   0   1      0.000
Naive supercell factors:     2    2    2

superc: Internal auxiliary supercell:     2 x     2 x     2  =       8
superc: Number of atoms, orbitals, and projectors:    576   7488   9216

* Maximum dynamic memory allocated =     4 MB

siesta:                 ==============================
                            Begin MD step =      1
                        ==============================

superc: Internal auxiliary supercell:     2 x     2 x     2  =       8
superc: Number of atoms, orbitals, and projectors:    576   7488   9216

outcell: Unit cell vectors (Ang):
       12.804619    7.392750    0.000000
        0.000000   14.785500    0.000000
        0.000000    0.000000   10.000000

outcell: Cell vector modules (Ang)   :   14.785500   14.785500   10.000000
outcell: Cell angles (23,13,12) (deg):     90.0000     90.0000     60.0000
outcell: Cell volume (Ang**3)        :   1893.2269
New_DM. Step:     1
Initializing Density Matrix...

InitMesh: MESH =   120 x   120 x    90 =     1296000
InitMesh: Mesh cutoff (required, used) =   200.000   223.865 Ry

* Maximum dynamic memory allocated =   225 MB

stepf: Fermi-Dirac step function

siesta: Program's energy decomposition (eV):
siesta: Ebs     =     -5500.873780
siesta: Eions   =     15969.933558
siesta: Ena     =      4249.530994
siesta: Ekin    =      5376.155659
siesta: Enl     =       791.697618
siesta: DEna    =        -0.000008
siesta: DUscf   =         0.000000
siesta: DUext   =         0.000000
siesta: Exc     =     -4189.616686
siesta: eta*DQ  =         0.000000
siesta: Emadel  =         0.000000
siesta: Emeta   =         0.000000
siesta: Emolmec =         0.000000
siesta: Ekinion =         0.000000
siesta: Eharris =     -9519.521385
siesta: Etot    =     -9742.165981
siesta: FreeEng =     -9742.165981

siesta: iscf   Eharris(eV)      E_KS(eV)   FreeEng(eV)   dDmax  Ef(eV)
siesta:    1    -9519.5214    -9742.1660    -9742.1660  7.6658 -8.4005
timer: Routine,Calls,Time,% = IterSCF        1    3500.319  99.70
elaps: Routine,Calls,Wall,% = IterSCF        1     438.394  99.70
siesta:    2   -14823.2159    -8629.0877    -8629.1602 14.6170 -5.7815
siesta:    3    -9651.6328    -9533.1325    -9533.1768  1.9820 -5.4980
siesta:    4    -9531.0329    -9489.3255    -9489.3602  1.5121 -5.3627
siesta:    5    -9454.2280    -9445.0905    -9445.1354  1.3582 -5.3723
siesta:    6    -9409.9463    -9413.6684    -9413.6801  1.2540 -5.3060
siesta:    7    -9395.2501    -9392.8581    -9392.8892  1.2122 -5.1812
siesta:    8    -9370.8340    -9363.2399    -9363.2953  0.7561 -4.9203
siesta:    9    -9369.0481    -9360.3993    -9360.4404  0.6785 -4.9439
siesta:   10    -9368.5495    -9359.1211    -9359.1712  0.6098 -4.9471
siesta:   11    -9367.1967    -9357.3833    -9357.4291  0.4697 -4.9261
siesta:   12    -9366.2370    -9354.8996    -9354.9553  0.3795 -4.9610
siesta:   13    -9366.5441    -9351.7075    -9351.7717  0.3908 -4.9324
siesta:   14    -9366.4699    -9353.2351    -9353.2960  0.4228 -4.9463
siesta:   15    -9366.0880    -9354.5031    -9354.5462  0.2999 -4.9670
siesta:   16    -9365.9424    -9357.1738    -9357.2377  0.1699 -5.0076
siesta:   17    -9365.7238    -9360.0303    -9360.0981  0.1051 -5.0370
siesta:   18    -9365.5803    -9363.0029    -9363.0711  0.1187 -5.0867
siesta:   19    -9365.5586    -9363.9664    -9364.0320  0.1435 -5.0815
siesta:   20    -9365.5386    -9365.3246    -9365.3877  0.1384 -5.0918
siesta:   21    -9365.5263    -9366.0483    -9366.1119  0.1303 -5.0886
siesta:   22    -9365.5104    -9367.1944    -9367.2593  0.0805 -5.0841
siesta:   23    -9365.4952    -9367.7135    -9367.7805  0.0709 -5.0763
siesta:   24    -9365.4895    -9367.8749    -9367.9422  0.0294 -5.0602
siesta:   25    -9365.4849    -9367.4047    -9367.4726  0.0163 -5.0537
siesta:   26    -9365.4823    -9366.9601    -9367.0283  0.0100 -5.0497
siesta:   27    -9365.4816    -9366.7155    -9366.7843  0.0109 -5.0542
siesta:   28    -9365.4806    -9366.5022    -9366.5705  0.0063 -5.0525
siesta:   29    -9365.4808    -9366.0708    -9366.1392  0.0062 -5.0516
siesta:   30    -9365.4807    -9365.8889    -9365.9572  0.0060 -5.0513
siesta:   31    -9365.4805    -9365.6387    -9365.7071  0.0029 -5.0536
siesta:   32    -9365.4801    -9365.6565    -9365.7249  0.0017 -5.0540
siesta:   33    -9365.4801    -9365.6484    -9365.7171  0.0015 -5.0544
siesta:   34    -9365.4800    -9365.5612    -9365.6299  0.0011 -5.0540
siesta:   35    -9365.4802    -9365.5206    -9365.5893  0.0007 -5.0541
siesta:   36    -9365.4802    -9365.5017    -9365.5703  0.0006 -5.0540
siesta:   37    -9365.4802    -9365.5035    -9365.5720  0.0004 -5.0540
siesta:   38    -9365.4801    -9365.4959    -9365.5644  0.0003 -5.0539
siesta:   39    -9365.4802    -9365.4934    -9365.5620  0.0002 -5.0539
siesta:   40    -9365.4802    -9365.4924    -9365.5610  0.0001 -5.0539
siesta:   41    -9365.4802    -9365.4841    -9365.5527  0.0001 -5.0539

siesta: E_KS(eV) =            -9365.4833

siesta: E_KS - E_eggbox =     -9365.4833

siesta: Atomic forces (eV/Ang):
----------------------------------------
   Tot   -0.173774    0.054259    0.000000
----------------------------------------
   Max  566.903318
   Res  138.792993    sqrt( Sum f_i^2 / 3N )
----------------------------------------
   Max  566.903318    constrained

Stress-tensor-Voigt (kbar):     -710.62    -2501.00       -0.64       19.27        0.00        0.00
(Free)E + p*V (eV/cell)    -8100.2996
Target enthalpy (eV/cell)    -9365.5519

siesta: Stress tensor (static) (eV/Ang**3):
        -0.443530    0.012028    0.000000
         0.012028   -1.560984    0.000000
         0.000000    0.000000   -0.000400

siesta: Pressure (static):       1070.75365560  kBar

siesta: Stress tensor (total) (eV/Ang**3):
        -0.443530    0.012028    0.000000
         0.012028   -1.560984    0.000000
         0.000000    0.000000   -0.000400

siesta: Pressure (total):       1070.75365560  kBar

siesta: Temp_ion =       0.000 K

* Maximum dynamic memory allocated =   242 MB
Computing bands...

siesta: Program's energy decomposition (eV):
siesta: Ebs     =     -4204.467515
siesta: Eions   =     15969.933558
siesta: Ena     =      4249.530994
siesta: Ekin    =      8155.378192
siesta: Enl     =      -819.578374
siesta: DEna    =      -727.353124
siesta: DUscf   =        95.217480
siesta: DUext   =         0.000000
siesta: Exc     =     -4348.744953
siesta: eta*DQ  =         0.000000
siesta: Emadel  =         0.000000
siesta: Emeta   =         0.000000
siesta: Emolmec =         0.000000
siesta: Ekinion =         0.000000
siesta: Eharris =     -9365.480164
siesta: Etot    =     -9365.483342
siesta: FreeEng =     -9365.551913

siesta: Final energy (eV):
siesta:  Band Struct. =   -4204.467515
siesta:       Kinetic =    8155.378192
siesta:       Hartree =   26593.022080
siesta:    Ext. field =       0.000000
siesta:   Exch.-corr. =   -4348.744953
siesta:  Ion-electron =  -61097.510231
siesta:       Ion-ion =   21332.371569
siesta:       Ekinion =       0.000000
siesta:         Total =   -9365.483342

siesta: Atomic forces (eV/Ang):
siesta:      1   -0.307221 -397.070210    0.000000
siesta:      2    1.147503  109.026708    0.000000
siesta:      3    2.973509 -293.268842    0.000000
siesta:      4   17.407651   -0.018011    0.000000
siesta:      5   22.794854 -282.316407    0.000000
siesta:      6   -1.238927    1.076463    0.000000
siesta:      7    3.280868    3.971271    0.000000
siesta:      8    3.377408   -1.946680    0.000000
siesta:      9    3.980547    2.961432    0.000000
siesta:     10   22.914075  283.691555    0.000000
siesta:     11   19.732181    2.227477    0.000000
siesta:     12   20.500579  300.949435    0.000000
siesta:     13   -0.365117   -3.917990    0.000000
siesta:     14    4.466008    0.832523    0.000000
siesta:     15   -2.962310   -2.165508    0.000000
siesta:     16    5.050081    3.486554    0.000000
siesta:     17   -8.624997    3.782327    0.000000
siesta:     18   -8.170937  109.834033    0.000000
siesta:     19   -2.170146 -408.207797    0.000000
siesta:     20   -1.454931  549.723831    0.000000
siesta:     21    1.136597 -127.120536    0.000000
siesta:     22   -0.641252  128.186369    0.000000
siesta:     23  -27.127385    3.960662    0.000000
siesta:     24  -31.902940 -551.586747    0.000000
siesta:     25    6.190109  545.164909    0.000000
siesta:     26    9.009833 -121.836561    0.000000
siesta:     27    1.483257    0.898193    0.000000
siesta:     28    2.143629   -1.597345    0.000000
siesta:     29   -0.172089    0.131169    0.000000
siesta:     30    2.278136   -2.598302    0.000000
siesta:     31    0.128304    6.854557    0.000000
siesta:     32    3.006569   -8.815595    0.000000
siesta:     33  -10.739774  546.524627    0.000000
siesta:     34   -2.154158 -123.506538    0.000000
siesta:     35   -1.024759  551.518991    0.000000
siesta:     36   12.550948 -118.508416    0.000000
siesta:     37   22.509814   -0.611570    0.000000
siesta:     38   -2.221202    1.792331    0.000000
siesta:     39    0.647398   -0.117012    0.000000
siesta:     40   -0.971566    1.331815    0.000000
siesta:     41   -3.114759   -2.464371    0.000000
siesta:     42  -32.323411  551.228139    0.000000
siesta:     43  -27.267952   -2.681435    0.000000
siesta:     44  -24.138788  405.593158    0.000000
siesta:     45  -22.804952   -3.124383    0.000000
siesta:     46    2.951521  417.425314    0.000000
siesta:     47    2.580618    1.191936    0.000000
siesta:     48   -0.602660   -0.610260    0.000000
siesta:     49    0.253634    0.382553    0.000000
siesta:     50    2.043682   -1.221685    0.000000
siesta:     51   -3.084387   -1.636751    0.000000
siesta:     52    2.193386   -2.129069    0.000000
siesta:     53    1.985693    4.710580    0.000000
siesta:     54    1.486257    0.300928    0.000000
siesta:     55   -6.563221   -4.084264    0.000000
siesta:     56   -0.669293    5.295528    0.000000
siesta:     57   -2.417465   -7.461007    0.000000
siesta:     58    2.935048    2.717439    0.000000
siesta:     59   -0.530482   -0.839863    0.000000
siesta:     60   -2.910133   -2.896165    0.000000
siesta:     61   -1.111682   -1.389525    0.000000
siesta:     62    1.019247 -566.903318    0.000000
siesta:     63    1.672819    1.795623    0.000000
siesta:     64    1.149662   -2.113676    0.000000
siesta:     65   21.259221    5.102784    0.000000
siesta:     66   30.891795 -551.901496    0.000000
siesta:     67  -21.547082    5.626150    0.000000
siesta:     68  -26.224292 -554.570161    0.000000
siesta:     69   -2.018971    1.495915    0.000000
siesta:     70    2.466417    1.782999    0.000000
siesta:     71    1.597053  126.465356    0.000000
siesta:     72   14.209554 -537.749878    0.000000
siesta: ----------------------------------------
siesta:    Tot   -0.173774    0.054259    0.000000

siesta: Stress tensor (static) (eV/Ang**3):
siesta:    -0.443530    0.012028    0.000000
siesta:     0.012028   -1.560984    0.000000
siesta:     0.000000    0.000000   -0.000400

siesta: Cell volume =       1893.226884 Ang**3

siesta: Pressure (static):
siesta:                Solid            Molecule  Units
siesta:           0.00727869          0.10372382  Ry/Bohr**3
siesta:           0.66830464          9.52356859  eV/Ang**3
siesta:        1070.75365560      15258.60399316  kBar
(Free)E+ p_basis*V_orbitals  =       -9328.811181
(Free)Eharris+ p_basis*V_orbitals  =       -9328.807237

siesta: Electric dipole (a.u.)  =    0.000000    0.000000    0.000000
siesta: Electric dipole (Debye) =    0.000000    0.000000    0.000000

* Maximum dynamic memory allocated : Node    0 =   242 MB
* Maximum dynamic memory allocated : Node    1 =    85 MB
* Maximum dynamic memory allocated : Node    2 =    88 MB
* Maximum dynamic memory allocated : Node    3 =   229 MB
* Maximum dynamic memory allocated : Node    4 =   224 MB
* Maximum dynamic memory allocated : Node    5 =    81 MB
* Maximum dynamic memory allocated : Node    6 =    84 MB
* Maximum dynamic memory allocated : Node    7 =   206 MB

* Maximum memory occured during matrixMtoO                    

timer: CPU execution times:
timer:  Routine       Calls   Time/call    Tot.time        %
timer:  siesta            1  140797.877  140797.877   100.00
timer:  Setup             1       2.656       2.656     0.00
timer:  bands             3     243.582     730.745     0.52
timer:  writewave         1       0.022       0.022     0.00
timer:  KSV_init          1       0.000       0.000     0.00
timer:  IterMD            1  140059.234  140059.234    99.48
timer:  hsparse           1       0.520       0.520     0.00
timer:  overlap           1       7.212       7.212     0.01
timer:  IterSCF          41    3411.069  139853.842    99.33
timer:  kinefsm           2       3.747       7.493     0.01
timer:  nlefsm            2      20.098      40.197     0.03
timer:  DHSCF            42     105.281    4421.798     3.14
timer:  DHSCF1            1       0.994       0.994     0.00
timer:  DHSCF2            1      42.445      42.445     0.03
timer:  REORD           338       0.005       1.731     0.00
timer:  POISON           43       0.877      37.726     0.03
timer:  DHSCF3           42     103.280    4337.742     3.08
timer:  rhoofd           42      23.072     969.014     0.69
timer:  cellXC           42       3.212     134.919     0.10
timer:  vmat             42      48.517    2037.724     1.45
timer:  MolMec            2       0.000       0.000     0.00
timer:  diagon           41    3305.152  135511.225    96.25
timer:  c-eigval       9592       6.020   57740.418    41.01
timer:  c-buildHS      9592       0.053     507.799     0.36
timer:  cdiag         19063       6.154  117312.503    83.32
timer:  cdiag1        19063       0.385    7336.646     5.21
timer:  cdiag2        19063       1.768   33695.459    23.93
timer:  cdiag3        19063       3.721   70934.962    50.38
timer:  cdiag4        19063       0.157    2996.695     2.13
timer:  c-eigvec       9471       6.388   60501.955    42.97
timer:  c-buildD       9471       1.895   17950.300    12.75
timer:  DHSCF4            1      39.848      39.848     0.03
timer:  dfscf             1      37.068      37.068     0.03
timer:  overfsm           1       0.457       0.457     0.00
timer:  optical           1       4.578       4.578     0.00
  

elaps: ELAPSED times:
elaps:  Routine       Calls   Time/call    Tot.time        %
elaps:  siesta            1   17633.000   17633.000   100.00
elaps:  Setup             1       0.333       0.333     0.00
elaps:  bands             3      30.522      91.566     0.52
elaps:  writewave         1       0.002       0.002     0.00
elaps:  KSV_init          1       0.000       0.000     0.00
elaps:  IterMD            1   17540.496   17540.496    99.48
elaps:  hsparse           1       0.066       0.066     0.00
elaps:  overlap           1       0.904       0.904     0.01
elaps:  IterSCF          41     427.190   17514.776    99.33
elaps:  kinefsm           2       0.470       0.940     0.01
elaps:  nlefsm            2       2.570       5.140     0.03
elaps:  DHSCF            42      13.305     558.803     3.17
elaps:  DHSCF1            1       0.126       0.126     0.00
elaps:  DHSCF2            1       5.314       5.314     0.03
elaps:  REORD           338       0.001       0.232     0.00
elaps:  POISON           43       0.110       4.749     0.03
elaps:  DHSCF3           42      12.935     543.267     3.08
elaps:  rhoofd           42       6.323     265.573     1.51
elaps:  cellXC           42       0.402      16.886     0.10
elaps:  vmat             42       6.076     255.204     1.45
elaps:  MolMec            2       0.000       0.000     0.00
elaps:  diagon           41     413.926   16970.962    96.25
elaps:  c-eigval       9592       0.754    7231.051    41.01
elaps:  c-buildHS      9592       0.007      68.101     0.39
elaps:  cdiag         19063       0.769   14664.539    83.17
elaps:  cdiag1        19063       0.049     925.055     5.25
elaps:  cdiag2        19063       0.221    4220.882    23.94
elaps:  cdiag3        19063       0.467    8895.184    50.45
elaps:  cdiag4        19063       0.019     363.288     2.06
elaps:  c-eigvec       9471       0.798    7559.510    42.87
elaps:  c-buildD       9471       0.239    2263.454    12.84
elaps:  DHSCF4            1      10.002      10.002     0.06
elaps:  dfscf             1       9.447       9.447     0.05
elaps:  overfsm           1       0.057       0.057     0.00
elaps:  optical           1       0.000       0.000     0.00
  
>> End of run:  30-APR-2016  11:20:13
