Siesta Version:                                        siesta-3.2-pl-3
Architecture  : x86_64-unknown-linux-gnu--unknown
Compiler flags: mpiifort -g -O2 -fPIC -xSSE4.1 -fp-model source -shared-intel 
PARALLEL version

* Running on   12 nodes in parallel
>> Start of run:  29-APR-2016   2:17:52

                           ***********************       
                           *  WELCOME TO SIESTA  *       
                           ***********************       

reinit: Reading from standard input
************************** Dump of input data file ****************************
#(1) General system descriptors
SystemName            GRP_doping    # Descriptive name of the system
SystemLabel           GRP_doping    # Short name for naming files
%include STRUCT.fdf
%include KPT.fdf
%include BASIS.fdf
#%include TS.fdf # for transiesta calculation
#(4) DFT, Grid, SCF
XC.functional         GGA           # LDA or GGA (default = LDA)
XC.authors            PBE           # CA (Ceperley-Aldr) = PZ
                                    #    (Perdew-Zunger) - LDA - Default
                                    # PW92 (Perdew-Wang-92) - LDA
                                    # PBE (Perdew-Burke-Ernzerhof) - GGA
MeshCutoff            200.000000    Ry      # Default: 50.0 Ry ~ 0.444 Bohr
                                    #         100.0 Ry ~ 0.314 Bohr
MaxSCFIterations      500           # Default: 50
DM.MixingWeight       0.05          # Default: 0.25
DM.NumberPulay        10            # Default: 0
DM.PulayOnFile        F             # SystemLabel.P1, SystemLabel.P2
DM.Tolerance          1.d-4         # Default: 1.d-4
DM.UseSaveDM          .true.        # because of the bug
SCFMustConverge       .true.
NeglNonOverlapInt     F             # Default: F
#(5) Eigenvalue problem: order-N or diagonalization
SolutionMethod        Diagon        # or Transiesta
ElectronicTemperature 300.0 K       # Default: 300.0 K
#(6) Molecular dynamics and relaxations
#MD.TypeOfRun          CG            # Type of dynamics:
#MD.VariableCell       F
#MD.NumCGsteps         0           # 0 for single-point / 100 for gopt
#MD.MaxCGDispl         0.2 Bohr      # Default: 0.2 Bohr
#MD.MaxForceTol        0.02 eV/Ang   # Default: 0.04 eV/Ang
#MD.MaxStressTol       1.0 GPa       # Default: 1.0 GPa
# Geometry Constraints
#%block GeometryConstraints
#	position from 1 to 44
#%endblock GeometryConstraints
BandLinesScale   pi/a
%block BandLines
 1   0.00000000  0.00000000  0.00000000
50   0.00000000  0.07809418  0.00000000
50   0.04509075  0.07809242  0.00000000
20   0.00000000  0.00000000  0.00000000
%endblock BandLines
************************** End of input data file *****************************

reinit: -----------------------------------------------------------------------
reinit: System Name: GRP_doping
reinit: -----------------------------------------------------------------------
reinit: System Label: GRP_doping                                                  
reinit: -----------------------------------------------------------------------

initatom: Reading input for the pseudopotentials and atomic orbitals ----------
 Species number:            1  Label: N Atomic number:           7
 Species number:            2  Label: C Atomic number:           6
Ground state valence configuration:   2s02  2p03
Reading pseudopotential information in formatted form from N.psf

Valence configuration for pseudopotential generation:
2s( 2.00) rc: 1.48
2p( 3.00) rc: 1.48
3d( 0.00) rc: 1.48
4f( 0.00) rc: 1.48
Ground state valence configuration:   2s02  2p02
Reading pseudopotential information in formatted form from C.psf

Valence configuration for pseudopotential generation:
2s( 2.00) rc: 1.54
2p( 2.00) rc: 1.54
3d( 0.00) rc: 1.54
4f( 0.00) rc: 1.54
For N, standard SIESTA heuristics set lmxkb to 3
 (one more than the basis l, including polarization orbitals).
Use PS.lmax or PS.KBprojectors blocks to override.
For C, standard SIESTA heuristics set lmxkb to 3
 (one more than the basis l, including polarization orbitals).
Use PS.lmax or PS.KBprojectors blocks to override.

<basis_specs>
===============================================================================
N                    Z=   7    Mass=  14.010        Charge= 0.17977+309
Lmxo=1 Lmxkb= 3    BasisType=split      Semic=F
L=0  Nsemic=0  Cnfigmx=2
          n=1  nzeta=2  polorb=0
            splnorm:   0.15000    
               vcte:    0.0000    
               rinn:    0.0000    
                rcs:    0.0000      0.0000    
            lambdas:    1.0000      1.0000    
L=1  Nsemic=0  Cnfigmx=2
          n=1  nzeta=2  polorb=1
            splnorm:   0.15000    
               vcte:    0.0000    
               rinn:    0.0000    
                rcs:    0.0000      0.0000    
            lambdas:    1.0000      1.0000    
-------------------------------------------------------------------------------
L=0  Nkbl=1  erefs: 0.17977+309
L=1  Nkbl=1  erefs: 0.17977+309
L=2  Nkbl=1  erefs: 0.17977+309
L=3  Nkbl=1  erefs: 0.17977+309
===============================================================================
</basis_specs>

atom: Called for N                     (Z =   7)

read_vps: Pseudopotential generation method:
read_vps: ATM3      Troullier-Martins                       
Total valence charge:    5.00000

read_vps: Pseudopotential includes a core correction:
read_vps: Pseudo-core for xc-correction

xc_check: Exchange-correlation functional:
xc_check: GGA Perdew, Burke & Ernzerhof 1996
V l=0 = -2*Zval/r beyond r=  1.4606
V l=1 = -2*Zval/r beyond r=  1.4606
V l=2 = -2*Zval/r beyond r=  1.4606
V l=3 = -2*Zval/r beyond r=  1.4606
All V_l potentials equal beyond r=  1.4606
This should be close to max(r_c) in ps generation
All pots = -2*Zval/r beyond r=  1.4606

VLOCAL1: 99.0% of the norm of Vloc inside     20.347 Ry
VLOCAL1: 99.9% of the norm of Vloc inside     46.372 Ry
atom: Maximum radius for 4*pi*r*r*local-pseudopot. charge    1.76189
atom: Maximum radius for r*vlocal+2*Zval:    1.53550
GHOST: No ghost state for L =  0
GHOST: No ghost state for L =  1
GHOST: No ghost state for L =  2
GHOST: No ghost state for L =  3

KBgen: Kleinman-Bylander projectors: 
   l= 0   rc=  1.634559   el= -1.363963   Ekb=  5.296955   kbcos=  0.335621
   l= 1   rc=  1.614250   el= -0.521451   Ekb= -5.259161   kbcos= -0.433408
   l= 2   rc=  1.718383   el=  0.001991   Ekb= -1.271464   kbcos= -0.007566
   l= 3   rc=  1.761893   el=  0.003093   Ekb= -0.494769   kbcos= -0.001015

KBgen: Total number of  Kleinman-Bylander projectors:   16
atom: -------------------------------------------------------------------------

atom: SANKEY-TYPE ORBITALS:
atom: Selected multiple-zeta basis: split     

SPLIT: Orbitals with angular momentum L= 0

SPLIT: Basis orbitals for state 2s

SPLIT: PAO cut-off radius determined from an
SPLIT: energy shift=  0.007350 Ry

   izeta = 1
                 lambda =    1.000000
                     rc =    4.071465
                 energy =   -1.356470
                kinetic =    1.176977
    potential(screened) =   -2.533447
       potential(ionic) =   -8.057990

   izeta = 2
                 rmatch =    2.905100
              splitnorm =    0.150000
                 energy =   -1.158343
                kinetic =    1.813009
    potential(screened) =   -2.971352
       potential(ionic) =   -8.901931

SPLIT: Orbitals with angular momentum L= 1

SPLIT: Basis orbitals for state 2p

SPLIT: PAO cut-off radius determined from an
SPLIT: energy shift=  0.007350 Ry

   izeta = 1
                 lambda =    1.000000
                     rc =    4.972977
                 energy =   -0.513884
                kinetic =    3.441732
    potential(screened) =   -3.955616
       potential(ionic) =   -9.287901

   izeta = 2
                 rmatch =    3.054066
              splitnorm =    0.150000
                 energy =   -0.318226
                kinetic =    5.125348
    potential(screened) =   -5.443573
       potential(ionic) =  -11.380999

POLgen: Perturbative polarization orbital with L=  2

POLgen: Polarization orbital for state 2p

   izeta = 1
                     rc =    4.972977
                 energy =    1.607437
                kinetic =    3.268125
    potential(screened) =   -1.660688
       potential(ionic) =   -5.973652
atom: Total number of Sankey-type orbitals: 13

atm_pop: Valence configuration (for local Pseudopot. screening):
 2s( 2.00)                                                            
 2p( 3.00)                                                            
Vna: chval, zval:    5.00000   5.00000

Vna:  Cut-off radius for the neutral-atom potential:   4.972977
comcore: Pseudo-core radius Rcore=  1.554824

atom: _________________________________________________________________________

<basis_specs>
===============================================================================
C                    Z=   6    Mass=  12.010        Charge= 0.17977+309
Lmxo=1 Lmxkb= 3    BasisType=split      Semic=F
L=0  Nsemic=0  Cnfigmx=2
          n=1  nzeta=2  polorb=0
            splnorm:   0.15000    
               vcte:    0.0000    
               rinn:    0.0000    
                rcs:    0.0000      0.0000    
            lambdas:    1.0000      1.0000    
L=1  Nsemic=0  Cnfigmx=2
          n=1  nzeta=2  polorb=1
            splnorm:   0.15000    
               vcte:    0.0000    
               rinn:    0.0000    
                rcs:    0.0000      0.0000    
            lambdas:    1.0000      1.0000    
-------------------------------------------------------------------------------
L=0  Nkbl=1  erefs: 0.17977+309
L=1  Nkbl=1  erefs: 0.17977+309
L=2  Nkbl=1  erefs: 0.17977+309
L=3  Nkbl=1  erefs: 0.17977+309
===============================================================================
</basis_specs>

atom: Called for C                     (Z =   6)

read_vps: Pseudopotential generation method:
read_vps: ATM3      Troullier-Martins                       
Total valence charge:    4.00000

read_vps: Pseudopotential includes a core correction:
read_vps: Pseudo-core for xc-correction

xc_check: Exchange-correlation functional:
xc_check: GGA Perdew, Burke & Ernzerhof 1996
V l=0 = -2*Zval/r beyond r=  1.5227
V l=1 = -2*Zval/r beyond r=  1.5227
V l=2 = -2*Zval/r beyond r=  1.5227
V l=3 = -2*Zval/r beyond r=  1.5038
All V_l potentials equal beyond r=  1.5227
This should be close to max(r_c) in ps generation
All pots = -2*Zval/r beyond r=  1.5227

VLOCAL1: 99.0% of the norm of Vloc inside     18.722 Ry
VLOCAL1: 99.9% of the norm of Vloc inside     42.668 Ry
atom: Maximum radius for 4*pi*r*r*local-pseudopot. charge    1.83678
atom: Maximum radius for r*vlocal+2*Zval:    1.58088
GHOST: No ghost state for L =  0
GHOST: No ghost state for L =  1
GHOST: No ghost state for L =  2
GHOST: No ghost state for L =  3

KBgen: Kleinman-Bylander projectors: 
   l= 0   rc=  1.704034   el= -1.009801   Ekb=  5.335044   kbcos=  0.316824
   l= 1   rc=  1.704034   el= -0.388707   Ekb= -3.785862   kbcos= -0.366464
   l= 2   rc=  1.791422   el=  0.001971   Ekb= -0.970471   kbcos= -0.009212
   l= 3   rc=  1.859892   el=  0.003065   Ekb= -0.399525   kbcos= -0.001223

KBgen: Total number of  Kleinman-Bylander projectors:   16
atom: -------------------------------------------------------------------------

atom: SANKEY-TYPE ORBITALS:
atom: Selected multiple-zeta basis: split     

SPLIT: Orbitals with angular momentum L= 0

SPLIT: Basis orbitals for state 2s

SPLIT: PAO cut-off radius determined from an
SPLIT: energy shift=  0.007350 Ry

   izeta = 1
                 lambda =    1.000000
                     rc =    4.632753
                 energy =   -1.002270
                kinetic =    0.855760
    potential(screened) =   -1.858031
       potential(ionic) =   -5.417575

   izeta = 2
                 rmatch =    3.431921
              splitnorm =    0.150000
                 energy =   -0.867111
                kinetic =    1.300804
    potential(screened) =   -2.167915
       potential(ionic) =   -5.962684

SPLIT: Orbitals with angular momentum L= 1

SPLIT: Basis orbitals for state 2p

SPLIT: PAO cut-off radius determined from an
SPLIT: energy shift=  0.007350 Ry

   izeta = 1
                 lambda =    1.000000
                     rc =    5.658549
                 energy =   -0.381140
                kinetic =    2.399701
    potential(screened) =   -2.780841
       potential(ionic) =   -6.206085

   izeta = 2
                 rmatch =    3.653288
              splitnorm =    0.150000
                 energy =   -0.249149
                kinetic =    3.542762
    potential(screened) =   -3.791911
       potential(ionic) =   -7.581078

POLgen: Perturbative polarization orbital with L=  2

POLgen: Polarization orbital for state 2p

   izeta = 1
                     rc =    5.658549
                 energy =    1.109913
                kinetic =    2.304789
    potential(screened) =   -1.194876
       potential(ionic) =   -4.013592
atom: Total number of Sankey-type orbitals: 13

atm_pop: Valence configuration (for local Pseudopot. screening):
 2s( 2.00)                                                            
 2p( 2.00)                                                            
Vna: chval, zval:    4.00000   4.00000

Vna:  Cut-off radius for the neutral-atom potential:   5.658549
comcore: Pseudo-core radius Rcore=  1.791422

atom: _________________________________________________________________________

prinput: Basis input ----------------------------------------------------------

PAO.BasisType split     

%block ChemicalSpeciesLabel
    1    7 N                       # Species index, atomic number, species label
    2    6 C                       # Species index, atomic number, species label
%endblock ChemicalSpeciesLabel

%block PAO.Basis                 # Define Basis set
N                     2                    # Species label, number of l-shells
 n=2   0   2                         # n, l, Nzeta 
   4.071      2.905   
   1.000      1.000   
 n=2   1   2 P   1                   # n, l, Nzeta, Polarization, NzetaPol
   4.973      3.054   
   1.000      1.000   
C                     2                    # Species label, number of l-shells
 n=2   0   2                         # n, l, Nzeta 
   4.633      3.432   
   1.000      1.000   
 n=2   1   2 P   1                   # n, l, Nzeta, Polarization, NzetaPol
   5.659      3.653   
   1.000      1.000   
%endblock PAO.Basis

prinput: ----------------------------------------------------------------------

coor:   Atomic-coordinates input format  =     Fractional

siesta: Atomic coordinates (Bohr) and species
siesta:      4.63094  21.41544   0.00000  1        1
siesta:      6.95932  22.75985   0.00000  1        2
siesta:      6.95932  25.44831   0.00000  1        3
siesta:     -0.02582  21.41544   0.00000  1        4
siesta:      2.30256  22.75985   0.00000  1        5
siesta:      2.30256  25.44831   0.00000  1        6
siesta:     -4.68258  21.41544   0.00000  1        7
siesta:     -2.35420  22.75985   0.00000  1        8
siesta:     -2.35420  25.44831   0.00000  1        9
siesta:     -9.33934  21.41544   0.00000  1       10
siesta:     -7.01096  22.75985   0.00000  1       11
siesta:     -7.01096  25.44831   0.00000  1       12
siesta:    -11.66772  22.75985   0.00000  1       13
siesta:    -11.66772  25.44831   0.00000  1       14
siesta:     -9.33934  26.79272   0.00000  1       15
siesta:      4.63094  26.79272   0.00000  1       16
siesta:     -0.02582  26.79272   0.00000  1       17
siesta:     -4.68258  26.79272   0.00000  1       18
siesta:     -0.02582  42.92421   0.00000  1       19
siesta:     -0.02582  45.61267   0.00000  1       20
siesta:     -0.02582   2.59549   0.00000  2       21
siesta:     -0.02582   5.28395   0.00000  2       22
siesta:     -2.35420  38.89134   0.00000  2       23
siesta:     -2.35420  41.57980   0.00000  2       24
siesta:      2.30256  38.89134   0.00000  2       25
siesta:      2.30256  41.57980   0.00000  2       26
siesta:      4.63094  34.85847   0.00000  2       27
siesta:      4.63094  37.54693   0.00000  2       28
siesta:      6.95932  30.82560   0.00000  2       29
siesta:      6.95932  33.51406   0.00000  2       30
siesta:      9.28770  26.79272   0.00000  2       31
siesta:      9.28770  29.48119   0.00000  2       32
siesta:     -4.68258  34.85847   0.00000  2       33
siesta:     -4.68258  37.54693   0.00000  2       34
siesta:      2.30256   6.62836   0.00000  2       35
siesta:      2.30256   9.31683   0.00000  2       36
siesta:      4.63094  10.66124   0.00000  2       37
siesta:      4.63094  13.34970   0.00000  2       38
siesta:      6.95932  14.69411   0.00000  2       39
siesta:      6.95932  17.38257   0.00000  2       40
siesta:      9.28770  18.72698   0.00000  2       41
siesta:      9.28770  21.41544   0.00000  2       42
siesta:     11.61608  22.75985   0.00000  2       43
siesta:     11.61608  25.44831   0.00000  2       44
siesta:     -2.35420   6.62836   0.00000  2       45
siesta:     -2.35420   9.31683   0.00000  2       46
siesta:     -0.02582  10.66124   0.00000  2       47
siesta:     -0.02582  13.34970   0.00000  2       48
siesta:      2.30256  14.69411   0.00000  2       49
siesta:      2.30256  17.38257   0.00000  2       50
siesta:      4.63094  18.72698   0.00000  2       51
siesta:     -4.68258  10.66124   0.00000  2       52
siesta:     -4.68258  13.34970   0.00000  2       53
siesta:     -2.35420  14.69411   0.00000  2       54
siesta:     -2.35420  17.38257   0.00000  2       55
siesta:     -0.02582  18.72698   0.00000  2       56
siesta:     -7.01096  14.69411   0.00000  2       57
siesta:     -7.01096  17.38257   0.00000  2       58
siesta:     -4.68258  18.72698   0.00000  2       59
siesta:     -9.33934  18.72698   0.00000  2       60
siesta:     -9.33934  29.48119   0.00000  2       61
siesta:      4.63094  29.48119   0.00000  2       62
siesta:     -0.02582  29.48119   0.00000  2       63
siesta:     -4.68258  29.48119   0.00000  2       64
siesta:      2.30256  30.82560   0.00000  2       65
siesta:      2.30256  33.51406   0.00000  2       66
siesta:     -2.35420  30.82560   0.00000  2       67
siesta:     -2.35420  33.51406   0.00000  2       68
siesta:     -7.01096  30.82560   0.00000  2       69
siesta:     -7.01096  33.51406   0.00000  2       70
siesta:     -0.02582  34.85847   0.00000  2       71
siesta:     -0.02582  37.54693   0.00000  2       72

siesta: System type = slab      

initatomlists: Number of atoms, orbitals, and projectors:     72   936  1152

siesta: ******************** Simulation parameters ****************************
siesta:
siesta: The following are some of the parameters of the simulation.
siesta: A complete list of the parameters used, including default values,
siesta: can be found in file out.fdf
siesta:
redata: Non-Collinear-spin run           =     F
redata: SpinPolarized (Up/Down) run      =     F
redata: Number of spin components        =     1
redata: Long output                      =     F
redata: Number of Atomic Species         =        2
redata: Charge density info will appear in .RHO file
redata: Write Mulliken Pop.              =     NO
redata: Mesh Cutoff                      =   200.0000  Ry
redata: Net charge of the system         =     0.0000 |e|
redata: Max. number of SCF Iter          =      500
redata: SCF convergence failure will abort job
redata: Performing Pulay mixing using    =    10 iterations
redata: Mix DM in first SCF step ?       =     F
redata: Write Pulay info on disk?        =     F
redata: Discard 1st Pulay DM after  kick =     F
redata: New DM Mixing Weight             =     0.0500
redata: New DM Occupancy tolerance       = 0.000000000001
redata: No kicks to SCF
redata: DM Mixing Weight for Kicks       =     0.5000
redata: DM Tolerance for SCF             =     0.000100
redata: Require Energy convergence for SCF =     F
redata: DM Energy tolerance for SCF      =     0.000100 eV
redata: Require Harris convergence for SCF =     F
redata: DM Harris energy tolerance for SCF =     0.000100 eV
redata: Using Saved Data (generic)   =     F
redata: Use continuation files for DM    =     T
redata: Neglect nonoverlap interactions  =     F
redata: Method of Calculation            =     Diagonalization
redata: Divide and Conquer               =     T
redata: Electronic Temperature           =     0.0019  Ry
redata: Fix the spin of the system       =     F
redata: Dynamics option                  =     Verlet MD run
redata: Initial MD time step             =        1
redata:   Final MD time step             =        1
redata: Length of MD time step           =     1.0000  fs
redata: Initial Temperature of MD run    =     0.0000  K
redata: Perform a MD quench              =     F
redata: ***********************************************************************
Total number of electrons:   308.000000
Total ionic charge:   308.000000

* ProcessorY, Blocksize:    3  24

k-point displ. along   1 input, could be:     0.50    0.00
k-point displ. along   2 input, could be:     0.50    0.00
 Kpoints in:          231 . Kpoints trimmed:          231

siesta: k-grid: Number of k-points =   231
siesta: k-grid: Cutoff (effective) =     5.000 Ang
siesta: k-grid: Supercell and displacements
siesta: k-grid:   21   0   0      0.500
siesta: k-grid:    0  21   0      0.500
siesta: k-grid:    0   0   1      0.000
Naive supercell factors:     2    2    2

superc: Internal auxiliary supercell:     2 x     2 x     2  =       8
superc: Number of atoms, orbitals, and projectors:    576   7488   9216

* Maximum dynamic memory allocated =     4 MB

siesta:                 ==============================
                            Begin MD step =      1
                        ==============================

superc: Internal auxiliary supercell:     2 x     2 x     2  =       8
superc: Number of atoms, orbitals, and projectors:    576   7488   9216

outcell: Unit cell vectors (Ang):
       12.804619    7.392750    0.000000
        0.000000   14.785500    0.000000
        0.000000    0.000000   10.000000

outcell: Cell vector modules (Ang)   :   14.785500   14.785500   10.000000
outcell: Cell angles (23,13,12) (deg):     90.0000     90.0000     60.0000
outcell: Cell volume (Ang**3)        :   1893.2269
New_DM. Step:     1
Initializing Density Matrix...

InitMesh: MESH =   120 x   120 x    90 =     1296000
InitMesh: Mesh cutoff (required, used) =   200.000   223.865 Ry

* Maximum dynamic memory allocated =   134 MB

stepf: Fermi-Dirac step function

siesta: Program's energy decomposition (eV):
siesta: Ebs     =     -6191.339322
siesta: Eions   =     21617.947954
siesta: Ena     =      4913.686788
siesta: Ekin    =      8056.630787
siesta: Enl     =        67.510587
siesta: DEna    =        -0.000015
siesta: DUscf   =         0.000000
siesta: DUext   =         0.000000
siesta: Exc     =     -4662.478630
siesta: eta*DQ  =         0.000000
siesta: Emadel  =         0.000000
siesta: Emeta   =         0.000000
siesta: Emolmec =         0.000000
siesta: Ekinion =         0.000000
siesta: Eharris =    -12894.439672
siesta: Etot    =    -13242.598438
siesta: FreeEng =    -13242.598438

siesta: iscf   Eharris(eV)      E_KS(eV)   FreeEng(eV)   dDmax  Ef(eV)
siesta:    1   -12894.4397   -13242.5984   -13242.5984  6.7973 -6.7756
timer: Routine,Calls,Time,% = IterSCF        1    3025.407  99.59
elaps: Routine,Calls,Wall,% = IterSCF        1     252.715  99.59
siesta:    2   -21063.9398   -11868.0857   -11868.1464 17.7732 -9.9992
siesta:    3   -12839.6583   -13072.8529   -13072.8643  3.6351 -5.4233
siesta:    4   -12791.0509   -12914.8279   -12914.8998  1.8083 -4.5983
siesta:    5   -12734.4327   -12835.0513   -12835.1188  1.0845 -3.9391
siesta:    6   -12725.2643   -12765.9277   -12765.9739  0.9190 -3.5917
siesta:    7   -12718.7768   -12749.5861   -12749.6509  0.6442 -3.6012
siesta:    8   -12714.3075   -12730.2843   -12730.3367  0.7189 -3.7429
siesta:    9   -12714.1922   -12721.3011   -12721.3637  0.4940 -3.7751
siesta:   10   -12715.2741   -12704.3857   -12704.4595  0.4269 -3.8903
siesta:   11   -12713.5607   -12695.6431   -12695.7121  0.4016 -3.8347
siesta:   12   -12713.9990   -12686.4220   -12686.4787  0.2207 -3.7679
siesta:   13   -12713.5093   -12683.7013   -12683.7679  0.2068 -3.7756
siesta:   14   -12712.6084   -12687.4307   -12687.4851  0.1425 -3.6728
siesta:   15   -12712.3423   -12688.6653   -12688.7363  0.1447 -3.6796
siesta:   16   -12711.9931   -12693.9790   -12694.0444  0.1399 -3.6883
siesta:   17   -12711.9155   -12698.3383   -12698.4058  0.0824 -3.7029
siesta:   18   -12711.8497   -12699.7522   -12699.8214  0.0894 -3.7316
siesta:   19   -12711.8178   -12703.3395   -12703.4114  0.0548 -3.7443
siesta:   20   -12711.8064   -12707.9131   -12707.9880  0.0310 -3.7405
siesta:   21   -12711.8063   -12710.2096   -12710.2834  0.0338 -3.7402
siesta:   22   -12711.7988   -12711.5543   -12711.6282  0.0246 -3.7402
siesta:   23   -12711.7989   -12713.0260   -12713.0994  0.0151 -3.7333
siesta:   24   -12711.7970   -12712.6784   -12712.7513  0.0114 -3.7258
siesta:   25   -12711.7959   -12712.7228   -12712.7956  0.0097 -3.7236
siesta:   26   -12711.7952   -12712.1715   -12712.2444  0.0119 -3.7271
siesta:   27   -12711.7949   -12712.2816   -12712.3547  0.0089 -3.7257
siesta:   28   -12711.7945   -12712.2732   -12712.3465  0.0054 -3.7244
siesta:   29   -12711.7942   -12712.3160   -12712.3893  0.0024 -3.7233
siesta:   30   -12711.7942   -12712.2483   -12712.3216  0.0017 -3.7236
siesta:   31   -12711.7942   -12712.1046   -12712.1779  0.0016 -3.7245
siesta:   32   -12711.7941   -12712.0183   -12712.0916  0.0008 -3.7248
siesta:   33   -12711.7941   -12711.9510   -12712.0243  0.0005 -3.7248
siesta:   34   -12711.7941   -12711.8596   -12711.9329  0.0004 -3.7249
siesta:   35   -12711.7941   -12711.8259   -12711.8992  0.0003 -3.7249
siesta:   36   -12711.7941   -12711.8029   -12711.8762  0.0003 -3.7252
siesta:   37   -12711.7941   -12711.8052   -12711.8785  0.0001 -3.7251

siesta: E_KS(eV) =           -12711.8059

siesta: E_KS - E_eggbox =    -12711.8059

siesta: Atomic forces (eV/Ang):
----------------------------------------
   Tot   -0.204830   -0.095370    0.000000
----------------------------------------
   Max  689.947234
   Res  165.619709    sqrt( Sum f_i^2 / 3N )
----------------------------------------
   Max  689.947234    constrained

Stress-tensor-Voigt (kbar):     -696.04    -2909.12       -0.03        0.06        0.00        0.00
(Free)E + p*V (eV/cell)   -11291.8568
Target enthalpy (eV/cell)   -12711.8792

siesta: Stress tensor (static) (eV/Ang**3):
        -0.434431    0.000035    0.000000
         0.000035   -1.815713    0.000000
         0.000000    0.000000   -0.000018

siesta: Pressure (static):       1201.73196715  kBar

siesta: Stress tensor (total) (eV/Ang**3):
        -0.434431    0.000035    0.000000
         0.000035   -1.815713    0.000000
         0.000000    0.000000   -0.000018

siesta: Pressure (total):       1201.73196715  kBar

siesta: Temp_ion =       0.000 K

* Maximum dynamic memory allocated =   145 MB
Computing bands...

siesta: Program's energy decomposition (eV):
siesta: Ebs     =     -5046.447459
siesta: Eions   =     21617.947954
siesta: Ena     =      4913.686788
siesta: Ekin    =     11016.371904
siesta: Enl     =     -1569.784963
siesta: DEna    =      -735.887945
siesta: DUscf   =       104.690004
siesta: DUext   =         0.000000
siesta: Exc     =     -4822.933730
siesta: eta*DQ  =         0.000000
siesta: Emadel  =         0.000000
siesta: Emeta   =         0.000000
siesta: Emolmec =         0.000000
siesta: Ekinion =         0.000000
siesta: Eharris =    -12711.794121
siesta: Etot    =    -12711.805896
siesta: FreeEng =    -12711.879180

siesta: Final energy (eV):
siesta:  Band Struct. =   -5046.447459
siesta:       Kinetic =   11016.371904
siesta:       Hartree =   34993.871159
siesta:    Ext. field =       0.000000
siesta:   Exch.-corr. =   -4822.933730
siesta:  Ion-electron =  -80568.582677
siesta:       Ion-ion =   26669.467447
siesta:       Ekinion =       0.000000
siesta:         Total =  -12711.805896

siesta: Atomic forces (eV/Ang):
siesta:      1    0.616026   -0.621233    0.000000
siesta:      2    0.031569    0.641363    0.000000
siesta:      3    0.036735   -0.666924    0.000000
siesta:      4   -0.257945   -5.291261    0.000000
siesta:      5    2.607969   -0.714451    0.000000
siesta:      6    2.004185    1.177471    0.000000
siesta:      7   -0.465444   -1.284067    0.000000
siesta:      8   -2.849930   -0.477642    0.000000
siesta:      9   -2.367089    1.152566    0.000000
siesta:     10   -1.389823   -3.295526    0.000000
siesta:     11    1.086310    1.555418    0.000000
siesta:     12    1.048973   -1.705571    0.000000
siesta:     13    1.440826    3.170482    0.000000
siesta:     14    1.444124   -3.192675    0.000000
siesta:     15   -1.381760    3.364502    0.000000
siesta:     16    0.323585    0.841886    0.000000
siesta:     17   -0.259418    4.362394    0.000000
siesta:     18    0.086300    1.494968    0.000000
siesta:     19   -0.228310  110.252199    0.000000
siesta:     20   -0.244971 -648.272832    0.000000
siesta:     21   -0.914402  544.231551    0.000000
siesta:     22   -0.065719 -127.191881    0.000000
siesta:     23   -0.133805  127.132932    0.000000
siesta:     24  -21.047958 -554.592114    0.000000
siesta:     25    0.202328  127.662603    0.000000
siesta:     26   20.846272 -554.799906    0.000000
siesta:     27   26.149521    6.771043    0.000000
siesta:     28   34.520145 -550.373909    0.000000
siesta:     29    1.898200   -0.127984    0.000000
siesta:     30   -3.123578    1.422594    0.000000
siesta:     31    1.483921    1.542310    0.000000
siesta:     32   -0.783044   -0.404663    0.000000
siesta:     33  -26.309961    7.176582    0.000000
siesta:     34  -34.811701 -550.564838    0.000000
siesta:     35   17.185641  549.122684    0.000000
siesta:     36   -1.016714 -127.704671    0.000000
siesta:     37   33.313713  549.468940    0.000000
siesta:     38   25.641228   -6.676620    0.000000
siesta:     39   -3.108323   -1.540013    0.000000
siesta:     40    1.818070   -0.193860    0.000000
siesta:     41   -0.970618    0.538675    0.000000
siesta:     42    1.580876   -1.517946    0.000000
siesta:     43   -0.849835    4.167442    0.000000
siesta:     44   -0.843908   -4.167678    0.000000
siesta:     45  -17.228422  549.043542    0.000000
siesta:     46    1.049060 -127.028626    0.000000
siesta:     47   -0.085234  547.513676    0.000000
siesta:     48   -0.011910 -124.723728    0.000000
siesta:     49    4.719043  558.744417    0.000000
siesta:     50   24.934180   -3.695800    0.000000
siesta:     51   -1.843233    3.290536    0.000000
siesta:     52  -33.301488  549.548244    0.000000
siesta:     53  -25.674462   -6.969450    0.000000
siesta:     54   -4.414262  558.691883    0.000000
siesta:     55  -24.867612   -4.016322    0.000000
siesta:     56    0.183475  689.947234    0.000000
siesta:     57    2.568106   -0.920447    0.000000
siesta:     58   -1.236447    0.242885    0.000000
siesta:     59    1.927162    3.529298    0.000000
siesta:     60   -0.818030    2.673818    0.000000
siesta:     61   -0.928841   -2.596783    0.000000
siesta:     62   -1.996850   -2.701663    0.000000
siesta:     63    0.658442 -565.666400    0.000000
siesta:     64    1.934598   -3.009319    0.000000
siesta:     65   23.166183    4.757450    0.000000
siesta:     66   19.146906 -557.895714    0.000000
siesta:     67  -23.002589    5.103498    0.000000
siesta:     68  -18.840994 -557.677196    0.000000
siesta:     69   -1.266511   -0.408956    0.000000
siesta:     70    2.544132    0.769763    0.000000
siesta:     71    0.003040  129.072497    0.000000
siesta:     72    0.535468 -547.586046    0.000000
siesta: ----------------------------------------
siesta:    Tot   -0.204830   -0.095370    0.000000

siesta: Stress tensor (static) (eV/Ang**3):
siesta:    -0.434431    0.000035    0.000000
siesta:     0.000035   -1.815713    0.000000
siesta:     0.000000    0.000000   -0.000018

siesta: Cell volume =       1893.226884 Ang**3

siesta: Pressure (static):
siesta:                Solid            Molecule  Units
siesta:           0.00816905          0.12952293  Ry/Bohr**3
siesta:           0.75005399         11.89235486  eV/Ang**3
siesta:        1201.73196715      19053.85903186  kBar
(Free)E+ p_basis*V_orbitals  =      -12684.000834
(Free)Eharris+ p_basis*V_orbitals  =      -12683.989731

siesta: Electric dipole (a.u.)  =    0.000000    0.000000    0.000000
siesta: Electric dipole (Debye) =    0.000000    0.000000    0.000000

* Maximum dynamic memory allocated : Node    0 =   144 MB
* Maximum dynamic memory allocated : Node    1 =    58 MB
* Maximum dynamic memory allocated : Node    2 =    60 MB
* Maximum dynamic memory allocated : Node    3 =   132 MB
* Maximum dynamic memory allocated : Node    4 =   145 MB
* Maximum dynamic memory allocated : Node    5 =    53 MB
* Maximum dynamic memory allocated : Node    6 =    54 MB
* Maximum dynamic memory allocated : Node    7 =   137 MB
* Maximum dynamic memory allocated : Node    8 =   122 MB
* Maximum dynamic memory allocated : Node    9 =    51 MB
* Maximum dynamic memory allocated : Node   10 =    52 MB
* Maximum dynamic memory allocated : Node   11 =   117 MB

* Maximum memory occured during matrixMtoO                    

timer: CPU execution times:
timer:  Routine       Calls   Time/call    Tot.time        %
timer:  siesta            1  109557.616  109557.616   100.00
timer:  Setup             1       3.463       3.463     0.00
timer:  bands             3     227.479     682.436     0.62
timer:  writewave         1       0.022       0.022     0.00
timer:  KSV_init          1       0.004       0.004     0.00
timer:  IterMD            1  108864.728  108864.728    99.37
timer:  hsparse           1       0.166       0.166     0.00
timer:  overlap           1       8.020       8.020     0.01
timer:  IterSCF          37    2938.973  108741.984    99.26
timer:  kinefsm           2       4.060       8.119     0.01
timer:  nlefsm            2      18.340      36.680     0.03
timer:  DHSCF            38      61.609    2341.128     2.14
timer:  DHSCF1            1       0.898       0.898     0.00
timer:  DHSCF2            1      24.668      24.668     0.02
timer:  REORD           306       0.002       0.756     0.00
timer:  POISON           39       0.449      17.511     0.02
timer:  DHSCF3           38      60.395    2295.016     2.09
timer:  rhoofd           38      12.004     456.155     0.42
timer:  cellXC           38       2.400      91.194     0.08
timer:  vmat             38      28.667    1089.352     0.99
timer:  MolMec            2       0.000       0.000     0.00
timer:  diagon           37    2876.112  106416.148    97.13
timer:  c-eigval       8668       5.618   48693.724    44.45
timer:  c-buildHS      8668       0.032     279.277     0.25
timer:  cdiag         17215       5.727   98585.981    89.99
timer:  cdiag1        17215       0.261    4484.931     4.09
timer:  cdiag2        17215       1.841   31695.616    28.93
timer:  cdiag3        17215       3.407   58658.835    53.54
timer:  cdiag4        17215       0.090    1553.367     1.42
timer:  c-eigvec       8547       5.897   50399.628    46.00
timer:  c-buildD       8547       0.931    7957.775     7.26
timer:  DHSCF4            1      20.271      20.271     0.02
timer:  dfscf             1      18.868      18.868     0.02
timer:  overfsm           1       0.280       0.280     0.00
timer:  optical           1       6.375       6.375     0.01
  

elaps: ELAPSED times:
elaps:  Routine       Calls   Time/call    Tot.time        %
elaps:  siesta            1    9151.237    9151.237   100.00
elaps:  Setup             1       0.289       0.289     0.00
elaps:  bands             3      19.017      57.052     0.62
elaps:  writewave         1       0.002       0.002     0.00
elaps:  KSV_init          1       0.000       0.000     0.00
elaps:  IterMD            1    9093.360    9093.360    99.37
elaps:  hsparse           1       0.017       0.017     0.00
elaps:  overlap           1       0.713       0.713     0.01
elaps:  IterSCF          37     245.489    9083.108    99.26
elaps:  kinefsm           2       0.365       0.730     0.01
elaps:  nlefsm            2       1.655       3.311     0.04
elaps:  DHSCF            38       5.192     197.300     2.16
elaps:  DHSCF1            1       0.077       0.077     0.00
elaps:  DHSCF2            1       2.059       2.059     0.02
elaps:  REORD           306       0.000       0.092     0.00
elaps:  POISON           39       0.038       1.471     0.02
elaps:  DHSCF3           38       5.045     191.712     2.09
elaps:  rhoofd           38       2.187      83.101     0.91
elaps:  cellXC           38       0.200       7.598     0.08
elaps:  vmat             38       2.395      91.003     0.99
elaps:  MolMec            2       0.000       0.000     0.00
elaps:  diagon           37     240.243    8889.003    97.13
elaps:  c-eigval       8668       0.469    4067.290    44.45
elaps:  c-buildHS      8668       0.003      29.653     0.32
elaps:  cdiag         17215       0.475    8170.023    89.28
elaps:  cdiag1        17215       0.021     365.407     3.99
elaps:  cdiag2        17215       0.154    2649.940    28.96
elaps:  cdiag3        17215       0.285    4906.445    53.62
elaps:  cdiag4        17215       0.007     124.533     1.36
elaps:  c-eigvec       8547       0.486    4157.043    45.43
elaps:  c-buildD       8547       0.084     717.260     7.84
elaps:  DHSCF4            1       3.412       3.412     0.04
elaps:  dfscf             1       3.224       3.224     0.04
elaps:  overfsm           1       0.031       0.031     0.00
elaps:  optical           1       0.000       0.000     0.00
  
>> End of run:  29-APR-2016   4:50:23
