Siesta Version:                                        siesta-3.2-pl-3
Architecture  : x86_64-unknown-linux-gnu--unknown
Compiler flags: mpiifort -g -O2 -fPIC -xSSE4.1 -fp-model source -shared-intel 
PARALLEL version

* Running on    8 nodes in parallel
>> Start of run:  19-APR-2016   7:59:31

                           ***********************       
                           *  WELCOME TO SIESTA  *       
                           ***********************       

reinit: Reading from standard input
************************** Dump of input data file ****************************
#(1) General system descriptors
SystemName            GRP_doping    # Descriptive name of the system
SystemLabel           GRP_doping    # Short name for naming files
%include STRUCT.fdf
%include KPT.fdf
%include BASIS.fdf
#%include TS.fdf # for transiesta calculation
#(4) DFT, Grid, SCF
XC.functional         GGA           # LDA or GGA (default = LDA)
XC.authors            PBE           # CA (Ceperley-Aldr) = PZ
                                    #    (Perdew-Zunger) - LDA - Default
                                    # PW92 (Perdew-Wang-92) - LDA
                                    # PBE (Perdew-Burke-Ernzerhof) - GGA
MeshCutoff            200.000000    Ry      # Default: 50.0 Ry ~ 0.444 Bohr
                                    #         100.0 Ry ~ 0.314 Bohr
MaxSCFIterations      500           # Default: 50
DM.MixingWeight       0.05          # Default: 0.25
DM.NumberPulay        10            # Default: 0
DM.PulayOnFile        F             # SystemLabel.P1, SystemLabel.P2
DM.Tolerance          1.d-4         # Default: 1.d-4
DM.UseSaveDM          .true.        # because of the bug
SCFMustConverge       .true.
NeglNonOverlapInt     F             # Default: F
#(5) Eigenvalue problem: order-N or diagonalization
SolutionMethod        Diagon        # or Transiesta
ElectronicTemperature 300.0 K       # Default: 300.0 K
#(6) Molecular dynamics and relaxations
#MD.TypeOfRun          CG            # Type of dynamics:
#MD.VariableCell       F
#MD.NumCGsteps         0           # 0 for single-point / 100 for gopt
#MD.MaxCGDispl         0.2 Bohr      # Default: 0.2 Bohr
#MD.MaxForceTol        0.02 eV/Ang   # Default: 0.04 eV/Ang
#MD.MaxStressTol       1.0 GPa       # Default: 1.0 GPa
# Geometry Constraints
#%block GeometryConstraints
#	position from 1 to 44
#%endblock GeometryConstraints
BandLinesScale   pi/a
%block BandLines
 1   0.00000000  0.00000000  0.00000000
50   0.00000000  0.07809418  0.00000000
50   0.04509075  0.07809242  0.00000000
20   0.00000000  0.00000000  0.00000000
%endblock BandLines
************************** End of input data file *****************************

reinit: -----------------------------------------------------------------------
reinit: System Name: GRP_doping
reinit: -----------------------------------------------------------------------
reinit: System Label: GRP_doping                                                  
reinit: -----------------------------------------------------------------------

initatom: Reading input for the pseudopotentials and atomic orbitals ----------
 Species number:            1  Label: B Atomic number:           5
 Species number:            2  Label: C Atomic number:           6
Ground state valence configuration:   2s02  2p01
Reading pseudopotential information in formatted form from B.psf

Valence configuration for pseudopotential generation:
2s( 2.00) rc: 1.74
2p( 1.00) rc: 1.74
3d( 0.00) rc: 1.74
4f( 0.00) rc: 1.74
Ground state valence configuration:   2s02  2p02
Reading pseudopotential information in formatted form from C.psf

Valence configuration for pseudopotential generation:
2s( 2.00) rc: 1.54
2p( 2.00) rc: 1.54
3d( 0.00) rc: 1.54
4f( 0.00) rc: 1.54
For B, standard SIESTA heuristics set lmxkb to 3
 (one more than the basis l, including polarization orbitals).
Use PS.lmax or PS.KBprojectors blocks to override.
For C, standard SIESTA heuristics set lmxkb to 3
 (one more than the basis l, including polarization orbitals).
Use PS.lmax or PS.KBprojectors blocks to override.

<basis_specs>
===============================================================================
B                    Z=   5    Mass=  10.810        Charge= 0.17977+309
Lmxo=1 Lmxkb= 3    BasisType=split      Semic=F
L=0  Nsemic=0  Cnfigmx=2
          n=1  nzeta=2  polorb=0
            splnorm:   0.15000    
               vcte:    0.0000    
               rinn:    0.0000    
                rcs:    0.0000      0.0000    
            lambdas:    1.0000      1.0000    
L=1  Nsemic=0  Cnfigmx=2
          n=1  nzeta=2  polorb=1
            splnorm:   0.15000    
               vcte:    0.0000    
               rinn:    0.0000    
                rcs:    0.0000      0.0000    
            lambdas:    1.0000      1.0000    
-------------------------------------------------------------------------------
L=0  Nkbl=1  erefs: 0.17977+309
L=1  Nkbl=1  erefs: 0.17977+309
L=2  Nkbl=1  erefs: 0.17977+309
L=3  Nkbl=1  erefs: 0.17977+309
===============================================================================
</basis_specs>

atom: Called for B                     (Z =   5)

read_vps: Pseudopotential generation method:
read_vps: ATM3      Troullier-Martins                       
Total valence charge:    3.00000

read_vps: Pseudopotential includes a core correction:
read_vps: Pseudo-core for xc-correction

xc_check: Exchange-correlation functional:
xc_check: GGA Perdew, Burke & Ernzerhof 1996
V l=0 = -2*Zval/r beyond r=  1.7165
V l=1 = -2*Zval/r beyond r=  1.7165
V l=2 = -2*Zval/r beyond r=  1.7165
V l=3 = -2*Zval/r beyond r=  1.6951
All V_l potentials equal beyond r=  1.7165
This should be close to max(r_c) in ps generation
All pots = -2*Zval/r beyond r=  1.7165

VLOCAL1: 99.0% of the norm of Vloc inside     14.733 Ry
VLOCAL1: 99.9% of the norm of Vloc inside     33.577 Ry
atom: Maximum radius for 4*pi*r*r*local-pseudopot. charge    2.04484
atom: Maximum radius for r*vlocal+2*Zval:    1.75994
GHOST: No ghost state for L =  0
GHOST: No ghost state for L =  1
GHOST: No ghost state for L =  2
GHOST: No ghost state for L =  3

KBgen: Kleinman-Bylander projectors: 
   l= 0   rc=  1.897051   el= -0.693730   Ekb=  4.595746   kbcos=  0.286105
   l= 1   rc=  1.920920   el= -0.265236   Ekb= -2.350715   kbcos= -0.315747
   l= 2   rc=  2.044840   el=  0.002055   Ekb= -0.690767   kbcos= -0.013822
   l= 3   rc=  2.149707   el=  0.003188   Ekb= -0.315358   kbcos= -0.002055

KBgen: Total number of  Kleinman-Bylander projectors:   16
atom: -------------------------------------------------------------------------

atom: SANKEY-TYPE ORBITALS:
atom: Selected multiple-zeta basis: split     

SPLIT: Orbitals with angular momentum L= 0

SPLIT: Basis orbitals for state 2s

SPLIT: PAO cut-off radius determined from an
SPLIT: energy shift=  0.007350 Ry

   izeta = 1
                 lambda =    1.000000
                     rc =    5.422032
                 energy =   -0.686029
                kinetic =    0.576707
    potential(screened) =   -1.262736
       potential(ionic) =   -3.271094

   izeta = 2
                 rmatch =    4.222573
              splitnorm =    0.150000
                 energy =   -0.602132
                kinetic =    0.858975
    potential(screened) =   -1.461107
       potential(ionic) =   -3.582536

SPLIT: Orbitals with angular momentum L= 1

SPLIT: Basis orbitals for state 2p

SPLIT: PAO cut-off radius determined from an
SPLIT: energy shift=  0.007350 Ry

   izeta = 1
                 lambda =    1.000000
                     rc =    6.790259
                 energy =   -0.258578
                kinetic =    1.481412
    potential(screened) =   -1.739989
       potential(ionic) =   -3.657461

   izeta = 2
                 rmatch =    4.608740
              splitnorm =    0.150000
                 energy =   -0.173757
                kinetic =    2.186690
    potential(screened) =   -2.360447
       potential(ionic) =   -4.464260

POLgen: Perturbative polarization orbital with L=  2

POLgen: Polarization orbital for state 2p

   izeta = 1
                     rc =    6.790259
                 energy =    0.684082
                kinetic =    1.471481
    potential(screened) =   -0.787399
       potential(ionic) =   -2.406985
atom: Total number of Sankey-type orbitals: 13

atm_pop: Valence configuration (for local Pseudopot. screening):
 2s( 2.00)                                                            
 2p( 1.00)                                                            
Vna: chval, zval:    3.00000   3.00000

Vna:  Cut-off radius for the neutral-atom potential:   6.790259
comcore: Pseudo-core radius Rcore=  2.122997

atom: _________________________________________________________________________

<basis_specs>
===============================================================================
C                    Z=   6    Mass=  12.010        Charge= 0.17977+309
Lmxo=1 Lmxkb= 3    BasisType=split      Semic=F
L=0  Nsemic=0  Cnfigmx=2
          n=1  nzeta=2  polorb=0
            splnorm:   0.15000    
               vcte:    0.0000    
               rinn:    0.0000    
                rcs:    0.0000      0.0000    
            lambdas:    1.0000      1.0000    
L=1  Nsemic=0  Cnfigmx=2
          n=1  nzeta=2  polorb=1
            splnorm:   0.15000    
               vcte:    0.0000    
               rinn:    0.0000    
                rcs:    0.0000      0.0000    
            lambdas:    1.0000      1.0000    
-------------------------------------------------------------------------------
L=0  Nkbl=1  erefs: 0.17977+309
L=1  Nkbl=1  erefs: 0.17977+309
L=2  Nkbl=1  erefs: 0.17977+309
L=3  Nkbl=1  erefs: 0.17977+309
===============================================================================
</basis_specs>

atom: Called for C                     (Z =   6)

read_vps: Pseudopotential generation method:
read_vps: ATM3      Troullier-Martins                       
Total valence charge:    4.00000

read_vps: Pseudopotential includes a core correction:
read_vps: Pseudo-core for xc-correction

xc_check: Exchange-correlation functional:
xc_check: GGA Perdew, Burke & Ernzerhof 1996
V l=0 = -2*Zval/r beyond r=  1.5227
V l=1 = -2*Zval/r beyond r=  1.5227
V l=2 = -2*Zval/r beyond r=  1.5227
V l=3 = -2*Zval/r beyond r=  1.5038
All V_l potentials equal beyond r=  1.5227
This should be close to max(r_c) in ps generation
All pots = -2*Zval/r beyond r=  1.5227

VLOCAL1: 99.0% of the norm of Vloc inside     18.722 Ry
VLOCAL1: 99.9% of the norm of Vloc inside     42.668 Ry
atom: Maximum radius for 4*pi*r*r*local-pseudopot. charge    1.83678
atom: Maximum radius for r*vlocal+2*Zval:    1.58088
GHOST: No ghost state for L =  0
GHOST: No ghost state for L =  1
GHOST: No ghost state for L =  2
GHOST: No ghost state for L =  3

KBgen: Kleinman-Bylander projectors: 
   l= 0   rc=  1.704034   el= -1.009801   Ekb=  5.335044   kbcos=  0.316824
   l= 1   rc=  1.704034   el= -0.388707   Ekb= -3.785862   kbcos= -0.366464
   l= 2   rc=  1.791422   el=  0.001971   Ekb= -0.970471   kbcos= -0.009212
   l= 3   rc=  1.859892   el=  0.003065   Ekb= -0.399525   kbcos= -0.001223

KBgen: Total number of  Kleinman-Bylander projectors:   16
atom: -------------------------------------------------------------------------

atom: SANKEY-TYPE ORBITALS:
atom: Selected multiple-zeta basis: split     

SPLIT: Orbitals with angular momentum L= 0

SPLIT: Basis orbitals for state 2s

SPLIT: PAO cut-off radius determined from an
SPLIT: energy shift=  0.007350 Ry

   izeta = 1
                 lambda =    1.000000
                     rc =    4.632753
                 energy =   -1.002270
                kinetic =    0.855760
    potential(screened) =   -1.858031
       potential(ionic) =   -5.417575

   izeta = 2
                 rmatch =    3.431921
              splitnorm =    0.150000
                 energy =   -0.867111
                kinetic =    1.300804
    potential(screened) =   -2.167915
       potential(ionic) =   -5.962684

SPLIT: Orbitals with angular momentum L= 1

SPLIT: Basis orbitals for state 2p

SPLIT: PAO cut-off radius determined from an
SPLIT: energy shift=  0.007350 Ry

   izeta = 1
                 lambda =    1.000000
                     rc =    5.658549
                 energy =   -0.381140
                kinetic =    2.399701
    potential(screened) =   -2.780841
       potential(ionic) =   -6.206085

   izeta = 2
                 rmatch =    3.653288
              splitnorm =    0.150000
                 energy =   -0.249149
                kinetic =    3.542762
    potential(screened) =   -3.791911
       potential(ionic) =   -7.581078

POLgen: Perturbative polarization orbital with L=  2

POLgen: Polarization orbital for state 2p

   izeta = 1
                     rc =    5.658549
                 energy =    1.109913
                kinetic =    2.304789
    potential(screened) =   -1.194876
       potential(ionic) =   -4.013592
atom: Total number of Sankey-type orbitals: 13

atm_pop: Valence configuration (for local Pseudopot. screening):
 2s( 2.00)                                                            
 2p( 2.00)                                                            
Vna: chval, zval:    4.00000   4.00000

Vna:  Cut-off radius for the neutral-atom potential:   5.658549
comcore: Pseudo-core radius Rcore=  1.791422

atom: _________________________________________________________________________

prinput: Basis input ----------------------------------------------------------

PAO.BasisType split     

%block ChemicalSpeciesLabel
    1    5 B                       # Species index, atomic number, species label
    2    6 C                       # Species index, atomic number, species label
%endblock ChemicalSpeciesLabel

%block PAO.Basis                 # Define Basis set
B                     2                    # Species label, number of l-shells
 n=2   0   2                         # n, l, Nzeta 
   5.422      4.223   
   1.000      1.000   
 n=2   1   2 P   1                   # n, l, Nzeta, Polarization, NzetaPol
   6.790      4.609   
   1.000      1.000   
C                     2                    # Species label, number of l-shells
 n=2   0   2                         # n, l, Nzeta 
   4.633      3.432   
   1.000      1.000   
 n=2   1   2 P   1                   # n, l, Nzeta, Polarization, NzetaPol
   5.659      3.653   
   1.000      1.000   
%endblock PAO.Basis

prinput: ----------------------------------------------------------------------

coor:   Atomic-coordinates input format  =     Fractional

siesta: Atomic coordinates (Bohr) and species
siesta:     -0.02582   2.59549   0.00000  1        1
siesta:     -0.02582   5.28395   0.00000  1        2
siesta:     -2.35420  38.89134   0.00000  1        3
siesta:     -4.68258  34.85847   0.00000  1        4
siesta:     -4.68258  37.54693   0.00000  1        5
siesta:      2.30256   6.62836   0.00000  1        6
siesta:      2.30256   9.31683   0.00000  1        7
siesta:     -2.35420   6.62836   0.00000  1        8
siesta:     -2.35420   9.31683   0.00000  1        9
siesta:     -0.02582  10.66124   0.00000  1       10
siesta:     -0.02582  13.34970   0.00000  1       11
siesta:     -2.35420  14.69411   0.00000  1       12
siesta:     -2.35420  17.38257   0.00000  1       13
siesta:     -0.02582  18.72698   0.00000  1       14
siesta:     -0.02582  21.41544   0.00000  1       15
siesta:     -4.68258  18.72698   0.00000  1       16
siesta:     -4.68258  21.41544   0.00000  1       17
siesta:     -2.35420  22.75985   0.00000  1       18
siesta:     -2.35420  25.44831   0.00000  1       19
siesta:     -9.33934  29.48119   0.00000  1       20
siesta:     -4.68258  26.79272   0.00000  1       21
siesta:     -4.68258  29.48119   0.00000  1       22
siesta:     -2.35420  30.82560   0.00000  1       23
siesta:     -2.35420  33.51406   0.00000  1       24
siesta:     -7.01096  30.82560   0.00000  1       25
siesta:     -7.01096  33.51406   0.00000  1       26
siesta:     -2.35420  41.57980   0.00000  2       27
siesta:      2.30256  38.89134   0.00000  2       28
siesta:      2.30256  41.57980   0.00000  2       29
siesta:      4.63094  34.85847   0.00000  2       30
siesta:      4.63094  37.54693   0.00000  2       31
siesta:      6.95932  30.82560   0.00000  2       32
siesta:      6.95932  33.51406   0.00000  2       33
siesta:      9.28770  26.79272   0.00000  2       34
siesta:      9.28770  29.48119   0.00000  2       35
siesta:      4.63094  10.66124   0.00000  2       36
siesta:      4.63094  13.34970   0.00000  2       37
siesta:      6.95932  14.69411   0.00000  2       38
siesta:      6.95932  17.38257   0.00000  2       39
siesta:      9.28770  18.72698   0.00000  2       40
siesta:      9.28770  21.41544   0.00000  2       41
siesta:     11.61608  22.75985   0.00000  2       42
siesta:     11.61608  25.44831   0.00000  2       43
siesta:      2.30256  14.69411   0.00000  2       44
siesta:      2.30256  17.38257   0.00000  2       45
siesta:      4.63094  18.72698   0.00000  2       46
siesta:      4.63094  21.41544   0.00000  2       47
siesta:      6.95932  22.75985   0.00000  2       48
siesta:      6.95932  25.44831   0.00000  2       49
siesta:     -4.68258  10.66124   0.00000  2       50
siesta:     -4.68258  13.34970   0.00000  2       51
siesta:      2.30256  22.75985   0.00000  2       52
siesta:      2.30256  25.44831   0.00000  2       53
siesta:     -7.01096  14.69411   0.00000  2       54
siesta:     -7.01096  17.38257   0.00000  2       55
siesta:     -9.33934  18.72698   0.00000  2       56
siesta:     -9.33934  21.41544   0.00000  2       57
siesta:     -7.01096  22.75985   0.00000  2       58
siesta:     -7.01096  25.44831   0.00000  2       59
siesta:    -11.66772  22.75985   0.00000  2       60
siesta:    -11.66772  25.44831   0.00000  2       61
siesta:     -9.33934  26.79272   0.00000  2       62
siesta:      4.63094  26.79272   0.00000  2       63
siesta:      4.63094  29.48119   0.00000  2       64
siesta:     -0.02582  26.79272   0.00000  2       65
siesta:     -0.02582  29.48119   0.00000  2       66
siesta:      2.30256  30.82560   0.00000  2       67
siesta:      2.30256  33.51406   0.00000  2       68
siesta:     -0.02582  34.85847   0.00000  2       69
siesta:     -0.02582  37.54693   0.00000  2       70
siesta:     -0.02582  42.92421   0.00000  2       71
siesta:     -0.02582  45.61267   0.00000  2       72

siesta: System type = slab      

initatomlists: Number of atoms, orbitals, and projectors:     72   936  1152

siesta: ******************** Simulation parameters ****************************
siesta:
siesta: The following are some of the parameters of the simulation.
siesta: A complete list of the parameters used, including default values,
siesta: can be found in file out.fdf
siesta:
redata: Non-Collinear-spin run           =     F
redata: SpinPolarized (Up/Down) run      =     F
redata: Number of spin components        =     1
redata: Long output                      =     F
redata: Number of Atomic Species         =        2
redata: Charge density info will appear in .RHO file
redata: Write Mulliken Pop.              =     NO
redata: Mesh Cutoff                      =   200.0000  Ry
redata: Net charge of the system         =     0.0000 |e|
redata: Max. number of SCF Iter          =      500
redata: SCF convergence failure will abort job
redata: Performing Pulay mixing using    =    10 iterations
redata: Mix DM in first SCF step ?       =     F
redata: Write Pulay info on disk?        =     F
redata: Discard 1st Pulay DM after  kick =     F
redata: New DM Mixing Weight             =     0.0500
redata: New DM Occupancy tolerance       = 0.000000000001
redata: No kicks to SCF
redata: DM Mixing Weight for Kicks       =     0.5000
redata: DM Tolerance for SCF             =     0.000100
redata: Require Energy convergence for SCF =     F
redata: DM Energy tolerance for SCF      =     0.000100 eV
redata: Require Harris convergence for SCF =     F
redata: DM Harris energy tolerance for SCF =     0.000100 eV
redata: Using Saved Data (generic)   =     F
redata: Use continuation files for DM    =     T
redata: Neglect nonoverlap interactions  =     F
redata: Method of Calculation            =     Diagonalization
redata: Divide and Conquer               =     T
redata: Electronic Temperature           =     0.0019  Ry
redata: Fix the spin of the system       =     F
redata: Dynamics option                  =     Verlet MD run
redata: Initial MD time step             =        1
redata:   Final MD time step             =        1
redata: Length of MD time step           =     1.0000  fs
redata: Initial Temperature of MD run    =     0.0000  K
redata: Perform a MD quench              =     F
redata: ***********************************************************************
Total number of electrons:   262.000000
Total ionic charge:   262.000000

* ProcessorY, Blocksize:    2  24

k-point displ. along   1 input, could be:     0.50    0.00
k-point displ. along   2 input, could be:     0.50    0.00
 Kpoints in:          231 . Kpoints trimmed:          231

siesta: k-grid: Number of k-points =   231
siesta: k-grid: Cutoff (effective) =     5.000 Ang
siesta: k-grid: Supercell and displacements
siesta: k-grid:   21   0   0      0.500
siesta: k-grid:    0  21   0      0.500
siesta: k-grid:    0   0   1      0.000
Naive supercell factors:     2    2    2

superc: Internal auxiliary supercell:     2 x     2 x     2  =       8
superc: Number of atoms, orbitals, and projectors:    576   7488   9216

* Maximum dynamic memory allocated =     4 MB

siesta:                 ==============================
                            Begin MD step =      1
                        ==============================

superc: Internal auxiliary supercell:     2 x     2 x     2  =       8
superc: Number of atoms, orbitals, and projectors:    576   7488   9216

outcell: Unit cell vectors (Ang):
       12.804619    7.392750    0.000000
        0.000000   14.785500    0.000000
        0.000000    0.000000   10.000000

outcell: Cell vector modules (Ang)   :   14.785500   14.785500   10.000000
outcell: Cell angles (23,13,12) (deg):     90.0000     90.0000     60.0000
outcell: Cell volume (Ang**3)        :   1893.2269
New_DM. Step:     1
Initializing Density Matrix...

InitMesh: MESH =   120 x   120 x    90 =     1296000
InitMesh: Mesh cutoff (required, used) =   200.000   223.865 Ry

* Maximum dynamic memory allocated =   238 MB

stepf: Fermi-Dirac step function

siesta: Program's energy decomposition (eV):
siesta: Ebs     =     -5372.065417
siesta: Eions   =     15073.536580
siesta: Ena     =      4091.903581
siesta: Ekin    =      5006.990805
siesta: Enl     =       872.091509
siesta: DEna    =        -0.000006
siesta: DUscf   =         0.000000
siesta: DUext   =         0.000000
siesta: Exc     =     -4194.754844
siesta: eta*DQ  =         0.000000
siesta: Emadel  =         0.000000
siesta: Emeta   =         0.000000
siesta: Emolmec =         0.000000
siesta: Ekinion =         0.000000
siesta: Eharris =     -9167.126069
siesta: Etot    =     -9297.305533
siesta: FreeEng =     -9297.305533

siesta: iscf   Eharris(eV)      E_KS(eV)   FreeEng(eV)   dDmax  Ef(eV)
siesta:    1    -9167.1261    -9297.3055    -9297.3055  7.7759 -8.4884
timer: Routine,Calls,Time,% = IterSCF        1    4488.230  99.74
elaps: Routine,Calls,Wall,% = IterSCF        1     561.711  99.74
siesta:    2   -16236.9439    -8089.4884    -8089.5276 19.4236 -8.3377
siesta:    3    -9257.0099    -9124.4060    -9124.4519  2.1411 -5.8201
siesta:    4    -9191.8478    -9056.2751    -9056.2774  1.3107 -5.1660
siesta:    5    -9030.5390    -8962.4646    -8962.5253  1.0725 -5.3732
siesta:    6    -9017.3014    -8947.0433    -8947.0792  0.9796 -5.4505
siesta:    7    -9014.4435    -8941.3502    -8941.4042  0.9972 -5.2653
siesta:    8    -9007.2186    -8933.5234    -8933.5561  0.8025 -5.3827
siesta:    9    -9001.9408    -8934.0491    -8934.1118  0.6777 -5.4512
siesta:   10    -9002.2241    -8940.6060    -8940.6677  0.5012 -5.3200
siesta:   11    -9000.4829    -8943.7422    -8943.8060  0.4096 -5.3190
siesta:   12    -9000.1031    -8953.5716    -8953.6321  0.6695 -5.1769
siesta:   13    -8999.4905    -8957.7322    -8957.7959  0.3037 -5.2562
siesta:   14    -8998.8280    -8962.8299    -8962.8898  0.2853 -5.2361
siesta:   15    -8998.2744    -8966.7456    -8966.8221  0.2439 -5.2920
siesta:   16    -8997.8987    -8972.2328    -8972.3042  0.1701 -5.3087
siesta:   17    -8997.6862    -8974.6568    -8974.7278  0.1376 -5.3319
siesta:   18    -8997.4125    -8980.7332    -8980.8080  0.1281 -5.3464
siesta:   19    -8997.4267    -8983.5664    -8983.6387  0.1277 -5.3594
siesta:   20    -8997.4067    -8986.1278    -8986.2003  0.1203 -5.3683
siesta:   21    -8997.3486    -8989.9945    -8990.0660  0.1135 -5.3835
siesta:   22    -8997.3396    -8991.0959    -8991.1665  0.1019 -5.3941
siesta:   23    -8997.3278    -8992.9391    -8993.0127  0.0659 -5.4026
siesta:   24    -8997.2881    -8994.0403    -8994.1157  0.0426 -5.4070
siesta:   25    -8997.2814    -8995.6921    -8995.7701  0.0234 -5.4038
siesta:   26    -8997.2800    -8996.0667    -8996.1435  0.0188 -5.4044
siesta:   27    -8997.2787    -8996.6562    -8996.7331  0.0141 -5.4046
siesta:   28    -8997.2789    -8996.9902    -8997.0673  0.0064 -5.4023
siesta:   29    -8997.2782    -8997.1435    -8997.2201  0.0061 -5.4029
siesta:   30    -8997.2781    -8997.1662    -8997.2431  0.0036 -5.4017
siesta:   31    -8997.2779    -8997.3158    -8997.3925  0.0031 -5.4011
siesta:   32    -8997.2780    -8997.3796    -8997.4562  0.0024 -5.4002
siesta:   33    -8997.2778    -8997.4217    -8997.4982  0.0020 -5.4000
siesta:   34    -8997.2779    -8997.3702    -8997.4469  0.0015 -5.3992
siesta:   35    -8997.2779    -8997.3693    -8997.4459  0.0014 -5.3991
siesta:   36    -8997.2779    -8997.3558    -8997.4324  0.0007 -5.3987
siesta:   37    -8997.2779    -8997.3666    -8997.4432  0.0010 -5.3990
siesta:   38    -8997.2779    -8997.3525    -8997.4291  0.0004 -5.3988
siesta:   39    -8997.2779    -8997.3483    -8997.4249  0.0003 -5.3988
siesta:   40    -8997.2779    -8997.3338    -8997.4104  0.0003 -5.3988
siesta:   41    -8997.2779    -8997.3047    -8997.3813  0.0004 -5.3988
siesta:   42    -8997.2779    -8997.2877    -8997.3642  0.0002 -5.3988
siesta:   43    -8997.2779    -8997.2811    -8997.3576  0.0001 -5.3988

siesta: E_KS(eV) =            -8997.2789

siesta: E_KS - E_eggbox =     -8997.2789

siesta: Atomic forces (eV/Ang):
----------------------------------------
   Tot   -0.123132   -0.174670    0.000000
----------------------------------------
   Max  556.645209
   Res  126.707887    sqrt( Sum f_i^2 / 3N )
----------------------------------------
   Max  556.645209    constrained

Stress-tensor-Voigt (kbar):     -670.42    -2336.72       -0.72        3.82        0.00        0.00
(Free)E + p*V (eV/cell)    -7812.6166
Target enthalpy (eV/cell)    -8997.3555

siesta: Stress tensor (static) (eV/Ang**3):
        -0.418436    0.002387    0.000000
         0.002387   -1.458448    0.000000
         0.000000    0.000000   -0.000449

siesta: Pressure (static):       1002.61695268  kBar

siesta: Stress tensor (total) (eV/Ang**3):
        -0.418436    0.002387    0.000000
         0.002387   -1.458448    0.000000
         0.000000    0.000000   -0.000449

siesta: Pressure (total):       1002.61695268  kBar

siesta: Temp_ion =       0.000 K

* Maximum dynamic memory allocated =   255 MB
Computing bands...

siesta: Program's energy decomposition (eV):
siesta: Ebs     =     -3993.982369
siesta: Eions   =     15073.536580
siesta: Ena     =      4091.903581
siesta: Ekin    =      7687.389966
siesta: Enl     =      -740.218597
siesta: DEna    =      -707.007523
siesta: DUscf   =        93.459042
siesta: DUext   =         0.000000
siesta: Exc     =     -4349.268797
siesta: eta*DQ  =         0.000000
siesta: Emadel  =         0.000000
siesta: Emeta   =         0.000000
siesta: Emolmec =         0.000000
siesta: Ekinion =         0.000000
siesta: Eharris =     -8997.277882
siesta: Etot    =     -8997.278907
siesta: FreeEng =     -8997.355464

siesta: Final energy (eV):
siesta:  Band Struct. =   -3993.982369
siesta:       Kinetic =    7687.389966
siesta:       Hartree =   24289.847776
siesta:    Ext. field =       0.000000
siesta:   Exch.-corr. =   -4349.268797
siesta:  Ion-electron =  -55990.876977
siesta:       Ion-ion =   19365.629125
siesta:       Ekinion =       0.000000
siesta:         Total =   -8997.278907

siesta: Atomic forces (eV/Ang):
siesta:      1    5.000669  403.675594    0.000000
siesta:      2    4.090510 -110.433814    0.000000
siesta:      3   -0.728699   99.032502    0.000000
siesta:      4  -14.755978    2.143453    0.000000
siesta:      5  -18.684178 -397.290270    0.000000
siesta:      6   -3.224106  396.437737    0.000000
siesta:      7   -3.630501 -106.926303    0.000000
siesta:      8   -5.389136  293.405282    0.000000
siesta:      9    0.538845  -99.449990    0.000000
siesta:     10    0.642780  391.696003    0.000000
siesta:     11   -1.107331 -109.906849    0.000000
siesta:     12  -19.952566  406.263685    0.000000
siesta:     13  -14.863174   -1.110682    0.000000
siesta:     14   -0.386038  410.506884    0.000000
siesta:     15    4.497855    3.059780    0.000000
siesta:     16   -1.269636   -2.690932    0.000000
siesta:     17   -3.473995    3.406142    0.000000
siesta:     18   -2.104810   -3.093301    0.000000
siesta:     19    6.387214    5.056973    0.000000
siesta:     20   -4.452570   -1.656078    0.000000
siesta:     21   -4.976063   -3.584786    0.000000
siesta:     22    2.187632    2.904742    0.000000
siesta:     23  -14.706297   -0.754269    0.000000
siesta:     24  -18.317214 -296.518599    0.000000
siesta:     25   -3.648213    3.527658    0.000000
siesta:     26   -3.591626    1.890122    0.000000
siesta:     27  -13.614247 -408.019865    0.000000
siesta:     28   -2.505990  129.427563    0.000000
siesta:     29   25.764705 -556.645209    0.000000
siesta:     30   24.230448    3.920085    0.000000
siesta:     31   36.461250 -549.886629    0.000000
siesta:     32    2.662442    0.117476    0.000000
siesta:     33   -2.258014    2.217080    0.000000
siesta:     34    2.419346    1.630827    0.000000
siesta:     35   -1.339798    0.734887    0.000000
siesta:     36   26.409561  543.826462    0.000000
siesta:     37   26.236770   -5.492970    0.000000
siesta:     38   -2.795404   -1.984054    0.000000
siesta:     39    2.394214    0.006144    0.000000
siesta:     40   -0.728801   -0.604220    0.000000
siesta:     41    1.934783   -2.009346    0.000000
siesta:     42    0.311254    6.549037    0.000000
siesta:     43   -0.629850   -6.499188    0.000000
siesta:     44   12.057989  555.259993    0.000000
siesta:     45   22.332202   -2.419609    0.000000
siesta:     46   -1.378802    1.434305    0.000000
siesta:     47    0.456250    0.629742    0.000000
siesta:     48   -0.126542    0.779061    0.000000
siesta:     49   -0.159855   -0.916656    0.000000
siesta:     50  -23.464565  402.795675    0.000000
siesta:     51  -21.464133    2.274170    0.000000
siesta:     52    2.648840    1.008236    0.000000
siesta:     53    0.577926    0.482445    0.000000
siesta:     54    2.197343   -2.002241    0.000000
siesta:     55   -7.037771   -1.799383    0.000000
siesta:     56    1.808400   -0.409282    0.000000
siesta:     57   -3.373911   -1.517514    0.000000
siesta:     58   -2.325904    2.818785    0.000000
siesta:     59   -3.139724   -2.546365    0.000000
siesta:     60    0.109947    6.241598    0.000000
siesta:     61   -0.082807   -6.344295    0.000000
siesta:     62   -3.531054   -2.140077    0.000000
siesta:     63    0.233460    0.085167    0.000000
siesta:     64   -1.313268   -1.602422    0.000000
siesta:     65    2.690114   -1.241308    0.000000
siesta:     66   -2.875675 -414.061824    0.000000
siesta:     67   22.340941    3.034027    0.000000
siesta:     68   23.064101 -413.096556    0.000000
siesta:     69   -5.939044  116.830422    0.000000
siesta:     70  -14.181691 -404.506003    0.000000
siesta:     71  -11.524003  123.075240    0.000000
siesta:     72    2.242059 -409.198770    0.000000
siesta: ----------------------------------------
siesta:    Tot   -0.123132   -0.174670    0.000000

siesta: Stress tensor (static) (eV/Ang**3):
siesta:    -0.418436    0.002387    0.000000
siesta:     0.002387   -1.458448    0.000000
siesta:     0.000000    0.000000   -0.000449

siesta: Cell volume =       1893.226884 Ang**3

siesta: Pressure (static):
siesta:                Solid            Molecule  Units
siesta:           0.00681552          0.09578503  Ry/Bohr**3
siesta:           0.62577752          8.79465602  eV/Ang**3
siesta:        1002.61695268      14090.74469042  kBar
(Free)E+ p_basis*V_orbitals  =       -8958.403059
(Free)Eharris+ p_basis*V_orbitals  =       -8958.399872

siesta: Electric dipole (a.u.)  =    0.000000    0.000000    0.000000
siesta: Electric dipole (Debye) =    0.000000    0.000000    0.000000

* Maximum dynamic memory allocated : Node    0 =   255 MB
* Maximum dynamic memory allocated : Node    1 =    88 MB
* Maximum dynamic memory allocated : Node    2 =    92 MB
* Maximum dynamic memory allocated : Node    3 =   242 MB
* Maximum dynamic memory allocated : Node    4 =   229 MB
* Maximum dynamic memory allocated : Node    5 =    83 MB
* Maximum dynamic memory allocated : Node    6 =    84 MB
* Maximum dynamic memory allocated : Node    7 =   210 MB

* Maximum memory occured during matrixMtoO                    

timer: CPU execution times:
timer:  Routine       Calls   Time/call    Tot.time        %
timer:  siesta            1  189319.525  189319.525   100.00
timer:  Setup             1       3.093       3.093     0.00
timer:  bands             3     269.083     807.249     0.43
timer:  writewave         1       0.021       0.021     0.00
timer:  KSV_init          1       0.000       0.000     0.00
timer:  IterMD            1  188503.223  188503.223    99.57
timer:  hsparse           1       0.399       0.399     0.00
timer:  overlap           1       7.788       7.788     0.00
timer:  IterSCF          43    4377.829  188246.668    99.43
timer:  kinefsm           2       4.072       8.143     0.00
timer:  nlefsm            2      22.213      44.425     0.02
timer:  DHSCF            44     137.499    6049.974     3.20
timer:  DHSCF1            1       0.993       0.993     0.00
timer:  DHSCF2            1      47.410      47.410     0.03
timer:  REORD           354       0.010       3.592     0.00
timer:  POISON           45       2.233     100.488     0.05
timer:  DHSCF3           44     135.299    5953.147     3.14
timer:  rhoofd           44      28.086    1235.802     0.65
timer:  cellXC           44       3.483     153.260     0.08
timer:  vmat             44      65.848    2897.322     1.53
timer:  MolMec            2       0.000       0.000     0.00
timer:  diagon           43    4239.186  182284.979    96.28
timer:  c-eigval      10054       6.671   67071.932    35.43
timer:  c-buildHS     10054       0.124    1244.275     0.66
timer:  cdiag         19987       6.873  137365.570    72.56
timer:  cdiag1        19987       0.426    8512.096     4.50
timer:  cdiag2        19987       1.906   38088.942    20.12
timer:  cdiag3        19987       3.937   78692.431    41.57
timer:  cdiag4        19987       0.222    4428.609     2.34
timer:  c-eigvec       9933       7.269   72199.541    38.14
timer:  c-buildD       9933       4.406   43764.190    23.12
timer:  DHSCF4            1      46.125      46.125     0.02
timer:  dfscf             1      43.404      43.404     0.02
timer:  overfsm           1       0.496       0.496     0.00
timer:  optical           1       5.195       5.195     0.00
  

elaps: ELAPSED times:
elaps:  Routine       Calls   Time/call    Tot.time        %
elaps:  siesta            1   23692.387   23692.387   100.00
elaps:  Setup             1       0.386       0.386     0.00
elaps:  bands             3      33.686     101.059     0.43
elaps:  writewave         1       0.002       0.002     0.00
elaps:  KSV_init          1       0.000       0.000     0.00
elaps:  IterMD            1   23590.256   23590.256    99.57
elaps:  hsparse           1       0.048       0.048     0.00
elaps:  overlap           1       0.979       0.979     0.00
elaps:  IterSCF          43     547.864   23558.162    99.43
elaps:  kinefsm           2       0.508       1.017     0.00
elaps:  nlefsm            2       2.774       5.548     0.02
elaps:  DHSCF            44      17.339     762.902     3.22
elaps:  DHSCF1            1       0.127       0.127     0.00
elaps:  DHSCF2            1       5.931       5.931     0.03
elaps:  REORD           354       0.001       0.480     0.00
elaps:  POISON           45       0.279      12.560     0.05
elaps:  DHSCF3           44      16.925     744.720     3.14
elaps:  rhoofd           44       7.908     347.949     1.47
elaps:  cellXC           44       0.435      19.125     0.08
elaps:  vmat             44       8.237     362.416     1.53
elaps:  MolMec            2       0.000       0.000     0.00
elaps:  diagon           43     530.539   22813.179    96.29
elaps:  c-eigval      10054       0.835    8391.916    35.42
elaps:  c-buildHS     10054       0.017     169.877     0.72
elaps:  cdiag         19987       0.848   16942.555    71.51
elaps:  cdiag1        19987       0.053    1061.847     4.48
elaps:  cdiag2        19987       0.238    4765.756    20.12
elaps:  cdiag3        19987       0.493    9859.643    41.62
elaps:  cdiag4        19987       0.028     554.059     2.34
elaps:  c-eigvec       9933       0.890    8843.709    37.33
elaps:  c-buildD       9933       0.571    5668.851    23.93
elaps:  DHSCF4            1      11.809      11.809     0.05
elaps:  dfscf             1      11.263      11.263     0.05
elaps:  overfsm           1       0.062       0.062     0.00
elaps:  optical           1       0.000       0.000     0.00
  
>> End of run:  19-APR-2016  14:34:23
