Siesta Version:                                        siesta-3.2-pl-3
Architecture  : x86_64-unknown-linux-gnu--unknown
Compiler flags: mpiifort -g -O2 -fPIC -xSSE4.1 -fp-model source -shared-intel 
PARALLEL version

* Running on    8 nodes in parallel
>> Start of run:  18-APR-2016  18:51:24

                           ***********************       
                           *  WELCOME TO SIESTA  *       
                           ***********************       

reinit: Reading from standard input
************************** Dump of input data file ****************************
#(1) General system descriptors
SystemName            GRP_doping    # Descriptive name of the system
SystemLabel           GRP_doping    # Short name for naming files
%include STRUCT.fdf
%include KPT.fdf
%include BASIS.fdf
#%include TS.fdf # for transiesta calculation
#(4) DFT, Grid, SCF
XC.functional         GGA           # LDA or GGA (default = LDA)
XC.authors            PBE           # CA (Ceperley-Aldr) = PZ
                                    #    (Perdew-Zunger) - LDA - Default
                                    # PW92 (Perdew-Wang-92) - LDA
                                    # PBE (Perdew-Burke-Ernzerhof) - GGA
MeshCutoff            200.000000    Ry      # Default: 50.0 Ry ~ 0.444 Bohr
                                    #         100.0 Ry ~ 0.314 Bohr
MaxSCFIterations      500           # Default: 50
DM.MixingWeight       0.05          # Default: 0.25
DM.NumberPulay        10            # Default: 0
DM.PulayOnFile        F             # SystemLabel.P1, SystemLabel.P2
DM.Tolerance          1.d-4         # Default: 1.d-4
DM.UseSaveDM          .true.        # because of the bug
SCFMustConverge       .true.
NeglNonOverlapInt     F             # Default: F
#(5) Eigenvalue problem: order-N or diagonalization
SolutionMethod        Diagon        # or Transiesta
ElectronicTemperature 300.0 K       # Default: 300.0 K
#(6) Molecular dynamics and relaxations
#MD.TypeOfRun          CG            # Type of dynamics:
#MD.VariableCell       F
#MD.NumCGsteps         0           # 0 for single-point / 100 for gopt
#MD.MaxCGDispl         0.2 Bohr      # Default: 0.2 Bohr
#MD.MaxForceTol        0.02 eV/Ang   # Default: 0.04 eV/Ang
#MD.MaxStressTol       1.0 GPa       # Default: 1.0 GPa
# Geometry Constraints
#%block GeometryConstraints
#	position from 1 to 44
#%endblock GeometryConstraints
BandLinesScale   pi/a
%block BandLines
 1   0.00000000  0.00000000  0.00000000
50   0.00000000  0.07809418  0.00000000
50   0.04509075  0.07809242  0.00000000
20   0.00000000  0.00000000  0.00000000
%endblock BandLines
************************** End of input data file *****************************

reinit: -----------------------------------------------------------------------
reinit: System Name: GRP_doping
reinit: -----------------------------------------------------------------------
reinit: System Label: GRP_doping                                                  
reinit: -----------------------------------------------------------------------

initatom: Reading input for the pseudopotentials and atomic orbitals ----------
 Species number:            1  Label: B Atomic number:           5
 Species number:            2  Label: C Atomic number:           6
Ground state valence configuration:   2s02  2p01
Reading pseudopotential information in formatted form from B.psf

Valence configuration for pseudopotential generation:
2s( 2.00) rc: 1.74
2p( 1.00) rc: 1.74
3d( 0.00) rc: 1.74
4f( 0.00) rc: 1.74
Ground state valence configuration:   2s02  2p02
Reading pseudopotential information in formatted form from C.psf

Valence configuration for pseudopotential generation:
2s( 2.00) rc: 1.54
2p( 2.00) rc: 1.54
3d( 0.00) rc: 1.54
4f( 0.00) rc: 1.54
For B, standard SIESTA heuristics set lmxkb to 3
 (one more than the basis l, including polarization orbitals).
Use PS.lmax or PS.KBprojectors blocks to override.
For C, standard SIESTA heuristics set lmxkb to 3
 (one more than the basis l, including polarization orbitals).
Use PS.lmax or PS.KBprojectors blocks to override.

<basis_specs>
===============================================================================
B                    Z=   5    Mass=  10.810        Charge= 0.17977+309
Lmxo=1 Lmxkb= 3    BasisType=split      Semic=F
L=0  Nsemic=0  Cnfigmx=2
          n=1  nzeta=2  polorb=0
            splnorm:   0.15000    
               vcte:    0.0000    
               rinn:    0.0000    
                rcs:    0.0000      0.0000    
            lambdas:    1.0000      1.0000    
L=1  Nsemic=0  Cnfigmx=2
          n=1  nzeta=2  polorb=1
            splnorm:   0.15000    
               vcte:    0.0000    
               rinn:    0.0000    
                rcs:    0.0000      0.0000    
            lambdas:    1.0000      1.0000    
-------------------------------------------------------------------------------
L=0  Nkbl=1  erefs: 0.17977+309
L=1  Nkbl=1  erefs: 0.17977+309
L=2  Nkbl=1  erefs: 0.17977+309
L=3  Nkbl=1  erefs: 0.17977+309
===============================================================================
</basis_specs>

atom: Called for B                     (Z =   5)

read_vps: Pseudopotential generation method:
read_vps: ATM3      Troullier-Martins                       
Total valence charge:    3.00000

read_vps: Pseudopotential includes a core correction:
read_vps: Pseudo-core for xc-correction

xc_check: Exchange-correlation functional:
xc_check: GGA Perdew, Burke & Ernzerhof 1996
V l=0 = -2*Zval/r beyond r=  1.7165
V l=1 = -2*Zval/r beyond r=  1.7165
V l=2 = -2*Zval/r beyond r=  1.7165
V l=3 = -2*Zval/r beyond r=  1.6951
All V_l potentials equal beyond r=  1.7165
This should be close to max(r_c) in ps generation
All pots = -2*Zval/r beyond r=  1.7165

VLOCAL1: 99.0% of the norm of Vloc inside     14.733 Ry
VLOCAL1: 99.9% of the norm of Vloc inside     33.577 Ry
atom: Maximum radius for 4*pi*r*r*local-pseudopot. charge    2.04484
atom: Maximum radius for r*vlocal+2*Zval:    1.75994
GHOST: No ghost state for L =  0
GHOST: No ghost state for L =  1
GHOST: No ghost state for L =  2
GHOST: No ghost state for L =  3

KBgen: Kleinman-Bylander projectors: 
   l= 0   rc=  1.897051   el= -0.693730   Ekb=  4.595746   kbcos=  0.286105
   l= 1   rc=  1.920920   el= -0.265236   Ekb= -2.350715   kbcos= -0.315747
   l= 2   rc=  2.044840   el=  0.002055   Ekb= -0.690767   kbcos= -0.013822
   l= 3   rc=  2.149707   el=  0.003188   Ekb= -0.315358   kbcos= -0.002055

KBgen: Total number of  Kleinman-Bylander projectors:   16
atom: -------------------------------------------------------------------------

atom: SANKEY-TYPE ORBITALS:
atom: Selected multiple-zeta basis: split     

SPLIT: Orbitals with angular momentum L= 0

SPLIT: Basis orbitals for state 2s

SPLIT: PAO cut-off radius determined from an
SPLIT: energy shift=  0.007350 Ry

   izeta = 1
                 lambda =    1.000000
                     rc =    5.422032
                 energy =   -0.686029
                kinetic =    0.576707
    potential(screened) =   -1.262736
       potential(ionic) =   -3.271094

   izeta = 2
                 rmatch =    4.222573
              splitnorm =    0.150000
                 energy =   -0.602132
                kinetic =    0.858975
    potential(screened) =   -1.461107
       potential(ionic) =   -3.582536

SPLIT: Orbitals with angular momentum L= 1

SPLIT: Basis orbitals for state 2p

SPLIT: PAO cut-off radius determined from an
SPLIT: energy shift=  0.007350 Ry

   izeta = 1
                 lambda =    1.000000
                     rc =    6.790259
                 energy =   -0.258578
                kinetic =    1.481412
    potential(screened) =   -1.739989
       potential(ionic) =   -3.657461

   izeta = 2
                 rmatch =    4.608740
              splitnorm =    0.150000
                 energy =   -0.173757
                kinetic =    2.186690
    potential(screened) =   -2.360447
       potential(ionic) =   -4.464260

POLgen: Perturbative polarization orbital with L=  2

POLgen: Polarization orbital for state 2p

   izeta = 1
                     rc =    6.790259
                 energy =    0.684082
                kinetic =    1.471481
    potential(screened) =   -0.787399
       potential(ionic) =   -2.406985
atom: Total number of Sankey-type orbitals: 13

atm_pop: Valence configuration (for local Pseudopot. screening):
 2s( 2.00)                                                            
 2p( 1.00)                                                            
Vna: chval, zval:    3.00000   3.00000

Vna:  Cut-off radius for the neutral-atom potential:   6.790259
comcore: Pseudo-core radius Rcore=  2.122997

atom: _________________________________________________________________________

<basis_specs>
===============================================================================
C                    Z=   6    Mass=  12.010        Charge= 0.17977+309
Lmxo=1 Lmxkb= 3    BasisType=split      Semic=F
L=0  Nsemic=0  Cnfigmx=2
          n=1  nzeta=2  polorb=0
            splnorm:   0.15000    
               vcte:    0.0000    
               rinn:    0.0000    
                rcs:    0.0000      0.0000    
            lambdas:    1.0000      1.0000    
L=1  Nsemic=0  Cnfigmx=2
          n=1  nzeta=2  polorb=1
            splnorm:   0.15000    
               vcte:    0.0000    
               rinn:    0.0000    
                rcs:    0.0000      0.0000    
            lambdas:    1.0000      1.0000    
-------------------------------------------------------------------------------
L=0  Nkbl=1  erefs: 0.17977+309
L=1  Nkbl=1  erefs: 0.17977+309
L=2  Nkbl=1  erefs: 0.17977+309
L=3  Nkbl=1  erefs: 0.17977+309
===============================================================================
</basis_specs>

atom: Called for C                     (Z =   6)

read_vps: Pseudopotential generation method:
read_vps: ATM3      Troullier-Martins                       
Total valence charge:    4.00000

read_vps: Pseudopotential includes a core correction:
read_vps: Pseudo-core for xc-correction

xc_check: Exchange-correlation functional:
xc_check: GGA Perdew, Burke & Ernzerhof 1996
V l=0 = -2*Zval/r beyond r=  1.5227
V l=1 = -2*Zval/r beyond r=  1.5227
V l=2 = -2*Zval/r beyond r=  1.5227
V l=3 = -2*Zval/r beyond r=  1.5038
All V_l potentials equal beyond r=  1.5227
This should be close to max(r_c) in ps generation
All pots = -2*Zval/r beyond r=  1.5227

VLOCAL1: 99.0% of the norm of Vloc inside     18.722 Ry
VLOCAL1: 99.9% of the norm of Vloc inside     42.668 Ry
atom: Maximum radius for 4*pi*r*r*local-pseudopot. charge    1.83678
atom: Maximum radius for r*vlocal+2*Zval:    1.58088
GHOST: No ghost state for L =  0
GHOST: No ghost state for L =  1
GHOST: No ghost state for L =  2
GHOST: No ghost state for L =  3

KBgen: Kleinman-Bylander projectors: 
   l= 0   rc=  1.704034   el= -1.009801   Ekb=  5.335044   kbcos=  0.316824
   l= 1   rc=  1.704034   el= -0.388707   Ekb= -3.785862   kbcos= -0.366464
   l= 2   rc=  1.791422   el=  0.001971   Ekb= -0.970471   kbcos= -0.009212
   l= 3   rc=  1.859892   el=  0.003065   Ekb= -0.399525   kbcos= -0.001223

KBgen: Total number of  Kleinman-Bylander projectors:   16
atom: -------------------------------------------------------------------------

atom: SANKEY-TYPE ORBITALS:
atom: Selected multiple-zeta basis: split     

SPLIT: Orbitals with angular momentum L= 0

SPLIT: Basis orbitals for state 2s

SPLIT: PAO cut-off radius determined from an
SPLIT: energy shift=  0.007350 Ry

   izeta = 1
                 lambda =    1.000000
                     rc =    4.632753
                 energy =   -1.002270
                kinetic =    0.855760
    potential(screened) =   -1.858031
       potential(ionic) =   -5.417575

   izeta = 2
                 rmatch =    3.431921
              splitnorm =    0.150000
                 energy =   -0.867111
                kinetic =    1.300804
    potential(screened) =   -2.167915
       potential(ionic) =   -5.962684

SPLIT: Orbitals with angular momentum L= 1

SPLIT: Basis orbitals for state 2p

SPLIT: PAO cut-off radius determined from an
SPLIT: energy shift=  0.007350 Ry

   izeta = 1
                 lambda =    1.000000
                     rc =    5.658549
                 energy =   -0.381140
                kinetic =    2.399701
    potential(screened) =   -2.780841
       potential(ionic) =   -6.206085

   izeta = 2
                 rmatch =    3.653288
              splitnorm =    0.150000
                 energy =   -0.249149
                kinetic =    3.542762
    potential(screened) =   -3.791911
       potential(ionic) =   -7.581078

POLgen: Perturbative polarization orbital with L=  2

POLgen: Polarization orbital for state 2p

   izeta = 1
                     rc =    5.658549
                 energy =    1.109913
                kinetic =    2.304789
    potential(screened) =   -1.194876
       potential(ionic) =   -4.013592
atom: Total number of Sankey-type orbitals: 13

atm_pop: Valence configuration (for local Pseudopot. screening):
 2s( 2.00)                                                            
 2p( 2.00)                                                            
Vna: chval, zval:    4.00000   4.00000

Vna:  Cut-off radius for the neutral-atom potential:   5.658549
comcore: Pseudo-core radius Rcore=  1.791422

atom: _________________________________________________________________________

prinput: Basis input ----------------------------------------------------------

PAO.BasisType split     

%block ChemicalSpeciesLabel
    1    5 B                       # Species index, atomic number, species label
    2    6 C                       # Species index, atomic number, species label
%endblock ChemicalSpeciesLabel

%block PAO.Basis                 # Define Basis set
B                     2                    # Species label, number of l-shells
 n=2   0   2                         # n, l, Nzeta 
   5.422      4.223   
   1.000      1.000   
 n=2   1   2 P   1                   # n, l, Nzeta, Polarization, NzetaPol
   6.790      4.609   
   1.000      1.000   
C                     2                    # Species label, number of l-shells
 n=2   0   2                         # n, l, Nzeta 
   4.633      3.432   
   1.000      1.000   
 n=2   1   2 P   1                   # n, l, Nzeta, Polarization, NzetaPol
   5.659      3.653   
   1.000      1.000   
%endblock PAO.Basis

prinput: ----------------------------------------------------------------------

coor:   Atomic-coordinates input format  =     Fractional

siesta: Atomic coordinates (Bohr) and species
siesta:     -0.02582   2.59549   0.00000  1        1
siesta:     -0.02582   5.28395   0.00000  1        2
siesta:      2.30256   6.62836   0.00000  1        3
siesta:      2.30256   9.31683   0.00000  1        4
siesta:     -2.35420   6.62836   0.00000  1        5
siesta:     -2.35420   9.31683   0.00000  1        6
siesta:     -0.02582  10.66124   0.00000  1        7
siesta:     -0.02582  13.34970   0.00000  1        8
siesta:     -2.35420  14.69411   0.00000  1        9
siesta:     -2.35420  17.38257   0.00000  1       10
siesta:     -0.02582  18.72698   0.00000  1       11
siesta:     -0.02582  21.41544   0.00000  1       12
siesta:     -4.68258  18.72698   0.00000  1       13
siesta:     -4.68258  21.41544   0.00000  1       14
siesta:     -2.35420  22.75985   0.00000  1       15
siesta:     -2.35420  25.44831   0.00000  1       16
siesta:     -0.02582  26.79272   0.00000  1       17
siesta:     -0.02582  29.48119   0.00000  1       18
siesta:      2.30256  30.82560   0.00000  1       19
siesta:      2.30256  33.51406   0.00000  1       20
siesta:     -2.35420  30.82560   0.00000  1       21
siesta:     -2.35420  33.51406   0.00000  1       22
siesta:     -0.02582  34.85847   0.00000  1       23
siesta:     -0.02582  37.54693   0.00000  1       24
siesta:     -0.02582  42.92421   0.00000  1       25
siesta:     -0.02582  45.61267   0.00000  1       26
siesta:     -2.35420  38.89134   0.00000  2       27
siesta:     -2.35420  41.57980   0.00000  2       28
siesta:      2.30256  38.89134   0.00000  2       29
siesta:      2.30256  41.57980   0.00000  2       30
siesta:      4.63094  34.85847   0.00000  2       31
siesta:      4.63094  37.54693   0.00000  2       32
siesta:      6.95932  30.82560   0.00000  2       33
siesta:      6.95932  33.51406   0.00000  2       34
siesta:      9.28770  26.79272   0.00000  2       35
siesta:      9.28770  29.48119   0.00000  2       36
siesta:     -4.68258  34.85847   0.00000  2       37
siesta:     -4.68258  37.54693   0.00000  2       38
siesta:      4.63094  10.66124   0.00000  2       39
siesta:      4.63094  13.34970   0.00000  2       40
siesta:      6.95932  14.69411   0.00000  2       41
siesta:      6.95932  17.38257   0.00000  2       42
siesta:      9.28770  18.72698   0.00000  2       43
siesta:      9.28770  21.41544   0.00000  2       44
siesta:     11.61608  22.75985   0.00000  2       45
siesta:     11.61608  25.44831   0.00000  2       46
siesta:      2.30256  14.69411   0.00000  2       47
siesta:      2.30256  17.38257   0.00000  2       48
siesta:      4.63094  18.72698   0.00000  2       49
siesta:      4.63094  21.41544   0.00000  2       50
siesta:      6.95932  22.75985   0.00000  2       51
siesta:      6.95932  25.44831   0.00000  2       52
siesta:     -4.68258  10.66124   0.00000  2       53
siesta:     -4.68258  13.34970   0.00000  2       54
siesta:      2.30256  22.75985   0.00000  2       55
siesta:      2.30256  25.44831   0.00000  2       56
siesta:     -7.01096  14.69411   0.00000  2       57
siesta:     -7.01096  17.38257   0.00000  2       58
siesta:     -9.33934  18.72698   0.00000  2       59
siesta:     -9.33934  21.41544   0.00000  2       60
siesta:     -7.01096  22.75985   0.00000  2       61
siesta:     -7.01096  25.44831   0.00000  2       62
siesta:    -11.66772  22.75985   0.00000  2       63
siesta:    -11.66772  25.44831   0.00000  2       64
siesta:     -9.33934  26.79272   0.00000  2       65
siesta:     -9.33934  29.48119   0.00000  2       66
siesta:      4.63094  26.79272   0.00000  2       67
siesta:      4.63094  29.48119   0.00000  2       68
siesta:     -4.68258  26.79272   0.00000  2       69
siesta:     -4.68258  29.48119   0.00000  2       70
siesta:     -7.01096  30.82560   0.00000  2       71
siesta:     -7.01096  33.51406   0.00000  2       72

siesta: System type = slab      

initatomlists: Number of atoms, orbitals, and projectors:     72   936  1152

siesta: ******************** Simulation parameters ****************************
siesta:
siesta: The following are some of the parameters of the simulation.
siesta: A complete list of the parameters used, including default values,
siesta: can be found in file out.fdf
siesta:
redata: Non-Collinear-spin run           =     F
redata: SpinPolarized (Up/Down) run      =     F
redata: Number of spin components        =     1
redata: Long output                      =     F
redata: Number of Atomic Species         =        2
redata: Charge density info will appear in .RHO file
redata: Write Mulliken Pop.              =     NO
redata: Mesh Cutoff                      =   200.0000  Ry
redata: Net charge of the system         =     0.0000 |e|
redata: Max. number of SCF Iter          =      500
redata: SCF convergence failure will abort job
redata: Performing Pulay mixing using    =    10 iterations
redata: Mix DM in first SCF step ?       =     F
redata: Write Pulay info on disk?        =     F
redata: Discard 1st Pulay DM after  kick =     F
redata: New DM Mixing Weight             =     0.0500
redata: New DM Occupancy tolerance       = 0.000000000001
redata: No kicks to SCF
redata: DM Mixing Weight for Kicks       =     0.5000
redata: DM Tolerance for SCF             =     0.000100
redata: Require Energy convergence for SCF =     F
redata: DM Energy tolerance for SCF      =     0.000100 eV
redata: Require Harris convergence for SCF =     F
redata: DM Harris energy tolerance for SCF =     0.000100 eV
redata: Using Saved Data (generic)   =     F
redata: Use continuation files for DM    =     T
redata: Neglect nonoverlap interactions  =     F
redata: Method of Calculation            =     Diagonalization
redata: Divide and Conquer               =     T
redata: Electronic Temperature           =     0.0019  Ry
redata: Fix the spin of the system       =     F
redata: Dynamics option                  =     Verlet MD run
redata: Initial MD time step             =        1
redata:   Final MD time step             =        1
redata: Length of MD time step           =     1.0000  fs
redata: Initial Temperature of MD run    =     0.0000  K
redata: Perform a MD quench              =     F
redata: ***********************************************************************
Total number of electrons:   262.000000
Total ionic charge:   262.000000

* ProcessorY, Blocksize:    2  24

k-point displ. along   1 input, could be:     0.50    0.00
k-point displ. along   2 input, could be:     0.50    0.00
 Kpoints in:          231 . Kpoints trimmed:          231

siesta: k-grid: Number of k-points =   231
siesta: k-grid: Cutoff (effective) =     5.000 Ang
siesta: k-grid: Supercell and displacements
siesta: k-grid:   21   0   0      0.500
siesta: k-grid:    0  21   0      0.500
siesta: k-grid:    0   0   1      0.000
Naive supercell factors:     2    2    2

superc: Internal auxiliary supercell:     2 x     2 x     2  =       8
superc: Number of atoms, orbitals, and projectors:    576   7488   9216

* Maximum dynamic memory allocated =     4 MB

siesta:                 ==============================
                            Begin MD step =      1
                        ==============================

superc: Internal auxiliary supercell:     2 x     2 x     2  =       8
superc: Number of atoms, orbitals, and projectors:    576   7488   9216

outcell: Unit cell vectors (Ang):
       12.804619    7.392750    0.000000
        0.000000   14.785500    0.000000
        0.000000    0.000000   10.000000

outcell: Cell vector modules (Ang)   :   14.785500   14.785500   10.000000
outcell: Cell angles (23,13,12) (deg):     90.0000     90.0000     60.0000
outcell: Cell volume (Ang**3)        :   1893.2269
New_DM. Step:     1
Initializing Density Matrix...

InitMesh: MESH =   120 x   120 x    90 =     1296000
InitMesh: Mesh cutoff (required, used) =   200.000   223.865 Ry

* Maximum dynamic memory allocated =   235 MB

stepf: Fermi-Dirac step function

siesta: Program's energy decomposition (eV):
siesta: Ebs     =     -5315.036303
siesta: Eions   =     15073.536580
siesta: Ena     =      4072.406141
siesta: Ekin    =      5006.990805
siesta: Enl     =       862.038508
siesta: DEna    =        -0.000006
siesta: DUscf   =         0.000000
siesta: DUext   =         0.000000
siesta: Exc     =     -4186.343734
siesta: eta*DQ  =         0.000000
siesta: Emadel  =         0.000000
siesta: Emeta   =         0.000000
siesta: Emolmec =         0.000000
siesta: Ekinion =         0.000000
siesta: Eharris =     -9211.004527
siesta: Etot    =     -9318.444866
siesta: FreeEng =     -9318.444866

siesta: iscf   Eharris(eV)      E_KS(eV)   FreeEng(eV)   dDmax  Ef(eV)
siesta:    1    -9211.0045    -9318.4449    -9318.4449  6.8592 -8.6334
timer: Routine,Calls,Time,% = IterSCF        1    4419.461  99.72
elaps: Routine,Calls,Wall,% = IterSCF        1     553.341  99.72
siesta:    2   -17890.6429    -7876.2366    -7876.2696 17.5481-12.6144
siesta:    3    -9503.0172    -9112.8931    -9112.9732  1.8260 -4.9131
siesta:    4    -9348.4636    -9080.7169    -9080.7173  1.4472 -5.1779
siesta:    5    -9252.6825    -9053.8507    -9053.8548  1.3783 -5.0825
siesta:    6    -9193.2385    -9031.1487    -9031.1653  1.2005 -4.9451
siesta:    7    -9061.5303    -8998.9348    -8998.9790  0.8357 -5.3261
siesta:    8    -9057.2782    -8984.8732    -8984.9362  0.8307 -5.3145
siesta:    9    -9054.7509    -8982.3077    -8982.3697  0.8986 -5.1967
siesta:   10    -9050.1029    -8986.8442    -8986.9124  0.7351 -5.1957
siesta:   11    -9050.5135    -8993.9444    -8994.0163  0.7333 -5.2027
siesta:   12    -9050.5978    -8999.9237    -8999.9940  0.6708 -5.1252
siesta:   13    -9049.3787    -9014.1111    -9014.1542  0.6595 -5.2375
siesta:   14    -9048.9918    -9021.6212    -9021.6617  0.5797 -5.2404
siesta:   15    -9048.7750    -9028.4925    -9028.5613  0.5364 -5.2560
siesta:   16    -9048.3568    -9030.6184    -9030.6905  0.4560 -5.2625
siesta:   17    -9047.9794    -9040.9129    -9040.9966  0.2040 -5.3930
siesta:   18    -9047.7064    -9039.9475    -9040.0094  0.1656 -5.3714
siesta:   19    -9047.6594    -9040.1073    -9040.1799  0.1590 -5.3743
siesta:   20    -9047.4401    -9039.4844    -9039.5624  0.1126 -5.3582
siesta:   21    -9047.3558    -9041.2455    -9041.3129  0.0721 -5.3754
siesta:   22    -9047.3172    -9042.7934    -9042.8623  0.1010 -5.3953
siesta:   23    -9047.2864    -9043.6566    -9043.7258  0.0631 -5.4005
siesta:   24    -9047.2632    -9043.6229    -9043.6947  0.0630 -5.3973
siesta:   25    -9047.2607    -9043.7471    -9043.8165  0.0537 -5.3871
siesta:   26    -9047.2526    -9044.2511    -9044.3203  0.0202 -5.3823
siesta:   27    -9047.2500    -9044.5557    -9044.6263  0.0208 -5.3784
siesta:   28    -9047.2524    -9045.0199    -9045.0917  0.0154 -5.3825
siesta:   29    -9047.2495    -9046.3339    -9046.4048  0.0100 -5.3821
siesta:   30    -9047.2483    -9046.8831    -9046.9532  0.0068 -5.3828
siesta:   31    -9047.2479    -9046.9833    -9047.0542  0.0095 -5.3821
siesta:   32    -9047.2471    -9047.0780    -9047.1484  0.0040 -5.3819
siesta:   33    -9047.2475    -9047.1076    -9047.1784  0.0029 -5.3818
siesta:   34    -9047.2473    -9047.1736    -9047.2439  0.0024 -5.3821
siesta:   35    -9047.2473    -9047.2341    -9047.3046  0.0014 -5.3825
siesta:   36    -9047.2471    -9047.2437    -9047.3142  0.0010 -5.3826
siesta:   37    -9047.2472    -9047.2555    -9047.3261  0.0005 -5.3822
siesta:   38    -9047.2472    -9047.2588    -9047.3293  0.0005 -5.3821
siesta:   39    -9047.2472    -9047.2631    -9047.3337  0.0004 -5.3820
siesta:   40    -9047.2472    -9047.2632    -9047.3337  0.0002 -5.3821
siesta:   41    -9047.2472    -9047.2666    -9047.3371  0.0001 -5.3821
siesta:   42    -9047.2472    -9047.2648    -9047.3354  0.0001 -5.3821
siesta:   43    -9047.2472    -9047.2609    -9047.3315  0.0001 -5.3821
siesta:   44    -9047.2472    -9047.2575    -9047.3281  0.0001 -5.3821

siesta: E_KS(eV) =            -9047.2546

siesta: E_KS - E_eggbox =     -9047.2546

siesta: Atomic forces (eV/Ang):
----------------------------------------
   Tot   -0.083499   -0.355108    0.000000
----------------------------------------
   Max  559.261327
   Res  120.321654    sqrt( Sum f_i^2 / 3N )
----------------------------------------
   Max  559.261327    constrained

Stress-tensor-Voigt (kbar):     -623.34    -2163.44       -0.76       -3.27        0.00        0.00
(Free)E + p*V (eV/cell)    -7949.3651
Target enthalpy (eV/cell)    -9047.3251

siesta: Stress tensor (static) (eV/Ang**3):
        -0.389052   -0.002041    0.000000
        -0.002041   -1.350299    0.000000
         0.000000    0.000000   -0.000472

siesta: Pressure (static):        929.17809747  kBar

siesta: Stress tensor (total) (eV/Ang**3):
        -0.389052   -0.002041    0.000000
        -0.002041   -1.350299    0.000000
         0.000000    0.000000   -0.000472

siesta: Pressure (total):        929.17809747  kBar

siesta: Temp_ion =       0.000 K

* Maximum dynamic memory allocated =   252 MB
Computing bands...

siesta: Program's energy decomposition (eV):
siesta: Ebs     =     -3997.944917
siesta: Eions   =     15073.536580
siesta: Ena     =      4072.406141
siesta: Ekin    =      7590.339833
siesta: Enl     =      -729.478384
siesta: DEna    =      -663.707224
siesta: DUscf   =        86.921301
siesta: DUext   =         0.000000
siesta: Exc     =     -4330.199676
siesta: eta*DQ  =         0.000000
siesta: Emadel  =         0.000000
siesta: Emeta   =         0.000000
siesta: Emolmec =         0.000000
siesta: Ekinion =         0.000000
siesta: Eharris =     -9047.247166
siesta: Etot    =     -9047.254590
siesta: FreeEng =     -9047.325143

siesta: Final energy (eV):
siesta:  Band Struct. =   -3997.944917
siesta:       Kinetic =    7590.339833
siesta:       Hartree =   23492.613176
siesta:    Ext. field =       0.000000
siesta:   Exch.-corr. =   -4330.199676
siesta:  Ion-electron =  -54328.110682
siesta:       Ion-ion =   18528.102759
siesta:       Ekinion =       0.000000
siesta:         Total =   -9047.254590

siesta: Atomic forces (eV/Ang):
siesta:      1   -0.241435  286.471281    0.000000
siesta:      2   -0.255709  -96.294267    0.000000
siesta:      3    3.605702  295.500931    0.000000
siesta:      4    7.402734 -107.914001    0.000000
siesta:      5   -3.936304  295.487068    0.000000
siesta:      6   -9.077008 -108.323619    0.000000
siesta:      7    1.609525  295.677364    0.000000
siesta:      8   -4.475368 -102.956488    0.000000
siesta:      9  -16.418199  403.105245    0.000000
siesta:     10  -14.189691   -3.055148    0.000000
siesta:     11   -0.161258  302.402524    0.000000
siesta:     12    3.354738    3.474667    0.000000
siesta:     13   -1.747568   -2.536953    0.000000
siesta:     14   -5.240651    4.308092    0.000000
siesta:     15    2.993777   -3.687033    0.000000
siesta:     16   -5.656811    3.528993    0.000000
siesta:     17    4.105229   -4.430382    0.000000
siesta:     18   -0.200415 -298.325576    0.000000
siesta:     19   17.627126   -0.031136    0.000000
siesta:     20   18.607990 -298.222420    0.000000
siesta:     21  -16.988789    0.535573    0.000000
siesta:     22  -18.307314 -298.147121    0.000000
siesta:     23    0.004996  101.942641    0.000000
siesta:     24   -1.266100 -291.562683    0.000000
siesta:     25    3.758096  100.841611    0.000000
siesta:     26    2.831247 -294.966703    0.000000
siesta:     27   14.992359  115.092108    0.000000
siesta:     28   -7.512610 -407.946798    0.000000
siesta:     29  -13.854765  120.683695    0.000000
siesta:     30    2.797024 -548.159302    0.000000
siesta:     31   22.282028    0.689517    0.000000
siesta:     32   32.044483 -553.679876    0.000000
siesta:     33    2.836150    0.563529    0.000000
siesta:     34   -1.512950    2.397521    0.000000
siesta:     35    2.540115    1.975003    0.000000
siesta:     36   -1.059177    0.414371    0.000000
siesta:     37  -22.495458    1.517586    0.000000
siesta:     38  -32.570056 -554.647557    0.000000
siesta:     39   22.904100  544.852579    0.000000
siesta:     40   26.506000   -4.706208    0.000000
siesta:     41   -2.411144   -2.134376    0.000000
siesta:     42    2.219242   -0.382576    0.000000
siesta:     43   -1.037867   -0.306266    0.000000
siesta:     44    2.224590   -1.790262    0.000000
siesta:     45   -0.099585    7.128674    0.000000
siesta:     46   -0.240669   -7.109691    0.000000
siesta:     47   15.733335  559.261327    0.000000
siesta:     48   20.672244   -4.143927    0.000000
siesta:     49   -0.668997    0.700739    0.000000
siesta:     50   -0.330749    0.586227    0.000000
siesta:     51    0.156187    0.784830    0.000000
siesta:     52   -0.237840   -0.943720    0.000000
siesta:     53  -19.837927  546.564338    0.000000
siesta:     54  -24.848049   -0.259091    0.000000
siesta:     55    4.041113    1.436025    0.000000
siesta:     56    3.389317   -1.171914    0.000000
siesta:     57    2.026565   -1.788123    0.000000
siesta:     58   -6.292518   -1.882184    0.000000
siesta:     59    1.688848   -0.389151    0.000000
siesta:     60   -2.750084   -1.620108    0.000000
siesta:     61   -2.406224    2.218535    0.000000
siesta:     62   -0.219181   -0.466972    0.000000
siesta:     63    0.062124    7.350849    0.000000
siesta:     64    0.117537   -7.354956    0.000000
siesta:     65   -2.945067    2.016059    0.000000
siesta:     66    1.438591    0.301370    0.000000
siesta:     67   -0.052668   -0.528535    0.000000
siesta:     68    0.615953   -0.975238    0.000000
siesta:     69   -2.955644    1.704137    0.000000
siesta:     70   -1.138826   -1.775993    0.000000
siesta:     71   -3.079160    0.806161    0.000000
siesta:     72    1.447275    1.940075    0.000000
siesta: ----------------------------------------
siesta:    Tot   -0.083499   -0.355108    0.000000

siesta: Stress tensor (static) (eV/Ang**3):
siesta:    -0.389052   -0.002041    0.000000
siesta:    -0.002041   -1.350299    0.000000
siesta:     0.000000    0.000000   -0.000472

siesta: Cell volume =       1893.226884 Ang**3

siesta: Pressure (static):
siesta:                Solid            Molecule  Units
siesta:           0.00631630          0.08816368  Ry/Bohr**3
siesta:           0.57994108          8.09488957  eV/Ang**3
siesta:         929.17809747      12969.58311320  kBar
(Free)E+ p_basis*V_orbitals  =       -9008.372738
(Free)Eharris+ p_basis*V_orbitals  =       -9008.362392

siesta: Electric dipole (a.u.)  =    0.000000    0.000000    0.000000
siesta: Electric dipole (Debye) =    0.000000    0.000000    0.000000

* Maximum dynamic memory allocated : Node    0 =   252 MB
* Maximum dynamic memory allocated : Node    1 =    88 MB
* Maximum dynamic memory allocated : Node    2 =    90 MB
* Maximum dynamic memory allocated : Node    3 =   238 MB
* Maximum dynamic memory allocated : Node    4 =   231 MB
* Maximum dynamic memory allocated : Node    5 =    86 MB
* Maximum dynamic memory allocated : Node    6 =    87 MB
* Maximum dynamic memory allocated : Node    7 =   212 MB

* Maximum memory occured during matrixMtoO                    

timer: CPU execution times:
timer:  Routine       Calls   Time/call    Tot.time        %
timer:  siesta            1  192120.034  192120.034   100.00
timer:  Setup             1       3.691       3.691     0.00
timer:  bands             3     269.235     807.706     0.42
timer:  writewave         1       0.037       0.037     0.00
timer:  KSV_init          1       0.005       0.005     0.00
timer:  IterMD            1  191302.959  191302.959    99.57
timer:  hsparse           1       0.393       0.393     0.00
timer:  overlap           1       7.813       7.813     0.00
timer:  IterSCF          44    4341.997  191047.879    99.44
timer:  kinefsm           2       4.047       8.094     0.00
timer:  nlefsm            2      21.832      43.664     0.02
timer:  DHSCF            45     134.683    6060.713     3.15
timer:  DHSCF1            1       0.989       0.989     0.00
timer:  DHSCF2            1      46.401      46.401     0.02
timer:  REORD           362       0.010       3.608     0.00
timer:  POISON           46       2.242     103.154     0.05
timer:  DHSCF3           45     132.549    5964.696     3.10
timer:  rhoofd           45      28.120    1265.420     0.66
timer:  cellXC           45       3.527     158.695     0.08
timer:  vmat             45      64.231    2890.398     1.50
timer:  MolMec            2       0.000       0.000     0.00
timer:  diagon           44    4205.803  185055.312    96.32
timer:  c-eigval      10285       6.671   68614.138    35.71
timer:  c-buildHS     10285       0.122    1259.426     0.66
timer:  cdiag         20449       6.838  139821.750    72.78
timer:  cdiag1        20449       0.426    8701.649     4.53
timer:  cdiag2        20449       1.906   38984.418    20.29
timer:  cdiag3        20449       3.942   80607.468    41.96
timer:  cdiag4        20449       0.220    4507.933     2.35
timer:  c-eigvec      10164       7.205   73235.844    38.12
timer:  c-buildD      10164       4.325   43956.953    22.88
timer:  DHSCF4            1      46.250      46.250     0.02
timer:  dfscf             1      43.512      43.512     0.02
timer:  overfsm           1       0.490       0.490     0.00
timer:  optical           1       4.975       4.975     0.00
  

elaps: ELAPSED times:
elaps:  Routine       Calls   Time/call    Tot.time        %
elaps:  siesta            1   24043.860   24043.860   100.00
elaps:  Setup             1       0.477       0.477     0.00
elaps:  bands             3      33.707     101.120     0.42
elaps:  writewave         1       0.005       0.005     0.00
elaps:  KSV_init          1       0.001       0.001     0.00
elaps:  IterMD            1   23941.604   23941.604    99.57
elaps:  hsparse           1       0.048       0.048     0.00
elaps:  overlap           1       0.976       0.976     0.00
elaps:  IterSCF          44     543.405   23909.837    99.44
elaps:  kinefsm           2       0.507       1.014     0.00
elaps:  nlefsm            2       2.775       5.550     0.02
elaps:  DHSCF            45      16.984     764.298     3.18
elaps:  DHSCF1            1       0.127       0.127     0.00
elaps:  DHSCF2            1       5.802       5.802     0.02
elaps:  REORD           362       0.001       0.477     0.00
elaps:  POISON           46       0.281      12.916     0.05
elaps:  DHSCF3           45      16.582     746.186     3.10
elaps:  rhoofd           45       7.663     344.837     1.43
elaps:  cellXC           45       0.440      19.820     0.08
elaps:  vmat             45       8.035     361.563     1.50
elaps:  MolMec            2       0.000       0.000     0.00
elaps:  diagon           44     526.365   23160.072    96.32
elaps:  c-eigval      10285       0.835    8585.036    35.71
elaps:  c-buildHS     10285       0.017     170.787     0.71
elaps:  cdiag         20449       0.849   17352.765    72.17
elaps:  cdiag1        20449       0.053    1079.856     4.49
elaps:  cdiag2        20449       0.239    4877.766    20.29
elaps:  cdiag3        20449       0.494   10099.454    42.00
elaps:  cdiag4        20449       0.028     568.392     2.36
elaps:  c-eigvec      10164       0.891    9056.305    37.67
elaps:  c-buildD      10164       0.552    5609.543    23.33
elaps:  DHSCF4            1      11.859      11.859     0.05
elaps:  dfscf             1      11.316      11.316     0.05
elaps:  overfsm           1       0.061       0.061     0.00
elaps:  optical           1       0.001       0.001     0.00
  
>> End of run:  19-APR-2016   1:32:08
