Siesta Version:                                        siesta-3.2-pl-3
Architecture  : x86_64-unknown-linux-gnu--unknown
Compiler flags: mpiifort -g -O2 -fPIC -xSSE4.1 -fp-model source -shared-intel 
PARALLEL version

* Running on   12 nodes in parallel
>> Start of run:   7-MAY-2016  21:35:57

                           ***********************       
                           *  WELCOME TO SIESTA  *       
                           ***********************       

reinit: Reading from standard input
************************** Dump of input data file ****************************
#(1) General system descriptors
SystemName            GRP_doping    # Descriptive name of the system
SystemLabel           GRP_doping    # Short name for naming files
%include STRUCT.fdf
%include KPT.fdf
%include BASIS.fdf
#%include TS.fdf # for transiesta calculation
#(4) DFT, Grid, SCF
XC.functional         GGA           # LDA or GGA (default = LDA)
XC.authors            PBE           # CA (Ceperley-Aldr) = PZ
                                    #    (Perdew-Zunger) - LDA - Default
                                    # PW92 (Perdew-Wang-92) - LDA
                                    # PBE (Perdew-Burke-Ernzerhof) - GGA
MeshCutoff            200.000000    Ry      # Default: 50.0 Ry ~ 0.444 Bohr
                                    #         100.0 Ry ~ 0.314 Bohr
MaxSCFIterations      500           # Default: 50
DM.MixingWeight       0.05          # Default: 0.25
DM.NumberPulay        10            # Default: 0
DM.PulayOnFile        F             # SystemLabel.P1, SystemLabel.P2
DM.Tolerance          1.d-4         # Default: 1.d-4
DM.UseSaveDM          .true.        # because of the bug
SCFMustConverge       .true.
NeglNonOverlapInt     F             # Default: F
#(5) Eigenvalue problem: order-N or diagonalization
SolutionMethod        Diagon        # or Transiesta
ElectronicTemperature 300.0 K       # Default: 300.0 K
#(6) Molecular dynamics and relaxations
#MD.TypeOfRun          CG            # Type of dynamics:
#MD.VariableCell       F
#MD.NumCGsteps         0           # 0 for single-point / 100 for gopt
#MD.MaxCGDispl         0.2 Bohr      # Default: 0.2 Bohr
#MD.MaxForceTol        0.02 eV/Ang   # Default: 0.04 eV/Ang
#MD.MaxStressTol       1.0 GPa       # Default: 1.0 GPa
# Geometry Constraints
#%block GeometryConstraints
#	position from 1 to 44
#%endblock GeometryConstraints
BandLinesScale   pi/a
%block BandLines
 1   0.00000000  0.00000000  0.00000000
50   0.00000000  0.07809418  0.00000000
50   0.04509075  0.07809242  0.00000000
20   0.00000000  0.00000000  0.00000000
%endblock BandLines
************************** End of input data file *****************************

reinit: -----------------------------------------------------------------------
reinit: System Name: GRP_doping
reinit: -----------------------------------------------------------------------
reinit: System Label: GRP_doping                                                  
reinit: -----------------------------------------------------------------------

initatom: Reading input for the pseudopotentials and atomic orbitals ----------
 Species number:            1  Label: N Atomic number:           7
 Species number:            2  Label: C Atomic number:           6
Ground state valence configuration:   2s02  2p03
Reading pseudopotential information in formatted form from N.psf

Valence configuration for pseudopotential generation:
2s( 2.00) rc: 1.48
2p( 3.00) rc: 1.48
3d( 0.00) rc: 1.48
4f( 0.00) rc: 1.48
Ground state valence configuration:   2s02  2p02
Reading pseudopotential information in formatted form from C.psf

Valence configuration for pseudopotential generation:
2s( 2.00) rc: 1.54
2p( 2.00) rc: 1.54
3d( 0.00) rc: 1.54
4f( 0.00) rc: 1.54
For N, standard SIESTA heuristics set lmxkb to 3
 (one more than the basis l, including polarization orbitals).
Use PS.lmax or PS.KBprojectors blocks to override.
For C, standard SIESTA heuristics set lmxkb to 3
 (one more than the basis l, including polarization orbitals).
Use PS.lmax or PS.KBprojectors blocks to override.

<basis_specs>
===============================================================================
N                    Z=   7    Mass=  14.010        Charge= 0.17977+309
Lmxo=1 Lmxkb= 3    BasisType=split      Semic=F
L=0  Nsemic=0  Cnfigmx=2
          n=1  nzeta=2  polorb=0
            splnorm:   0.15000    
               vcte:    0.0000    
               rinn:    0.0000    
                rcs:    0.0000      0.0000    
            lambdas:    1.0000      1.0000    
L=1  Nsemic=0  Cnfigmx=2
          n=1  nzeta=2  polorb=1
            splnorm:   0.15000    
               vcte:    0.0000    
               rinn:    0.0000    
                rcs:    0.0000      0.0000    
            lambdas:    1.0000      1.0000    
-------------------------------------------------------------------------------
L=0  Nkbl=1  erefs: 0.17977+309
L=1  Nkbl=1  erefs: 0.17977+309
L=2  Nkbl=1  erefs: 0.17977+309
L=3  Nkbl=1  erefs: 0.17977+309
===============================================================================
</basis_specs>

atom: Called for N                     (Z =   7)

read_vps: Pseudopotential generation method:
read_vps: ATM3      Troullier-Martins                       
Total valence charge:    5.00000

read_vps: Pseudopotential includes a core correction:
read_vps: Pseudo-core for xc-correction

xc_check: Exchange-correlation functional:
xc_check: GGA Perdew, Burke & Ernzerhof 1996
V l=0 = -2*Zval/r beyond r=  1.4606
V l=1 = -2*Zval/r beyond r=  1.4606
V l=2 = -2*Zval/r beyond r=  1.4606
V l=3 = -2*Zval/r beyond r=  1.4606
All V_l potentials equal beyond r=  1.4606
This should be close to max(r_c) in ps generation
All pots = -2*Zval/r beyond r=  1.4606

VLOCAL1: 99.0% of the norm of Vloc inside     20.347 Ry
VLOCAL1: 99.9% of the norm of Vloc inside     46.372 Ry
atom: Maximum radius for 4*pi*r*r*local-pseudopot. charge    1.76189
atom: Maximum radius for r*vlocal+2*Zval:    1.53550
GHOST: No ghost state for L =  0
GHOST: No ghost state for L =  1
GHOST: No ghost state for L =  2
GHOST: No ghost state for L =  3

KBgen: Kleinman-Bylander projectors: 
   l= 0   rc=  1.634559   el= -1.363963   Ekb=  5.296955   kbcos=  0.335621
   l= 1   rc=  1.614250   el= -0.521451   Ekb= -5.259161   kbcos= -0.433408
   l= 2   rc=  1.718383   el=  0.001991   Ekb= -1.271464   kbcos= -0.007566
   l= 3   rc=  1.761893   el=  0.003093   Ekb= -0.494769   kbcos= -0.001015

KBgen: Total number of  Kleinman-Bylander projectors:   16
atom: -------------------------------------------------------------------------

atom: SANKEY-TYPE ORBITALS:
atom: Selected multiple-zeta basis: split     

SPLIT: Orbitals with angular momentum L= 0

SPLIT: Basis orbitals for state 2s

SPLIT: PAO cut-off radius determined from an
SPLIT: energy shift=  0.007350 Ry

   izeta = 1
                 lambda =    1.000000
                     rc =    4.071465
                 energy =   -1.356470
                kinetic =    1.176977
    potential(screened) =   -2.533447
       potential(ionic) =   -8.057990

   izeta = 2
                 rmatch =    2.905100
              splitnorm =    0.150000
                 energy =   -1.158343
                kinetic =    1.813009
    potential(screened) =   -2.971352
       potential(ionic) =   -8.901931

SPLIT: Orbitals with angular momentum L= 1

SPLIT: Basis orbitals for state 2p

SPLIT: PAO cut-off radius determined from an
SPLIT: energy shift=  0.007350 Ry

   izeta = 1
                 lambda =    1.000000
                     rc =    4.972977
                 energy =   -0.513884
                kinetic =    3.441732
    potential(screened) =   -3.955616
       potential(ionic) =   -9.287901

   izeta = 2
                 rmatch =    3.054066
              splitnorm =    0.150000
                 energy =   -0.318226
                kinetic =    5.125348
    potential(screened) =   -5.443573
       potential(ionic) =  -11.380999

POLgen: Perturbative polarization orbital with L=  2

POLgen: Polarization orbital for state 2p

   izeta = 1
                     rc =    4.972977
                 energy =    1.607437
                kinetic =    3.268125
    potential(screened) =   -1.660688
       potential(ionic) =   -5.973652
atom: Total number of Sankey-type orbitals: 13

atm_pop: Valence configuration (for local Pseudopot. screening):
 2s( 2.00)                                                            
 2p( 3.00)                                                            
Vna: chval, zval:    5.00000   5.00000

Vna:  Cut-off radius for the neutral-atom potential:   4.972977
comcore: Pseudo-core radius Rcore=  1.554824

atom: _________________________________________________________________________

<basis_specs>
===============================================================================
C                    Z=   6    Mass=  12.010        Charge= 0.17977+309
Lmxo=1 Lmxkb= 3    BasisType=split      Semic=F
L=0  Nsemic=0  Cnfigmx=2
          n=1  nzeta=2  polorb=0
            splnorm:   0.15000    
               vcte:    0.0000    
               rinn:    0.0000    
                rcs:    0.0000      0.0000    
            lambdas:    1.0000      1.0000    
L=1  Nsemic=0  Cnfigmx=2
          n=1  nzeta=2  polorb=1
            splnorm:   0.15000    
               vcte:    0.0000    
               rinn:    0.0000    
                rcs:    0.0000      0.0000    
            lambdas:    1.0000      1.0000    
-------------------------------------------------------------------------------
L=0  Nkbl=1  erefs: 0.17977+309
L=1  Nkbl=1  erefs: 0.17977+309
L=2  Nkbl=1  erefs: 0.17977+309
L=3  Nkbl=1  erefs: 0.17977+309
===============================================================================
</basis_specs>

atom: Called for C                     (Z =   6)

read_vps: Pseudopotential generation method:
read_vps: ATM3      Troullier-Martins                       
Total valence charge:    4.00000

read_vps: Pseudopotential includes a core correction:
read_vps: Pseudo-core for xc-correction

xc_check: Exchange-correlation functional:
xc_check: GGA Perdew, Burke & Ernzerhof 1996
V l=0 = -2*Zval/r beyond r=  1.5227
V l=1 = -2*Zval/r beyond r=  1.5227
V l=2 = -2*Zval/r beyond r=  1.5227
V l=3 = -2*Zval/r beyond r=  1.5038
All V_l potentials equal beyond r=  1.5227
This should be close to max(r_c) in ps generation
All pots = -2*Zval/r beyond r=  1.5227

VLOCAL1: 99.0% of the norm of Vloc inside     18.722 Ry
VLOCAL1: 99.9% of the norm of Vloc inside     42.668 Ry
atom: Maximum radius for 4*pi*r*r*local-pseudopot. charge    1.83678
atom: Maximum radius for r*vlocal+2*Zval:    1.58088
GHOST: No ghost state for L =  0
GHOST: No ghost state for L =  1
GHOST: No ghost state for L =  2
GHOST: No ghost state for L =  3

KBgen: Kleinman-Bylander projectors: 
   l= 0   rc=  1.704034   el= -1.009801   Ekb=  5.335044   kbcos=  0.316824
   l= 1   rc=  1.704034   el= -0.388707   Ekb= -3.785862   kbcos= -0.366464
   l= 2   rc=  1.791422   el=  0.001971   Ekb= -0.970471   kbcos= -0.009212
   l= 3   rc=  1.859892   el=  0.003065   Ekb= -0.399525   kbcos= -0.001223

KBgen: Total number of  Kleinman-Bylander projectors:   16
atom: -------------------------------------------------------------------------

atom: SANKEY-TYPE ORBITALS:
atom: Selected multiple-zeta basis: split     

SPLIT: Orbitals with angular momentum L= 0

SPLIT: Basis orbitals for state 2s

SPLIT: PAO cut-off radius determined from an
SPLIT: energy shift=  0.007350 Ry

   izeta = 1
                 lambda =    1.000000
                     rc =    4.632753
                 energy =   -1.002270
                kinetic =    0.855760
    potential(screened) =   -1.858031
       potential(ionic) =   -5.417575

   izeta = 2
                 rmatch =    3.431921
              splitnorm =    0.150000
                 energy =   -0.867111
                kinetic =    1.300804
    potential(screened) =   -2.167915
       potential(ionic) =   -5.962684

SPLIT: Orbitals with angular momentum L= 1

SPLIT: Basis orbitals for state 2p

SPLIT: PAO cut-off radius determined from an
SPLIT: energy shift=  0.007350 Ry

   izeta = 1
                 lambda =    1.000000
                     rc =    5.658549
                 energy =   -0.381140
                kinetic =    2.399701
    potential(screened) =   -2.780841
       potential(ionic) =   -6.206085

   izeta = 2
                 rmatch =    3.653288
              splitnorm =    0.150000
                 energy =   -0.249149
                kinetic =    3.542762
    potential(screened) =   -3.791911
       potential(ionic) =   -7.581078

POLgen: Perturbative polarization orbital with L=  2

POLgen: Polarization orbital for state 2p

   izeta = 1
                     rc =    5.658549
                 energy =    1.109913
                kinetic =    2.304789
    potential(screened) =   -1.194876
       potential(ionic) =   -4.013592
atom: Total number of Sankey-type orbitals: 13

atm_pop: Valence configuration (for local Pseudopot. screening):
 2s( 2.00)                                                            
 2p( 2.00)                                                            
Vna: chval, zval:    4.00000   4.00000

Vna:  Cut-off radius for the neutral-atom potential:   5.658549
comcore: Pseudo-core radius Rcore=  1.791422

atom: _________________________________________________________________________

prinput: Basis input ----------------------------------------------------------

PAO.BasisType split     

%block ChemicalSpeciesLabel
    1    7 N                       # Species index, atomic number, species label
    2    6 C                       # Species index, atomic number, species label
%endblock ChemicalSpeciesLabel

%block PAO.Basis                 # Define Basis set
N                     2                    # Species label, number of l-shells
 n=2   0   2                         # n, l, Nzeta 
   4.071      2.905   
   1.000      1.000   
 n=2   1   2 P   1                   # n, l, Nzeta, Polarization, NzetaPol
   4.973      3.054   
   1.000      1.000   
C                     2                    # Species label, number of l-shells
 n=2   0   2                         # n, l, Nzeta 
   4.633      3.432   
   1.000      1.000   
 n=2   1   2 P   1                   # n, l, Nzeta, Polarization, NzetaPol
   5.659      3.653   
   1.000      1.000   
%endblock PAO.Basis

prinput: ----------------------------------------------------------------------

coor:   Atomic-coordinates input format  =     Fractional

siesta: Atomic coordinates (Bohr) and species
siesta:     -4.68258  34.85847   0.00000  1        1
siesta:     11.61608  22.75985   0.00000  1        2
siesta:     -0.02582  10.66124   0.00000  1        3
siesta:      4.63094  18.72698   0.00000  1        4
siesta:     -0.02582  18.72698   0.00000  1        5
siesta:     -4.68258  18.72698   0.00000  1        6
siesta:     -9.33934  26.79272   0.00000  1        7
siesta:      4.63094  26.79272   0.00000  1        8
siesta:     -0.02582  26.79272   0.00000  1        9
siesta:     -4.68258  26.79272   0.00000  1       10
siesta:     -0.02582  34.85847   0.00000  1       11
siesta:     -0.02582   2.59549   0.00000  2       12
siesta:     -0.02582   5.28395   0.00000  2       13
siesta:     -2.35420  38.89134   0.00000  2       14
siesta:     -2.35420  41.57980   0.00000  2       15
siesta:      2.30256  38.89134   0.00000  2       16
siesta:      2.30256  41.57980   0.00000  2       17
siesta:      4.63094  34.85847   0.00000  2       18
siesta:      4.63094  37.54693   0.00000  2       19
siesta:      6.95932  30.82560   0.00000  2       20
siesta:      6.95932  33.51406   0.00000  2       21
siesta:      9.28770  26.79272   0.00000  2       22
siesta:      9.28770  29.48119   0.00000  2       23
siesta:     -4.68258  37.54693   0.00000  2       24
siesta:      2.30256   6.62836   0.00000  2       25
siesta:      2.30256   9.31683   0.00000  2       26
siesta:      4.63094  10.66124   0.00000  2       27
siesta:      4.63094  13.34970   0.00000  2       28
siesta:      6.95932  14.69411   0.00000  2       29
siesta:      6.95932  17.38257   0.00000  2       30
siesta:      9.28770  18.72698   0.00000  2       31
siesta:      9.28770  21.41544   0.00000  2       32
siesta:     11.61608  25.44831   0.00000  2       33
siesta:     -2.35420   6.62836   0.00000  2       34
siesta:     -2.35420   9.31683   0.00000  2       35
siesta:     -0.02582  13.34970   0.00000  2       36
siesta:      2.30256  14.69411   0.00000  2       37
siesta:      2.30256  17.38257   0.00000  2       38
siesta:      4.63094  21.41544   0.00000  2       39
siesta:      6.95932  22.75985   0.00000  2       40
siesta:      6.95932  25.44831   0.00000  2       41
siesta:     -4.68258  10.66124   0.00000  2       42
siesta:     -4.68258  13.34970   0.00000  2       43
siesta:     -2.35420  14.69411   0.00000  2       44
siesta:     -2.35420  17.38257   0.00000  2       45
siesta:     -0.02582  21.41544   0.00000  2       46
siesta:      2.30256  22.75985   0.00000  2       47
siesta:      2.30256  25.44831   0.00000  2       48
siesta:     -7.01096  14.69411   0.00000  2       49
siesta:     -7.01096  17.38257   0.00000  2       50
siesta:     -4.68258  21.41544   0.00000  2       51
siesta:     -2.35420  22.75985   0.00000  2       52
siesta:     -2.35420  25.44831   0.00000  2       53
siesta:     -9.33934  18.72698   0.00000  2       54
siesta:     -9.33934  21.41544   0.00000  2       55
siesta:     -7.01096  22.75985   0.00000  2       56
siesta:     -7.01096  25.44831   0.00000  2       57
siesta:    -11.66772  22.75985   0.00000  2       58
siesta:    -11.66772  25.44831   0.00000  2       59
siesta:     -9.33934  29.48119   0.00000  2       60
siesta:      4.63094  29.48119   0.00000  2       61
siesta:     -0.02582  29.48119   0.00000  2       62
siesta:     -4.68258  29.48119   0.00000  2       63
siesta:      2.30256  30.82560   0.00000  2       64
siesta:      2.30256  33.51406   0.00000  2       65
siesta:     -2.35420  30.82560   0.00000  2       66
siesta:     -2.35420  33.51406   0.00000  2       67
siesta:     -7.01096  30.82560   0.00000  2       68
siesta:     -7.01096  33.51406   0.00000  2       69
siesta:     -0.02582  37.54693   0.00000  2       70
siesta:     -0.02582  42.92421   0.00000  2       71
siesta:     -0.02582  45.61267   0.00000  2       72

siesta: System type = slab      

initatomlists: Number of atoms, orbitals, and projectors:     72   936  1152

siesta: ******************** Simulation parameters ****************************
siesta:
siesta: The following are some of the parameters of the simulation.
siesta: A complete list of the parameters used, including default values,
siesta: can be found in file out.fdf
siesta:
redata: Non-Collinear-spin run           =     F
redata: SpinPolarized (Up/Down) run      =     F
redata: Number of spin components        =     1
redata: Long output                      =     F
redata: Number of Atomic Species         =        2
redata: Charge density info will appear in .RHO file
redata: Write Mulliken Pop.              =     NO
redata: Mesh Cutoff                      =   200.0000  Ry
redata: Net charge of the system         =     0.0000 |e|
redata: Max. number of SCF Iter          =      500
redata: SCF convergence failure will abort job
redata: Performing Pulay mixing using    =    10 iterations
redata: Mix DM in first SCF step ?       =     F
redata: Write Pulay info on disk?        =     F
redata: Discard 1st Pulay DM after  kick =     F
redata: New DM Mixing Weight             =     0.0500
redata: New DM Occupancy tolerance       = 0.000000000001
redata: No kicks to SCF
redata: DM Mixing Weight for Kicks       =     0.5000
redata: DM Tolerance for SCF             =     0.000100
redata: Require Energy convergence for SCF =     F
redata: DM Energy tolerance for SCF      =     0.000100 eV
redata: Require Harris convergence for SCF =     F
redata: DM Harris energy tolerance for SCF =     0.000100 eV
redata: Using Saved Data (generic)   =     F
redata: Use continuation files for DM    =     T
redata: Neglect nonoverlap interactions  =     F
redata: Method of Calculation            =     Diagonalization
redata: Divide and Conquer               =     T
redata: Electronic Temperature           =     0.0019  Ry
redata: Fix the spin of the system       =     F
redata: Dynamics option                  =     Verlet MD run
redata: Initial MD time step             =        1
redata:   Final MD time step             =        1
redata: Length of MD time step           =     1.0000  fs
redata: Initial Temperature of MD run    =     0.0000  K
redata: Perform a MD quench              =     F
redata: ***********************************************************************
Total number of electrons:   299.000000
Total ionic charge:   299.000000

* ProcessorY, Blocksize:    3  24

k-point displ. along   1 input, could be:     0.50    0.00
k-point displ. along   2 input, could be:     0.50    0.00
 Kpoints in:          231 . Kpoints trimmed:          231

siesta: k-grid: Number of k-points =   231
siesta: k-grid: Cutoff (effective) =     5.000 Ang
siesta: k-grid: Supercell and displacements
siesta: k-grid:   21   0   0      0.500
siesta: k-grid:    0  21   0      0.500
siesta: k-grid:    0   0   1      0.000
Naive supercell factors:     2    2    2

superc: Internal auxiliary supercell:     2 x     2 x     2  =       8
superc: Number of atoms, orbitals, and projectors:    576   7488   9216

* Maximum dynamic memory allocated =     4 MB

siesta:                 ==============================
                            Begin MD step =      1
                        ==============================

superc: Internal auxiliary supercell:     2 x     2 x     2  =       8
superc: Number of atoms, orbitals, and projectors:    576   7488   9216

outcell: Unit cell vectors (Ang):
       12.804619    7.392750    0.000000
        0.000000   14.785500    0.000000
        0.000000    0.000000   10.000000

outcell: Cell vector modules (Ang)   :   14.785500   14.785500   10.000000
outcell: Cell angles (23,13,12) (deg):     90.0000     90.0000     60.0000
outcell: Cell volume (Ang**3)        :   1893.2269
New_DM. Step:     1
Initializing Density Matrix...

InitMesh: MESH =   120 x   120 x    90 =     1296000
InitMesh: Mesh cutoff (required, used) =   200.000   223.865 Ry

* Maximum dynamic memory allocated =   135 MB

stepf: Fermi-Dirac step function

siesta: Program's energy decomposition (eV):
siesta: Ebs     =     -6095.970389
siesta: Eions   =     20171.226357
siesta: Ena     =      4832.046432
siesta: Ekin    =      7301.325480
siesta: Enl     =       307.581696
siesta: DEna    =        -0.000015
siesta: DUscf   =         0.000000
siesta: DUext   =         0.000000
siesta: Exc     =     -4443.839281
siesta: eta*DQ  =         0.000000
siesta: Emadel  =         0.000000
siesta: Emeta   =         0.000000
siesta: Emolmec =         0.000000
siesta: Ekinion =         0.000000
siesta: Eharris =    -11828.242157
siesta: Etot    =    -12174.112046
siesta: FreeEng =    -12174.112046

siesta: iscf   Eharris(eV)      E_KS(eV)   FreeEng(eV)   dDmax  Ef(eV)
siesta:    1   -11828.2422   -12174.1120   -12174.1120  7.1898 -7.1138
timer: Routine,Calls,Time,% = IterSCF        1    3012.726  99.60
elaps: Routine,Calls,Wall,% = IterSCF        1     251.659  99.60
siesta:    2   -15717.7478   -11239.6822   -11239.7488 11.0313 -3.8274
siesta:    3   -11803.4956   -11905.1240   -11905.1671  1.9315 -4.0247
siesta:    4   -11741.4919   -11835.4907   -11835.5497  1.2422 -4.0050
siesta:    5   -11707.1534   -11787.6052   -11787.6329  1.0389 -3.8952
siesta:    6   -11689.7626   -11766.8124   -11766.8379  0.7357 -4.0383
siesta:    7   -11683.3958   -11749.8985   -11749.9396  0.6948 -4.0193
siesta:    8   -11680.0066   -11737.9525   -11738.0087  0.8011 -4.0614
siesta:    9   -11676.2914   -11716.2816   -11716.3360  0.4806 -4.0767
siesta:   10   -11676.2581   -11700.0474   -11700.0895  0.3700 -4.0363
siesta:   11   -11675.8544   -11694.0018   -11694.0559  0.3151 -3.9850
siesta:   12   -11676.1231   -11676.0383   -11676.0792  0.2917 -3.8899
siesta:   13   -11675.6586   -11671.7667   -11671.8234  0.2763 -3.9288
siesta:   14   -11675.2163   -11672.2704   -11672.3079  0.1769 -3.9106
siesta:   15   -11674.9521   -11672.0614   -11672.1222  0.2340 -3.9697
siesta:   16   -11674.7953   -11672.7613   -11672.8293  0.1307 -3.9681
siesta:   17   -11674.6851   -11672.7800   -11672.8330  0.0746 -3.9843
siesta:   18   -11674.6328   -11672.4800   -11672.5299  0.0838 -3.9881
siesta:   19   -11674.6024   -11671.9040   -11671.9484  0.0650 -3.9906
siesta:   20   -11674.5862   -11671.4827   -11671.5275  0.0358 -3.9943
siesta:   21   -11674.5766   -11672.4951   -11672.5434  0.0170 -4.0018
siesta:   22   -11674.5741   -11673.5012   -11673.5500  0.0175 -4.0037
siesta:   23   -11674.5702   -11673.9222   -11673.9710  0.0161 -4.0039
siesta:   24   -11674.5695   -11674.0292   -11674.0790  0.0116 -4.0053
siesta:   25   -11674.5689   -11674.1417   -11674.1909  0.0078 -4.0056
siesta:   26   -11674.5687   -11674.3316   -11674.3811  0.0039 -4.0059
siesta:   27   -11674.5687   -11674.4196   -11674.4691  0.0030 -4.0053
siesta:   28   -11674.5684   -11674.4274   -11674.4769  0.0010 -4.0048
siesta:   29   -11674.5685   -11674.4379   -11674.4875  0.0007 -4.0047
siesta:   30   -11674.5684   -11674.4688   -11674.5183  0.0006 -4.0046
siesta:   31   -11674.5685   -11674.5136   -11674.5632  0.0004 -4.0046
siesta:   32   -11674.5684   -11674.5334   -11674.5829  0.0003 -4.0047
siesta:   33   -11674.5684   -11674.5422   -11674.5918  0.0003 -4.0048
siesta:   34   -11674.5684   -11674.5553   -11674.6049  0.0002 -4.0049
siesta:   35   -11674.5684   -11674.5615   -11674.6110  0.0002 -4.0049
siesta:   36   -11674.5684   -11674.5666   -11674.6162  0.0001 -4.0049

siesta: E_KS(eV) =           -11674.5682

siesta: E_KS - E_eggbox =    -11674.5682

siesta: Atomic forces (eV/Ang):
----------------------------------------
   Tot   -0.616017    0.016153    0.000000
----------------------------------------
   Max  681.232249
   Res  169.134529    sqrt( Sum f_i^2 / 3N )
----------------------------------------
   Max  681.232249    constrained

Stress-tensor-Voigt (kbar):     -668.48    -2972.82       -0.10        6.95        0.00        0.00
(Free)E + p*V (eV/cell)   -10240.3352
Target enthalpy (eV/cell)   -11674.6178

siesta: Stress tensor (static) (eV/Ang**3):
        -0.417231    0.004337    0.000000
         0.004337   -1.855466    0.000000
         0.000000    0.000000   -0.000062

siesta: Pressure (static):       1213.80001607  kBar

siesta: Stress tensor (total) (eV/Ang**3):
        -0.417231    0.004337    0.000000
         0.004337   -1.855466    0.000000
         0.000000    0.000000   -0.000062

siesta: Pressure (total):       1213.80001607  kBar

siesta: Temp_ion =       0.000 K

* Maximum dynamic memory allocated =   148 MB
Computing bands...

siesta: Program's energy decomposition (eV):
siesta: Ebs     =     -4849.305651
siesta: Eions   =     20171.226357
siesta: Ena     =      4832.046432
siesta: Ekin    =     10329.000283
siesta: Enl     =     -1377.878239
siesta: DEna    =      -776.629485
siesta: DUscf   =       103.693986
siesta: DUext   =         0.000000
siesta: Exc     =     -4613.574855
siesta: eta*DQ  =         0.000000
siesta: Emadel  =         0.000000
siesta: Emeta   =         0.000000
siesta: Emolmec =         0.000000
siesta: Ekinion =         0.000000
siesta: Eharris =    -11674.568429
siesta: Etot    =    -11674.568235
siesta: FreeEng =    -11674.617784

siesta: Final energy (eV):
siesta:  Band Struct. =   -4849.305651
siesta:       Kinetic =   10329.000283
siesta:       Hartree =   33527.513364
siesta:    Ext. field =       0.000000
siesta:   Exch.-corr. =   -4613.574855
siesta:  Ion-electron =  -76993.580184
siesta:       Ion-ion =   26076.073157
siesta:       Ekinion =       0.000000
siesta:         Total =  -11674.568235

siesta: Atomic forces (eV/Ang):
siesta:      1  -30.269895    8.790000    0.000000
siesta:      2   -0.751656    5.032199    0.000000
siesta:      3    0.196344  663.827662    0.000000
siesta:      4   -1.384018    4.106766    0.000000
siesta:      5   -0.461719  681.232249    0.000000
siesta:      6    1.160720    3.987234    0.000000
siesta:      7   -0.110690    1.848622    0.000000
siesta:      8   -0.740873    0.048956    0.000000
siesta:      9   -0.131916    2.014793    0.000000
siesta:     10    0.292301    0.121519    0.000000
siesta:     11    0.293605  113.451958    0.000000
siesta:     12    0.845906  545.775553    0.000000
siesta:     13   -2.551814 -126.246206    0.000000
siesta:     14   -0.986220  129.085719    0.000000
siesta:     15  -14.446380 -551.919128    0.000000
siesta:     16    0.969454  128.839665    0.000000
siesta:     17   13.891722 -551.967661    0.000000
siesta:     18   27.013995    6.405826    0.000000
siesta:     19   32.575017 -551.597826    0.000000
siesta:     20    1.555932   -0.287359    0.000000
siesta:     21   -2.839742    1.854136    0.000000
siesta:     22    0.507342    2.120120    0.000000
siesta:     23   -0.884177    0.110355    0.000000
siesta:     24  -29.892364 -550.447978    0.000000
siesta:     25    3.013194  545.919029    0.000000
siesta:     26   -0.852016 -125.269680    0.000000
siesta:     27   32.299981  551.377322    0.000000
siesta:     28   25.806151   -6.656919    0.000000
siesta:     29   -2.760304   -0.903960    0.000000
siesta:     30    1.664772   -0.336812    0.000000
siesta:     31   -1.109167    0.494885    0.000000
siesta:     32    2.228783   -0.806207    0.000000
siesta:     33    0.295070   -6.830560    0.000000
siesta:     34  -12.584720  546.084761    0.000000
siesta:     35    0.741340 -122.466658    0.000000
siesta:     36    0.047955 -123.255436    0.000000
siesta:     37   18.269427  560.464513    0.000000
siesta:     38   27.055507   -9.266941    0.000000
siesta:     39    0.308419   -0.923779    0.000000
siesta:     40   -0.626373    0.475059    0.000000
siesta:     41   -0.552427   -0.373329    0.000000
siesta:     42  -31.669546  548.516534    0.000000
siesta:     43  -25.668690   -6.292189    0.000000
siesta:     44  -18.382307  560.828038    0.000000
siesta:     45  -26.921494   -9.264859    0.000000
siesta:     46   -0.038547   -0.436196    0.000000
siesta:     47    0.443883   -0.042788    0.000000
siesta:     48    1.565793   -0.324349    0.000000
siesta:     49    2.898897   -0.643689    0.000000
siesta:     50   -1.764128   -0.418920    0.000000
siesta:     51   -0.032173   -0.787972    0.000000
siesta:     52   -0.586780   -0.312086    0.000000
siesta:     53   -1.581392   -0.196594    0.000000
siesta:     54    1.410391   -0.342639    0.000000
siesta:     55   -2.243515   -2.219229    0.000000
siesta:     56    0.421319    1.165031    0.000000
siesta:     57    0.145213   -0.570695    0.000000
siesta:     58    0.381344    6.237149    0.000000
siesta:     59    1.034595   -4.599954    0.000000
siesta:     60   -0.750235   -0.638776    0.000000
siesta:     61   -1.620757   -2.985499    0.000000
siesta:     62   -0.737660 -565.512554    0.000000
siesta:     63    2.237317   -2.967723    0.000000
siesta:     64   24.480565    5.689897    0.000000
siesta:     65   22.801460 -559.765023    0.000000
siesta:     66  -24.696780    5.357426    0.000000
siesta:     67  -10.697757 -565.669416    0.000000
siesta:     68   -0.216824   -0.327040    0.000000
siesta:     69    1.831925    1.041799    0.000000
siesta:     70   -0.113697 -651.065437    0.000000
siesta:     71    0.021222  119.617073    0.000000
siesta:     72    0.335876 -646.965630    0.000000
siesta: ----------------------------------------
siesta:    Tot   -0.616017    0.016153    0.000000

siesta: Stress tensor (static) (eV/Ang**3):
siesta:    -0.417231    0.004337    0.000000
siesta:     0.004337   -1.855466    0.000000
siesta:     0.000000    0.000000   -0.000062

siesta: Cell volume =       1893.226884 Ang**3

siesta: Pressure (static):
siesta:                Solid            Molecule  Units
siesta:           0.00825108          0.13256491  Ry/Bohr**3
siesta:           0.75758619         12.17165926  eV/Ang**3
siesta:        1213.80001607      19501.35885406  kBar
(Free)E+ p_basis*V_orbitals  =      -11645.452765
(Free)Eharris+ p_basis*V_orbitals  =      -11645.454577

siesta: Electric dipole (a.u.)  =    0.000000    0.000000    0.000000
siesta: Electric dipole (Debye) =    0.000000    0.000000    0.000000

* Maximum dynamic memory allocated : Node    0 =   148 MB
* Maximum dynamic memory allocated : Node    1 =    59 MB
* Maximum dynamic memory allocated : Node    2 =    60 MB
* Maximum dynamic memory allocated : Node    3 =   135 MB
* Maximum dynamic memory allocated : Node    4 =   145 MB
* Maximum dynamic memory allocated : Node    5 =    52 MB
* Maximum dynamic memory allocated : Node    6 =    55 MB
* Maximum dynamic memory allocated : Node    7 =   138 MB
* Maximum dynamic memory allocated : Node    8 =   131 MB
* Maximum dynamic memory allocated : Node    9 =    53 MB
* Maximum dynamic memory allocated : Node   10 =    54 MB
* Maximum dynamic memory allocated : Node   11 =   124 MB

* Maximum memory occured during matrixMtoO                    

timer: CPU execution times:
timer:  Routine       Calls   Time/call    Tot.time        %
timer:  siesta            1  105900.595  105900.595   100.00
timer:  Setup             1       3.316       3.316     0.00
timer:  bands             3     225.876     677.627     0.64
timer:  writewave         1       0.022       0.022     0.00
timer:  KSV_init          1       0.005       0.005     0.00
timer:  IterMD            1  105212.663  105212.663    99.35
timer:  hsparse           1       0.162       0.162     0.00
timer:  overlap           1       6.380       6.380     0.01
timer:  IterSCF          36    2919.099  105087.551    99.23
timer:  kinefsm           2       3.238       6.475     0.01
timer:  nlefsm            2      18.442      36.884     0.03
timer:  DHSCF            37      62.422    2309.596     2.18
timer:  DHSCF1            1       0.902       0.902     0.00
timer:  DHSCF2            1      24.652      24.652     0.02
timer:  REORD           298       0.003       0.807     0.00
timer:  POISON           38       0.450      17.119     0.02
timer:  DHSCF3           37      61.148    2262.461     2.14
timer:  rhoofd           37      12.815     474.141     0.45
timer:  cellXC           37       2.420      89.552     0.08
timer:  vmat             37      28.707    1062.160     1.00
timer:  MolMec            2       0.000       0.000     0.00
timer:  diagon           36    2855.442  102795.900    97.07
timer:  c-eigval       8437       5.577   47053.413    44.43
timer:  c-buildHS      8437       0.033     280.068     0.26
timer:  cdiag         16753       5.672   95017.691    89.72
timer:  cdiag1        16753       0.261    4365.747     4.12
timer:  cdiag2        16753       1.830   30649.797    28.94
timer:  cdiag3        16753       3.379   56609.169    53.46
timer:  cdiag4        16753       0.088    1477.058     1.39
timer:  c-eigvec       8316       5.829   48477.038    45.78
timer:  c-buildD       8316       0.950    7897.573     7.46
timer:  DHSCF4            1      21.362      21.362     0.02
timer:  dfscf             1      19.924      19.924     0.02
timer:  overfsm           1       0.284       0.284     0.00
timer:  optical           1       6.381       6.381     0.01
  

elaps: ELAPSED times:
elaps:  Routine       Calls   Time/call    Tot.time        %
elaps:  siesta            1    8845.809    8845.809   100.00
elaps:  Setup             1       0.277       0.277     0.00
elaps:  bands             3      18.882      56.646     0.64
elaps:  writewave         1       0.002       0.002     0.00
elaps:  KSV_init          1       0.000       0.000     0.00
elaps:  IterMD            1    8788.346    8788.346    99.35
elaps:  hsparse           1       0.016       0.016     0.00
elaps:  overlap           1       0.710       0.710     0.01
elaps:  IterSCF          36     243.830    8777.897    99.23
elaps:  kinefsm           2       0.361       0.723     0.01
elaps:  nlefsm            2       1.588       3.177     0.04
elaps:  DHSCF            37       5.263     194.727     2.20
elaps:  DHSCF1            1       0.077       0.077     0.00
elaps:  DHSCF2            1       2.058       2.058     0.02
elaps:  REORD           298       0.000       0.088     0.00
elaps:  POISON           38       0.038       1.439     0.02
elaps:  DHSCF3           37       5.109     189.016     2.14
elaps:  rhoofd           37       2.262      83.679     0.95
elaps:  cellXC           37       0.202       7.465     0.08
elaps:  vmat             37       2.399      88.756     1.00
elaps:  MolMec            2       0.000       0.000     0.00
elaps:  diagon           36     238.517    8586.601    97.07
elaps:  c-eigval       8437       0.466    3930.300    44.43
elaps:  c-buildHS      8437       0.003      29.165     0.33
elaps:  cdiag         16753       0.471    7884.921    89.14
elaps:  cdiag1        16753       0.021     356.978     4.04
elaps:  cdiag2        16753       0.153    2562.479    28.97
elaps:  cdiag3        16753       0.283    4735.267    53.53
elaps:  cdiag4        16753       0.007     118.596     1.34
elaps:  c-eigvec       8316       0.482    4008.186    45.31
elaps:  c-buildD       8316       0.084     700.491     7.92
elaps:  DHSCF4            1       3.539       3.539     0.04
elaps:  dfscf             1       3.349       3.349     0.04
elaps:  overfsm           1       0.029       0.029     0.00
elaps:  optical           1       0.000       0.000     0.00
  
>> End of run:   8-MAY-2016   0:03:23
