Siesta Version:                                        siesta-3.2-pl-3
Architecture  : x86_64-unknown-linux-gnu--unknown
Compiler flags: mpiifort -g -O2 -fPIC -xSSE4.1 -fp-model source -shared-intel 
PARALLEL version

* Running on   12 nodes in parallel
>> Start of run:   1-MAY-2016  11:51:43

                           ***********************       
                           *  WELCOME TO SIESTA  *       
                           ***********************       

reinit: Reading from standard input
************************** Dump of input data file ****************************
#(1) General system descriptors
SystemName            GRP_doping    # Descriptive name of the system
SystemLabel           GRP_doping    # Short name for naming files
%include STRUCT.fdf
%include KPT.fdf
%include BASIS.fdf
#%include TS.fdf # for transiesta calculation
#(4) DFT, Grid, SCF
XC.functional         GGA           # LDA or GGA (default = LDA)
XC.authors            PBE           # CA (Ceperley-Aldr) = PZ
                                    #    (Perdew-Zunger) - LDA - Default
                                    # PW92 (Perdew-Wang-92) - LDA
                                    # PBE (Perdew-Burke-Ernzerhof) - GGA
MeshCutoff            200.000000    Ry      # Default: 50.0 Ry ~ 0.444 Bohr
                                    #         100.0 Ry ~ 0.314 Bohr
MaxSCFIterations      500           # Default: 50
DM.MixingWeight       0.05          # Default: 0.25
DM.NumberPulay        10            # Default: 0
DM.PulayOnFile        F             # SystemLabel.P1, SystemLabel.P2
DM.Tolerance          1.d-4         # Default: 1.d-4
DM.UseSaveDM          .true.        # because of the bug
SCFMustConverge       .true.
NeglNonOverlapInt     F             # Default: F
#(5) Eigenvalue problem: order-N or diagonalization
SolutionMethod        Diagon        # or Transiesta
ElectronicTemperature 300.0 K       # Default: 300.0 K
#(6) Molecular dynamics and relaxations
#MD.TypeOfRun          CG            # Type of dynamics:
#MD.VariableCell       F
#MD.NumCGsteps         0           # 0 for single-point / 100 for gopt
#MD.MaxCGDispl         0.2 Bohr      # Default: 0.2 Bohr
#MD.MaxForceTol        0.02 eV/Ang   # Default: 0.04 eV/Ang
#MD.MaxStressTol       1.0 GPa       # Default: 1.0 GPa
# Geometry Constraints
#%block GeometryConstraints
#	position from 1 to 44
#%endblock GeometryConstraints
BandLinesScale   pi/a
%block BandLines
 1   0.00000000  0.00000000  0.00000000
50   0.00000000  0.07809418  0.00000000
50   0.04509075  0.07809242  0.00000000
20   0.00000000  0.00000000  0.00000000
%endblock BandLines
************************** End of input data file *****************************

reinit: -----------------------------------------------------------------------
reinit: System Name: GRP_doping
reinit: -----------------------------------------------------------------------
reinit: System Label: GRP_doping                                                  
reinit: -----------------------------------------------------------------------

initatom: Reading input for the pseudopotentials and atomic orbitals ----------
 Species number:            1  Label: B Atomic number:           5
 Species number:            2  Label: C Atomic number:           6
Ground state valence configuration:   2s02  2p01
Reading pseudopotential information in formatted form from B.psf

Valence configuration for pseudopotential generation:
2s( 2.00) rc: 1.74
2p( 1.00) rc: 1.74
3d( 0.00) rc: 1.74
4f( 0.00) rc: 1.74
Ground state valence configuration:   2s02  2p02
Reading pseudopotential information in formatted form from C.psf

Valence configuration for pseudopotential generation:
2s( 2.00) rc: 1.54
2p( 2.00) rc: 1.54
3d( 0.00) rc: 1.54
4f( 0.00) rc: 1.54
For B, standard SIESTA heuristics set lmxkb to 3
 (one more than the basis l, including polarization orbitals).
Use PS.lmax or PS.KBprojectors blocks to override.
For C, standard SIESTA heuristics set lmxkb to 3
 (one more than the basis l, including polarization orbitals).
Use PS.lmax or PS.KBprojectors blocks to override.

<basis_specs>
===============================================================================
B                    Z=   5    Mass=  10.810        Charge= 0.17977+309
Lmxo=1 Lmxkb= 3    BasisType=split      Semic=F
L=0  Nsemic=0  Cnfigmx=2
          n=1  nzeta=2  polorb=0
            splnorm:   0.15000    
               vcte:    0.0000    
               rinn:    0.0000    
                rcs:    0.0000      0.0000    
            lambdas:    1.0000      1.0000    
L=1  Nsemic=0  Cnfigmx=2
          n=1  nzeta=2  polorb=1
            splnorm:   0.15000    
               vcte:    0.0000    
               rinn:    0.0000    
                rcs:    0.0000      0.0000    
            lambdas:    1.0000      1.0000    
-------------------------------------------------------------------------------
L=0  Nkbl=1  erefs: 0.17977+309
L=1  Nkbl=1  erefs: 0.17977+309
L=2  Nkbl=1  erefs: 0.17977+309
L=3  Nkbl=1  erefs: 0.17977+309
===============================================================================
</basis_specs>

atom: Called for B                     (Z =   5)

read_vps: Pseudopotential generation method:
read_vps: ATM3      Troullier-Martins                       
Total valence charge:    3.00000

read_vps: Pseudopotential includes a core correction:
read_vps: Pseudo-core for xc-correction

xc_check: Exchange-correlation functional:
xc_check: GGA Perdew, Burke & Ernzerhof 1996
V l=0 = -2*Zval/r beyond r=  1.7165
V l=1 = -2*Zval/r beyond r=  1.7165
V l=2 = -2*Zval/r beyond r=  1.7165
V l=3 = -2*Zval/r beyond r=  1.6951
All V_l potentials equal beyond r=  1.7165
This should be close to max(r_c) in ps generation
All pots = -2*Zval/r beyond r=  1.7165

VLOCAL1: 99.0% of the norm of Vloc inside     14.733 Ry
VLOCAL1: 99.9% of the norm of Vloc inside     33.577 Ry
atom: Maximum radius for 4*pi*r*r*local-pseudopot. charge    2.04484
atom: Maximum radius for r*vlocal+2*Zval:    1.75994
GHOST: No ghost state for L =  0
GHOST: No ghost state for L =  1
GHOST: No ghost state for L =  2
GHOST: No ghost state for L =  3

KBgen: Kleinman-Bylander projectors: 
   l= 0   rc=  1.897051   el= -0.693730   Ekb=  4.595746   kbcos=  0.286105
   l= 1   rc=  1.920920   el= -0.265236   Ekb= -2.350715   kbcos= -0.315747
   l= 2   rc=  2.044840   el=  0.002055   Ekb= -0.690767   kbcos= -0.013822
   l= 3   rc=  2.149707   el=  0.003188   Ekb= -0.315358   kbcos= -0.002055

KBgen: Total number of  Kleinman-Bylander projectors:   16
atom: -------------------------------------------------------------------------

atom: SANKEY-TYPE ORBITALS:
atom: Selected multiple-zeta basis: split     

SPLIT: Orbitals with angular momentum L= 0

SPLIT: Basis orbitals for state 2s

SPLIT: PAO cut-off radius determined from an
SPLIT: energy shift=  0.007350 Ry

   izeta = 1
                 lambda =    1.000000
                     rc =    5.422032
                 energy =   -0.686029
                kinetic =    0.576707
    potential(screened) =   -1.262736
       potential(ionic) =   -3.271094

   izeta = 2
                 rmatch =    4.222573
              splitnorm =    0.150000
                 energy =   -0.602132
                kinetic =    0.858975
    potential(screened) =   -1.461107
       potential(ionic) =   -3.582536

SPLIT: Orbitals with angular momentum L= 1

SPLIT: Basis orbitals for state 2p

SPLIT: PAO cut-off radius determined from an
SPLIT: energy shift=  0.007350 Ry

   izeta = 1
                 lambda =    1.000000
                     rc =    6.790259
                 energy =   -0.258578
                kinetic =    1.481412
    potential(screened) =   -1.739989
       potential(ionic) =   -3.657461

   izeta = 2
                 rmatch =    4.608740
              splitnorm =    0.150000
                 energy =   -0.173757
                kinetic =    2.186690
    potential(screened) =   -2.360447
       potential(ionic) =   -4.464260

POLgen: Perturbative polarization orbital with L=  2

POLgen: Polarization orbital for state 2p

   izeta = 1
                     rc =    6.790259
                 energy =    0.684082
                kinetic =    1.471481
    potential(screened) =   -0.787399
       potential(ionic) =   -2.406985
atom: Total number of Sankey-type orbitals: 13

atm_pop: Valence configuration (for local Pseudopot. screening):
 2s( 2.00)                                                            
 2p( 1.00)                                                            
Vna: chval, zval:    3.00000   3.00000

Vna:  Cut-off radius for the neutral-atom potential:   6.790259
comcore: Pseudo-core radius Rcore=  2.122997

atom: _________________________________________________________________________

<basis_specs>
===============================================================================
C                    Z=   6    Mass=  12.010        Charge= 0.17977+309
Lmxo=1 Lmxkb= 3    BasisType=split      Semic=F
L=0  Nsemic=0  Cnfigmx=2
          n=1  nzeta=2  polorb=0
            splnorm:   0.15000    
               vcte:    0.0000    
               rinn:    0.0000    
                rcs:    0.0000      0.0000    
            lambdas:    1.0000      1.0000    
L=1  Nsemic=0  Cnfigmx=2
          n=1  nzeta=2  polorb=1
            splnorm:   0.15000    
               vcte:    0.0000    
               rinn:    0.0000    
                rcs:    0.0000      0.0000    
            lambdas:    1.0000      1.0000    
-------------------------------------------------------------------------------
L=0  Nkbl=1  erefs: 0.17977+309
L=1  Nkbl=1  erefs: 0.17977+309
L=2  Nkbl=1  erefs: 0.17977+309
L=3  Nkbl=1  erefs: 0.17977+309
===============================================================================
</basis_specs>

atom: Called for C                     (Z =   6)

read_vps: Pseudopotential generation method:
read_vps: ATM3      Troullier-Martins                       
Total valence charge:    4.00000

read_vps: Pseudopotential includes a core correction:
read_vps: Pseudo-core for xc-correction

xc_check: Exchange-correlation functional:
xc_check: GGA Perdew, Burke & Ernzerhof 1996
V l=0 = -2*Zval/r beyond r=  1.5227
V l=1 = -2*Zval/r beyond r=  1.5227
V l=2 = -2*Zval/r beyond r=  1.5227
V l=3 = -2*Zval/r beyond r=  1.5038
All V_l potentials equal beyond r=  1.5227
This should be close to max(r_c) in ps generation
All pots = -2*Zval/r beyond r=  1.5227

VLOCAL1: 99.0% of the norm of Vloc inside     18.722 Ry
VLOCAL1: 99.9% of the norm of Vloc inside     42.668 Ry
atom: Maximum radius for 4*pi*r*r*local-pseudopot. charge    1.83678
atom: Maximum radius for r*vlocal+2*Zval:    1.58088
GHOST: No ghost state for L =  0
GHOST: No ghost state for L =  1
GHOST: No ghost state for L =  2
GHOST: No ghost state for L =  3

KBgen: Kleinman-Bylander projectors: 
   l= 0   rc=  1.704034   el= -1.009801   Ekb=  5.335044   kbcos=  0.316824
   l= 1   rc=  1.704034   el= -0.388707   Ekb= -3.785862   kbcos= -0.366464
   l= 2   rc=  1.791422   el=  0.001971   Ekb= -0.970471   kbcos= -0.009212
   l= 3   rc=  1.859892   el=  0.003065   Ekb= -0.399525   kbcos= -0.001223

KBgen: Total number of  Kleinman-Bylander projectors:   16
atom: -------------------------------------------------------------------------

atom: SANKEY-TYPE ORBITALS:
atom: Selected multiple-zeta basis: split     

SPLIT: Orbitals with angular momentum L= 0

SPLIT: Basis orbitals for state 2s

SPLIT: PAO cut-off radius determined from an
SPLIT: energy shift=  0.007350 Ry

   izeta = 1
                 lambda =    1.000000
                     rc =    4.632753
                 energy =   -1.002270
                kinetic =    0.855760
    potential(screened) =   -1.858031
       potential(ionic) =   -5.417575

   izeta = 2
                 rmatch =    3.431921
              splitnorm =    0.150000
                 energy =   -0.867111
                kinetic =    1.300804
    potential(screened) =   -2.167915
       potential(ionic) =   -5.962684

SPLIT: Orbitals with angular momentum L= 1

SPLIT: Basis orbitals for state 2p

SPLIT: PAO cut-off radius determined from an
SPLIT: energy shift=  0.007350 Ry

   izeta = 1
                 lambda =    1.000000
                     rc =    5.658549
                 energy =   -0.381140
                kinetic =    2.399701
    potential(screened) =   -2.780841
       potential(ionic) =   -6.206085

   izeta = 2
                 rmatch =    3.653288
              splitnorm =    0.150000
                 energy =   -0.249149
                kinetic =    3.542762
    potential(screened) =   -3.791911
       potential(ionic) =   -7.581078

POLgen: Perturbative polarization orbital with L=  2

POLgen: Polarization orbital for state 2p

   izeta = 1
                     rc =    5.658549
                 energy =    1.109913
                kinetic =    2.304789
    potential(screened) =   -1.194876
       potential(ionic) =   -4.013592
atom: Total number of Sankey-type orbitals: 13

atm_pop: Valence configuration (for local Pseudopot. screening):
 2s( 2.00)                                                            
 2p( 2.00)                                                            
Vna: chval, zval:    4.00000   4.00000

Vna:  Cut-off radius for the neutral-atom potential:   5.658549
comcore: Pseudo-core radius Rcore=  1.791422

atom: _________________________________________________________________________

prinput: Basis input ----------------------------------------------------------

PAO.BasisType split     

%block ChemicalSpeciesLabel
    1    5 B                       # Species index, atomic number, species label
    2    6 C                       # Species index, atomic number, species label
%endblock ChemicalSpeciesLabel

%block PAO.Basis                 # Define Basis set
B                     2                    # Species label, number of l-shells
 n=2   0   2                         # n, l, Nzeta 
   5.422      4.223   
   1.000      1.000   
 n=2   1   2 P   1                   # n, l, Nzeta, Polarization, NzetaPol
   6.790      4.609   
   1.000      1.000   
C                     2                    # Species label, number of l-shells
 n=2   0   2                         # n, l, Nzeta 
   4.633      3.432   
   1.000      1.000   
 n=2   1   2 P   1                   # n, l, Nzeta, Polarization, NzetaPol
   5.659      3.653   
   1.000      1.000   
%endblock PAO.Basis

prinput: ----------------------------------------------------------------------

coor:   Atomic-coordinates input format  =     Fractional

siesta: Atomic coordinates (Bohr) and species
siesta:     -0.02582   5.28395   0.00000  1        1
siesta:      2.30256   6.62836   0.00000  1        2
siesta:      2.30256   9.31683   0.00000  1        3
siesta:      4.63094  10.66124   0.00000  1        4
siesta:      4.63094  13.34970   0.00000  1        5
siesta:      6.95932  17.38257   0.00000  1        6
siesta:      9.28770  21.41544   0.00000  1        7
siesta:     11.61608  25.44831   0.00000  1        8
siesta:      4.63094  18.72698   0.00000  1        9
siesta:      4.63094  21.41544   0.00000  1       10
siesta:      6.95932  22.75985   0.00000  1       11
siesta:      2.30256  22.75985   0.00000  1       12
siesta:      2.30256  25.44831   0.00000  1       13
siesta:      4.63094  29.48119   0.00000  1       14
siesta:     -0.02582  26.79272   0.00000  1       15
siesta:     -0.02582  29.48119   0.00000  1       16
siesta:      2.30256  30.82560   0.00000  1       17
siesta:     -0.02582   2.59549   0.00000  2       18
siesta:     -2.35420  38.89134   0.00000  2       19
siesta:     -2.35420  41.57980   0.00000  2       20
siesta:      2.30256  38.89134   0.00000  2       21
siesta:      2.30256  41.57980   0.00000  2       22
siesta:      4.63094  34.85847   0.00000  2       23
siesta:      4.63094  37.54693   0.00000  2       24
siesta:      6.95932  30.82560   0.00000  2       25
siesta:      6.95932  33.51406   0.00000  2       26
siesta:      9.28770  26.79272   0.00000  2       27
siesta:      9.28770  29.48119   0.00000  2       28
siesta:     -4.68258  34.85847   0.00000  2       29
siesta:     -4.68258  37.54693   0.00000  2       30
siesta:      6.95932  14.69411   0.00000  2       31
siesta:      9.28770  18.72698   0.00000  2       32
siesta:     11.61608  22.75985   0.00000  2       33
siesta:     -2.35420   6.62836   0.00000  2       34
siesta:     -2.35420   9.31683   0.00000  2       35
siesta:     -0.02582  10.66124   0.00000  2       36
siesta:     -0.02582  13.34970   0.00000  2       37
siesta:      2.30256  14.69411   0.00000  2       38
siesta:      2.30256  17.38257   0.00000  2       39
siesta:      6.95932  25.44831   0.00000  2       40
siesta:     -4.68258  10.66124   0.00000  2       41
siesta:     -4.68258  13.34970   0.00000  2       42
siesta:     -2.35420  14.69411   0.00000  2       43
siesta:     -2.35420  17.38257   0.00000  2       44
siesta:     -0.02582  18.72698   0.00000  2       45
siesta:     -0.02582  21.41544   0.00000  2       46
siesta:     -7.01096  14.69411   0.00000  2       47
siesta:     -7.01096  17.38257   0.00000  2       48
siesta:     -4.68258  18.72698   0.00000  2       49
siesta:     -4.68258  21.41544   0.00000  2       50
siesta:     -2.35420  22.75985   0.00000  2       51
siesta:     -2.35420  25.44831   0.00000  2       52
siesta:     -9.33934  18.72698   0.00000  2       53
siesta:     -9.33934  21.41544   0.00000  2       54
siesta:     -7.01096  22.75985   0.00000  2       55
siesta:     -7.01096  25.44831   0.00000  2       56
siesta:    -11.66772  22.75985   0.00000  2       57
siesta:    -11.66772  25.44831   0.00000  2       58
siesta:     -9.33934  26.79272   0.00000  2       59
siesta:     -9.33934  29.48119   0.00000  2       60
siesta:      4.63094  26.79272   0.00000  2       61
siesta:     -4.68258  26.79272   0.00000  2       62
siesta:     -4.68258  29.48119   0.00000  2       63
siesta:      2.30256  33.51406   0.00000  2       64
siesta:     -2.35420  30.82560   0.00000  2       65
siesta:     -2.35420  33.51406   0.00000  2       66
siesta:     -7.01096  30.82560   0.00000  2       67
siesta:     -7.01096  33.51406   0.00000  2       68
siesta:     -0.02582  34.85847   0.00000  2       69
siesta:     -0.02582  37.54693   0.00000  2       70
siesta:     -0.02582  42.92421   0.00000  2       71
siesta:     -0.02582  45.61267   0.00000  2       72

siesta: System type = slab      

initatomlists: Number of atoms, orbitals, and projectors:     72   936  1152

siesta: ******************** Simulation parameters ****************************
siesta:
siesta: The following are some of the parameters of the simulation.
siesta: A complete list of the parameters used, including default values,
siesta: can be found in file out.fdf
siesta:
redata: Non-Collinear-spin run           =     F
redata: SpinPolarized (Up/Down) run      =     F
redata: Number of spin components        =     1
redata: Long output                      =     F
redata: Number of Atomic Species         =        2
redata: Charge density info will appear in .RHO file
redata: Write Mulliken Pop.              =     NO
redata: Mesh Cutoff                      =   200.0000  Ry
redata: Net charge of the system         =     0.0000 |e|
redata: Max. number of SCF Iter          =      500
redata: SCF convergence failure will abort job
redata: Performing Pulay mixing using    =    10 iterations
redata: Mix DM in first SCF step ?       =     F
redata: Write Pulay info on disk?        =     F
redata: Discard 1st Pulay DM after  kick =     F
redata: New DM Mixing Weight             =     0.0500
redata: New DM Occupancy tolerance       = 0.000000000001
redata: No kicks to SCF
redata: DM Mixing Weight for Kicks       =     0.5000
redata: DM Tolerance for SCF             =     0.000100
redata: Require Energy convergence for SCF =     F
redata: DM Energy tolerance for SCF      =     0.000100 eV
redata: Require Harris convergence for SCF =     F
redata: DM Harris energy tolerance for SCF =     0.000100 eV
redata: Using Saved Data (generic)   =     F
redata: Use continuation files for DM    =     T
redata: Neglect nonoverlap interactions  =     F
redata: Method of Calculation            =     Diagonalization
redata: Divide and Conquer               =     T
redata: Electronic Temperature           =     0.0019  Ry
redata: Fix the spin of the system       =     F
redata: Dynamics option                  =     Verlet MD run
redata: Initial MD time step             =        1
redata:   Final MD time step             =        1
redata: Length of MD time step           =     1.0000  fs
redata: Initial Temperature of MD run    =     0.0000  K
redata: Perform a MD quench              =     F
redata: ***********************************************************************
Total number of electrons:   271.000000
Total ionic charge:   271.000000

* ProcessorY, Blocksize:    3  24

k-point displ. along   1 input, could be:     0.50    0.00
k-point displ. along   2 input, could be:     0.50    0.00
 Kpoints in:          231 . Kpoints trimmed:          231

siesta: k-grid: Number of k-points =   231
siesta: k-grid: Cutoff (effective) =     5.000 Ang
siesta: k-grid: Supercell and displacements
siesta: k-grid:   21   0   0      0.500
siesta: k-grid:    0  21   0      0.500
siesta: k-grid:    0   0   1      0.000
Naive supercell factors:     2    2    2

superc: Internal auxiliary supercell:     2 x     2 x     2  =       8
superc: Number of atoms, orbitals, and projectors:    576   7488   9216

* Maximum dynamic memory allocated =     4 MB

siesta:                 ==============================
                            Begin MD step =      1
                        ==============================

superc: Internal auxiliary supercell:     2 x     2 x     2  =       8
superc: Number of atoms, orbitals, and projectors:    576   7488   9216

outcell: Unit cell vectors (Ang):
       12.804619    7.392750    0.000000
        0.000000   14.785500    0.000000
        0.000000    0.000000   10.000000

outcell: Cell vector modules (Ang)   :   14.785500   14.785500   10.000000
outcell: Cell angles (23,13,12) (deg):     90.0000     90.0000     60.0000
outcell: Cell volume (Ang**3)        :   1893.2269
New_DM. Step:     1
Initializing Density Matrix...

InitMesh: MESH =   120 x   120 x    90 =     1296000
InitMesh: Mesh cutoff (required, used) =   200.000   223.865 Ry

* Maximum dynamic memory allocated =   157 MB

stepf: Fermi-Dirac step function

siesta: Program's energy decomposition (eV):
siesta: Ebs     =     -5589.849358
siesta: Eions   =     16226.046981
siesta: Ena     =      4316.337283
siesta: Ekin    =      5481.631332
siesta: Enl     =       782.578043
siesta: DEna    =        -0.000009
siesta: DUscf   =         0.000000
siesta: DUext   =         0.000000
siesta: Exc     =     -4192.966610
siesta: eta*DQ  =         0.000000
siesta: Emadel  =         0.000000
siesta: Emeta   =         0.000000
siesta: Emolmec =         0.000000
siesta: Ekinion =         0.000000
siesta: Eharris =     -9596.144189
siesta: Etot    =     -9838.466942
siesta: FreeEng =     -9838.466942

siesta: iscf   Eharris(eV)      E_KS(eV)   FreeEng(eV)   dDmax  Ef(eV)
siesta:    1    -9596.1442    -9838.4669    -9838.4669  7.9203 -8.3564
timer: Routine,Calls,Time,% = IterSCF        1    3043.665  99.59
elaps: Routine,Calls,Wall,% = IterSCF        1     254.242  99.59
siesta:    2   -15033.3716    -8758.4930    -8758.5922 17.8574 -4.9614
siesta:    3    -9591.5818    -9663.9380    -9663.9508  2.7775 -6.1785
siesta:    4    -9540.6986    -9571.3903    -9571.4268  1.6208 -5.5924
siesta:    5    -9466.0970    -9472.4600    -9472.4986  1.2022 -4.9614
siesta:    6    -9448.2560    -9449.1952    -9449.2277  1.0649 -4.9379
siesta:    7    -9440.8544    -9435.3824    -9435.4408  0.8216 -5.1037
siesta:    8    -9438.9313    -9430.5846    -9430.6362  0.8489 -5.0153
siesta:    9    -9437.6833    -9430.2020    -9430.2476  0.8120 -5.0131
siesta:   10    -9434.6942    -9420.4684    -9420.5156  0.5107 -4.9985
siesta:   11    -9435.7846    -9411.8866    -9411.9358  0.3304 -4.9517
siesta:   12    -9434.6859    -9410.6752    -9410.7409  0.1983 -4.8876
siesta:   13    -9434.4914    -9411.6638    -9411.7053  0.3039 -4.8881
siesta:   14    -9434.1674    -9413.2593    -9413.3083  0.1706 -4.9288
siesta:   15    -9433.8090    -9414.1007    -9414.1568  0.1605 -4.9256
siesta:   16    -9433.5247    -9420.3121    -9420.3567  0.1840 -4.9545
siesta:   17    -9433.4325    -9422.4039    -9422.4422  0.1177 -4.9522
siesta:   18    -9433.4111    -9425.5502    -9425.5852  0.0975 -4.9604
siesta:   19    -9433.3891    -9429.0114    -9429.0481  0.0371 -4.9693
siesta:   20    -9433.3839    -9430.3445    -9430.3826  0.0211 -4.9714
siesta:   21    -9433.3797    -9432.1387    -9432.1777  0.0222 -4.9717
siesta:   22    -9433.3774    -9432.7631    -9432.8029  0.0148 -4.9698
siesta:   23    -9433.3751    -9433.3649    -9433.4037  0.0146 -4.9692
siesta:   24    -9433.3738    -9433.4813    -9433.5197  0.0115 -4.9673
siesta:   25    -9433.3733    -9433.5929    -9433.6309  0.0089 -4.9668
siesta:   26    -9433.3732    -9433.6416    -9433.6798  0.0054 -4.9657
siesta:   27    -9433.3732    -9433.6800    -9433.7182  0.0032 -4.9649
siesta:   28    -9433.3731    -9433.5831    -9433.6212  0.0018 -4.9640
siesta:   29    -9433.3731    -9433.4822    -9433.5202  0.0013 -4.9632
siesta:   30    -9433.3730    -9433.4725    -9433.5106  0.0011 -4.9632
siesta:   31    -9433.3730    -9433.4587    -9433.4969  0.0007 -4.9632
siesta:   32    -9433.3730    -9433.4467    -9433.4848  0.0006 -4.9633
siesta:   33    -9433.3730    -9433.4320    -9433.4701  0.0004 -4.9634
siesta:   34    -9433.3730    -9433.3964    -9433.4345  0.0001 -4.9635
siesta:   35    -9433.3730    -9433.3872    -9433.4253  0.0001 -4.9635

siesta: E_KS(eV) =            -9433.3814

siesta: E_KS - E_eggbox =     -9433.3814

siesta: Atomic forces (eV/Ang):
----------------------------------------
   Tot   -0.204183   -0.104636    0.000000
----------------------------------------
   Max  566.258743
   Res  148.683073    sqrt( Sum f_i^2 / 3N )
----------------------------------------
   Max  566.258743    constrained

Stress-tensor-Voigt (kbar):     -755.73    -2694.44       -0.59       -8.67        0.00        0.00
(Free)E + p*V (eV/cell)    -8074.2270
Target enthalpy (eV/cell)    -9433.4195

siesta: Stress tensor (static) (eV/Ang**3):
        -0.471686   -0.005410    0.000000
        -0.005410   -1.681717    0.000000
         0.000000    0.000000   -0.000368

siesta: Pressure (static):       1150.25306894  kBar

siesta: Stress tensor (total) (eV/Ang**3):
        -0.471686   -0.005410    0.000000
        -0.005410   -1.681717    0.000000
         0.000000    0.000000   -0.000368

siesta: Pressure (total):       1150.25306894  kBar

siesta: Temp_ion =       0.000 K

* Maximum dynamic memory allocated =   170 MB
Computing bands...

siesta: Program's energy decomposition (eV):
siesta: Ebs     =     -4226.880985
siesta: Eions   =     16226.046981
siesta: Ena     =      4316.337283
siesta: Ekin    =      8348.406277
siesta: Enl     =      -833.354094
siesta: DEna    =      -780.611215
siesta: DUscf   =       104.421675
siesta: DUext   =         0.000000
siesta: Exc     =     -4362.534312
siesta: eta*DQ  =         0.000000
siesta: Emadel  =         0.000000
siesta: Emeta   =         0.000000
siesta: Emolmec =         0.000000
siesta: Ekinion =         0.000000
siesta: Eharris =     -9433.373024
siesta: Etot    =     -9433.381368
siesta: FreeEng =     -9433.419499

siesta: Final energy (eV):
siesta:  Band Struct. =   -4226.880985
siesta:       Kinetic =    8348.406277
siesta:       Hartree =   27197.780496
siesta:    Ext. field =       0.000000
siesta:   Exch.-corr. =   -4362.534312
siesta:  Ion-electron =  -62454.470272
siesta:       Ion-ion =   21837.436444
siesta:       Ekinion =       0.000000
siesta:         Total =   -9433.381368

siesta: Atomic forces (eV/Ang):
siesta:      1    5.005320 -107.446998    0.000000
siesta:      2    3.845259  395.523349    0.000000
siesta:      3    1.947898 -104.656529    0.000000
siesta:      4   19.967385  394.362399    0.000000
siesta:      5   22.026392    1.792956    0.000000
siesta:      6    7.991251   -4.135315    0.000000
siesta:      7    9.801355   -4.171853    0.000000
siesta:      8    3.238425   -2.318632    0.000000
siesta:      9   -6.392583   -2.355939    0.000000
siesta:     10    2.027747    0.516325    0.000000
siesta:     11   -1.141424    5.610817    0.000000
siesta:     12   -6.510474   -4.230866    0.000000
siesta:     13    5.631492    4.110553    0.000000
siesta:     14    2.210502   -2.007727    0.000000
siesta:     15   -4.621401   -2.873168    0.000000
siesta:     16    0.778748 -417.921524    0.000000
siesta:     17   13.847091    2.188962    0.000000
siesta:     18   -2.679385  412.281400    0.000000
siesta:     19    0.000765  124.264252    0.000000
siesta:     20   -9.730413 -546.588549    0.000000
siesta:     21   10.711244  128.850868    0.000000
siesta:     22    9.794105 -546.029076    0.000000
siesta:     23   23.270492   -3.444924    0.000000
siesta:     24   31.996481 -403.195795    0.000000
siesta:     25    6.269663    2.875784    0.000000
siesta:     26   -2.711999    2.535565    0.000000
siesta:     27   -0.820252    4.613598    0.000000
siesta:     28   -1.357356   -1.205739    0.000000
siesta:     29  -26.563965    2.960522    0.000000
siesta:     30  -31.328192 -548.815990    0.000000
siesta:     31   -1.849952   -3.663637    0.000000
siesta:     32    0.483348   -0.023841    0.000000
siesta:     33    2.139050    1.779292    0.000000
siesta:     34   -7.079571  547.804231    0.000000
siesta:     35    0.290416 -127.182138    0.000000
siesta:     36   11.290128  540.093420    0.000000
siesta:     37   -1.002021 -127.719598    0.000000
siesta:     38   30.126985  551.321570    0.000000
siesta:     39   19.484709   -6.108650    0.000000
siesta:     40   -0.489547    2.859905    0.000000
siesta:     41  -33.651119  550.418193    0.000000
siesta:     42  -27.006257   -4.157326    0.000000
siesta:     43  -26.207159  555.983786    0.000000
siesta:     44  -22.035548   -5.367751    0.000000
siesta:     45    0.077753  566.258743    0.000000
siesta:     46   -2.146606   -1.048133    0.000000
siesta:     47    2.354095   -2.121115    0.000000
siesta:     48   -1.816347   -0.049980    0.000000
siesta:     49    1.267860    2.004622    0.000000
siesta:     50   -0.073361   -0.341126    0.000000
siesta:     51   -0.748394   -0.432427    0.000000
siesta:     52   -2.153778   -1.142927    0.000000
siesta:     53    0.682191   -0.679013    0.000000
siesta:     54   -2.160396   -1.780664    0.000000
siesta:     55    0.058742    0.857422    0.000000
siesta:     56    0.113507   -0.770660    0.000000
siesta:     57    0.343367    7.083381    0.000000
siesta:     58    0.117075   -7.153454    0.000000
siesta:     59   -2.204934    1.924787    0.000000
siesta:     60    0.793564    0.714838    0.000000
siesta:     61    2.620252   -2.218749    0.000000
siesta:     62   -0.405292   -0.170098    0.000000
siesta:     63    0.617856   -1.731044    0.000000
siesta:     64   27.749752 -406.053653    0.000000
siesta:     65  -19.290743    3.284722    0.000000
siesta:     66  -34.808123 -565.239434    0.000000
siesta:     67   -1.994015   -0.278983    0.000000
siesta:     68    2.605116    2.325011    0.000000
siesta:     69   11.011712  128.113114    0.000000
siesta:     70  -11.426767 -556.112197    0.000000
siesta:     71   -0.222749  128.110429    0.000000
siesta:     72   -2.163154 -550.584231    0.000000
siesta: ----------------------------------------
siesta:    Tot   -0.204183   -0.104636    0.000000

siesta: Stress tensor (static) (eV/Ang**3):
siesta:    -0.471686   -0.005410    0.000000
siesta:    -0.005410   -1.681717    0.000000
siesta:     0.000000    0.000000   -0.000368

siesta: Cell volume =       1893.226884 Ang**3

siesta: Pressure (static):
siesta:                Solid            Molecule  Units
siesta:           0.00781911          0.11436000  Ry/Bohr**3
siesta:           0.71792374         10.50014669  eV/Ang**3
siesta:        1150.25306894      16823.27152905  kBar
(Free)E+ p_basis*V_orbitals  =       -9397.310673
(Free)Eharris+ p_basis*V_orbitals  =       -9397.296514

siesta: Electric dipole (a.u.)  =    0.000000    0.000000    0.000000
siesta: Electric dipole (Debye) =    0.000000    0.000000    0.000000

* Maximum dynamic memory allocated : Node    0 =   170 MB
* Maximum dynamic memory allocated : Node    1 =    67 MB
* Maximum dynamic memory allocated : Node    2 =    68 MB
* Maximum dynamic memory allocated : Node    3 =   155 MB
* Maximum dynamic memory allocated : Node    4 =   167 MB
* Maximum dynamic memory allocated : Node    5 =    60 MB
* Maximum dynamic memory allocated : Node    6 =    63 MB
* Maximum dynamic memory allocated : Node    7 =   158 MB
* Maximum dynamic memory allocated : Node    8 =   153 MB
* Maximum dynamic memory allocated : Node    9 =    60 MB
* Maximum dynamic memory allocated : Node   10 =    62 MB
* Maximum dynamic memory allocated : Node   11 =   145 MB

* Maximum memory occured during matrixMtoO                    

timer: CPU execution times:
timer:  Routine       Calls   Time/call    Tot.time        %
timer:  siesta            1  103940.942  103940.942   100.00
timer:  Setup             1       3.418       3.418     0.00
timer:  bands             3     226.284     678.853     0.65
timer:  writewave         1       0.024       0.024     0.00
timer:  KSV_init          1       0.006       0.006     0.00
timer:  IterMD            1  103251.593  103251.593    99.34
timer:  hsparse           1       0.277       0.277     0.00
timer:  overlap           1       7.624       7.624     0.01
timer:  IterSCF          35    2945.568  103094.866    99.19
timer:  kinefsm           2       3.876       7.752     0.01
timer:  nlefsm            2      20.440      40.880     0.04
timer:  DHSCF            36      80.634    2902.838     2.79
timer:  DHSCF1            1       1.191       1.191     0.00
timer:  DHSCF2            1      33.149      33.149     0.03
timer:  REORD           290       0.002       0.667     0.00
timer:  POISON           37       0.456      16.861     0.02
timer:  DHSCF3           36      78.887    2839.919     2.73
timer:  rhoofd           36      17.383     625.806     0.60
timer:  cellXC           36       2.418      87.050     0.08
timer:  vmat             36      37.650    1355.395     1.30
timer:  MolMec            2       0.000       0.000     0.00
timer:  diagon           35    2863.747  100231.145    96.43
timer:  c-eigval       8206       5.587   45843.199    44.11
timer:  c-buildHS      8206       0.036     297.797     0.29
timer:  cdiag         16291       5.687   92648.350    89.14
timer:  cdiag1        16291       0.261    4247.679     4.09
timer:  cdiag2        16291       1.829   29790.708    28.66
timer:  cdiag3        16291       3.384   55127.658    53.04
timer:  cdiag4        16291       0.087    1416.059     1.36
timer:  c-eigvec       8085       5.857   47353.200    45.56
timer:  c-buildD       8085       0.949    7669.573     7.38
timer:  DHSCF4            1      28.331      28.331     0.03
timer:  dfscf             1      26.226      26.226     0.03
timer:  overfsm           1       0.334       0.334     0.00
timer:  optical           1       6.460       6.460     0.01
  

elaps: ELAPSED times:
elaps:  Routine       Calls   Time/call    Tot.time        %
elaps:  siesta            1    8682.146    8682.146   100.00
elaps:  Setup             1       0.286       0.286     0.00
elaps:  bands             3      18.917      56.752     0.65
elaps:  writewave         1       0.002       0.002     0.00
elaps:  KSV_init          1       0.000       0.000     0.00
elaps:  IterMD            1    8624.564    8624.564    99.34
elaps:  hsparse           1       0.027       0.027     0.00
elaps:  overlap           1       0.718       0.718     0.01
elaps:  IterSCF          35     246.042    8611.473    99.19
elaps:  kinefsm           2       0.368       0.736     0.01
elaps:  nlefsm            2       1.843       3.687     0.04
elaps:  DHSCF            36       6.800     244.785     2.82
elaps:  DHSCF1            1       0.101       0.101     0.00
elaps:  DHSCF2            1       2.768       2.768     0.03
elaps:  REORD           290       0.000       0.087     0.00
elaps:  POISON           37       0.039       1.436     0.02
elaps:  DHSCF3           36       6.591     237.270     2.73
elaps:  rhoofd           36       3.038     109.381     1.26
elaps:  cellXC           36       0.201       7.253     0.08
elaps:  vmat             36       3.146     113.265     1.30
elaps:  MolMec            2       0.000       0.000     0.00
elaps:  diagon           35     239.215    8372.521    96.43
elaps:  c-eigval       8206       0.467    3829.201    44.10
elaps:  c-buildHS      8206       0.004      32.225     0.37
elaps:  cdiag         16291       0.470    7650.063    88.11
elaps:  cdiag1        16291       0.021     348.209     4.01
elaps:  cdiag2        16291       0.153    2490.656    28.69
elaps:  cdiag3        16291       0.283    4611.546    53.12
elaps:  cdiag4        16291       0.007     113.354     1.31
elaps:  c-eigvec       8085       0.480    3880.132    44.69
elaps:  c-buildD       8085       0.089     715.771     8.24
elaps:  DHSCF4            1       4.607       4.607     0.05
elaps:  dfscf             1       4.348       4.348     0.05
elaps:  overfsm           1       0.036       0.036     0.00
elaps:  optical           1       0.000       0.000     0.00
  
>> End of run:   1-MAY-2016  14:16:25
