Siesta Version:                                        siesta-3.2-pl-3
Architecture  : x86_64-unknown-linux-gnu--unknown
Compiler flags: mpiifort -g -O2 -fPIC -xSSE4.1 -fp-model source -shared-intel 
PARALLEL version

* Running on    8 nodes in parallel
>> Start of run:  26-APR-2016   1:54:05

                           ***********************       
                           *  WELCOME TO SIESTA  *       
                           ***********************       

reinit: Reading from standard input
************************** Dump of input data file ****************************
#(1) General system descriptors
SystemName            GRP_doping    # Descriptive name of the system
SystemLabel           GRP_doping    # Short name for naming files
%include STRUCT.fdf
%include KPT.fdf
%include BASIS.fdf
#%include TS.fdf # for transiesta calculation
#(4) DFT, Grid, SCF
XC.functional         GGA           # LDA or GGA (default = LDA)
XC.authors            PBE           # CA (Ceperley-Aldr) = PZ
                                    #    (Perdew-Zunger) - LDA - Default
                                    # PW92 (Perdew-Wang-92) - LDA
                                    # PBE (Perdew-Burke-Ernzerhof) - GGA
MeshCutoff            200.000000    Ry      # Default: 50.0 Ry ~ 0.444 Bohr
                                    #         100.0 Ry ~ 0.314 Bohr
MaxSCFIterations      500           # Default: 50
DM.MixingWeight       0.05          # Default: 0.25
DM.NumberPulay        10            # Default: 0
DM.PulayOnFile        F             # SystemLabel.P1, SystemLabel.P2
DM.Tolerance          1.d-4         # Default: 1.d-4
DM.UseSaveDM          .true.        # because of the bug
SCFMustConverge       .true.
NeglNonOverlapInt     F             # Default: F
#(5) Eigenvalue problem: order-N or diagonalization
SolutionMethod        Diagon        # or Transiesta
ElectronicTemperature 300.0 K       # Default: 300.0 K
#(6) Molecular dynamics and relaxations
#MD.TypeOfRun          CG            # Type of dynamics:
#MD.VariableCell       F
#MD.NumCGsteps         0           # 0 for single-point / 100 for gopt
#MD.MaxCGDispl         0.2 Bohr      # Default: 0.2 Bohr
#MD.MaxForceTol        0.02 eV/Ang   # Default: 0.04 eV/Ang
#MD.MaxStressTol       1.0 GPa       # Default: 1.0 GPa
# Geometry Constraints
#%block GeometryConstraints
#	position from 1 to 44
#%endblock GeometryConstraints
BandLinesScale   pi/a
%block BandLines
 1   0.00000000  0.00000000  0.00000000
50   0.00000000  0.07809418  0.00000000
50   0.04509075  0.07809242  0.00000000
20   0.00000000  0.00000000  0.00000000
%endblock BandLines
************************** End of input data file *****************************

reinit: -----------------------------------------------------------------------
reinit: System Name: GRP_doping
reinit: -----------------------------------------------------------------------
reinit: System Label: GRP_doping                                                  
reinit: -----------------------------------------------------------------------

initatom: Reading input for the pseudopotentials and atomic orbitals ----------
 Species number:            1  Label: N Atomic number:           7
 Species number:            2  Label: C Atomic number:           6
Ground state valence configuration:   2s02  2p03
Reading pseudopotential information in formatted form from N.psf

Valence configuration for pseudopotential generation:
2s( 2.00) rc: 1.48
2p( 3.00) rc: 1.48
3d( 0.00) rc: 1.48
4f( 0.00) rc: 1.48
Ground state valence configuration:   2s02  2p02
Reading pseudopotential information in formatted form from C.psf

Valence configuration for pseudopotential generation:
2s( 2.00) rc: 1.54
2p( 2.00) rc: 1.54
3d( 0.00) rc: 1.54
4f( 0.00) rc: 1.54
For N, standard SIESTA heuristics set lmxkb to 3
 (one more than the basis l, including polarization orbitals).
Use PS.lmax or PS.KBprojectors blocks to override.
For C, standard SIESTA heuristics set lmxkb to 3
 (one more than the basis l, including polarization orbitals).
Use PS.lmax or PS.KBprojectors blocks to override.

<basis_specs>
===============================================================================
N                    Z=   7    Mass=  14.010        Charge= 0.17977+309
Lmxo=1 Lmxkb= 3    BasisType=split      Semic=F
L=0  Nsemic=0  Cnfigmx=2
          n=1  nzeta=2  polorb=0
            splnorm:   0.15000    
               vcte:    0.0000    
               rinn:    0.0000    
                rcs:    0.0000      0.0000    
            lambdas:    1.0000      1.0000    
L=1  Nsemic=0  Cnfigmx=2
          n=1  nzeta=2  polorb=1
            splnorm:   0.15000    
               vcte:    0.0000    
               rinn:    0.0000    
                rcs:    0.0000      0.0000    
            lambdas:    1.0000      1.0000    
-------------------------------------------------------------------------------
L=0  Nkbl=1  erefs: 0.17977+309
L=1  Nkbl=1  erefs: 0.17977+309
L=2  Nkbl=1  erefs: 0.17977+309
L=3  Nkbl=1  erefs: 0.17977+309
===============================================================================
</basis_specs>

atom: Called for N                     (Z =   7)

read_vps: Pseudopotential generation method:
read_vps: ATM3      Troullier-Martins                       
Total valence charge:    5.00000

read_vps: Pseudopotential includes a core correction:
read_vps: Pseudo-core for xc-correction

xc_check: Exchange-correlation functional:
xc_check: GGA Perdew, Burke & Ernzerhof 1996
V l=0 = -2*Zval/r beyond r=  1.4606
V l=1 = -2*Zval/r beyond r=  1.4606
V l=2 = -2*Zval/r beyond r=  1.4606
V l=3 = -2*Zval/r beyond r=  1.4606
All V_l potentials equal beyond r=  1.4606
This should be close to max(r_c) in ps generation
All pots = -2*Zval/r beyond r=  1.4606

VLOCAL1: 99.0% of the norm of Vloc inside     20.347 Ry
VLOCAL1: 99.9% of the norm of Vloc inside     46.372 Ry
atom: Maximum radius for 4*pi*r*r*local-pseudopot. charge    1.76189
atom: Maximum radius for r*vlocal+2*Zval:    1.53550
GHOST: No ghost state for L =  0
GHOST: No ghost state for L =  1
GHOST: No ghost state for L =  2
GHOST: No ghost state for L =  3

KBgen: Kleinman-Bylander projectors: 
   l= 0   rc=  1.634559   el= -1.363963   Ekb=  5.296955   kbcos=  0.335621
   l= 1   rc=  1.614250   el= -0.521451   Ekb= -5.259161   kbcos= -0.433408
   l= 2   rc=  1.718383   el=  0.001991   Ekb= -1.271464   kbcos= -0.007566
   l= 3   rc=  1.761893   el=  0.003093   Ekb= -0.494769   kbcos= -0.001015

KBgen: Total number of  Kleinman-Bylander projectors:   16
atom: -------------------------------------------------------------------------

atom: SANKEY-TYPE ORBITALS:
atom: Selected multiple-zeta basis: split     

SPLIT: Orbitals with angular momentum L= 0

SPLIT: Basis orbitals for state 2s

SPLIT: PAO cut-off radius determined from an
SPLIT: energy shift=  0.007350 Ry

   izeta = 1
                 lambda =    1.000000
                     rc =    4.071465
                 energy =   -1.356470
                kinetic =    1.176977
    potential(screened) =   -2.533447
       potential(ionic) =   -8.057990

   izeta = 2
                 rmatch =    2.905100
              splitnorm =    0.150000
                 energy =   -1.158343
                kinetic =    1.813009
    potential(screened) =   -2.971352
       potential(ionic) =   -8.901931

SPLIT: Orbitals with angular momentum L= 1

SPLIT: Basis orbitals for state 2p

SPLIT: PAO cut-off radius determined from an
SPLIT: energy shift=  0.007350 Ry

   izeta = 1
                 lambda =    1.000000
                     rc =    4.972977
                 energy =   -0.513884
                kinetic =    3.441732
    potential(screened) =   -3.955616
       potential(ionic) =   -9.287901

   izeta = 2
                 rmatch =    3.054066
              splitnorm =    0.150000
                 energy =   -0.318226
                kinetic =    5.125348
    potential(screened) =   -5.443573
       potential(ionic) =  -11.380999

POLgen: Perturbative polarization orbital with L=  2

POLgen: Polarization orbital for state 2p

   izeta = 1
                     rc =    4.972977
                 energy =    1.607437
                kinetic =    3.268125
    potential(screened) =   -1.660688
       potential(ionic) =   -5.973652
atom: Total number of Sankey-type orbitals: 13

atm_pop: Valence configuration (for local Pseudopot. screening):
 2s( 2.00)                                                            
 2p( 3.00)                                                            
Vna: chval, zval:    5.00000   5.00000

Vna:  Cut-off radius for the neutral-atom potential:   4.972977
comcore: Pseudo-core radius Rcore=  1.554824

atom: _________________________________________________________________________

<basis_specs>
===============================================================================
C                    Z=   6    Mass=  12.010        Charge= 0.17977+309
Lmxo=1 Lmxkb= 3    BasisType=split      Semic=F
L=0  Nsemic=0  Cnfigmx=2
          n=1  nzeta=2  polorb=0
            splnorm:   0.15000    
               vcte:    0.0000    
               rinn:    0.0000    
                rcs:    0.0000      0.0000    
            lambdas:    1.0000      1.0000    
L=1  Nsemic=0  Cnfigmx=2
          n=1  nzeta=2  polorb=1
            splnorm:   0.15000    
               vcte:    0.0000    
               rinn:    0.0000    
                rcs:    0.0000      0.0000    
            lambdas:    1.0000      1.0000    
-------------------------------------------------------------------------------
L=0  Nkbl=1  erefs: 0.17977+309
L=1  Nkbl=1  erefs: 0.17977+309
L=2  Nkbl=1  erefs: 0.17977+309
L=3  Nkbl=1  erefs: 0.17977+309
===============================================================================
</basis_specs>

atom: Called for C                     (Z =   6)

read_vps: Pseudopotential generation method:
read_vps: ATM3      Troullier-Martins                       
Total valence charge:    4.00000

read_vps: Pseudopotential includes a core correction:
read_vps: Pseudo-core for xc-correction

xc_check: Exchange-correlation functional:
xc_check: GGA Perdew, Burke & Ernzerhof 1996
V l=0 = -2*Zval/r beyond r=  1.5227
V l=1 = -2*Zval/r beyond r=  1.5227
V l=2 = -2*Zval/r beyond r=  1.5227
V l=3 = -2*Zval/r beyond r=  1.5038
All V_l potentials equal beyond r=  1.5227
This should be close to max(r_c) in ps generation
All pots = -2*Zval/r beyond r=  1.5227

VLOCAL1: 99.0% of the norm of Vloc inside     18.722 Ry
VLOCAL1: 99.9% of the norm of Vloc inside     42.668 Ry
atom: Maximum radius for 4*pi*r*r*local-pseudopot. charge    1.83678
atom: Maximum radius for r*vlocal+2*Zval:    1.58088
GHOST: No ghost state for L =  0
GHOST: No ghost state for L =  1
GHOST: No ghost state for L =  2
GHOST: No ghost state for L =  3

KBgen: Kleinman-Bylander projectors: 
   l= 0   rc=  1.704034   el= -1.009801   Ekb=  5.335044   kbcos=  0.316824
   l= 1   rc=  1.704034   el= -0.388707   Ekb= -3.785862   kbcos= -0.366464
   l= 2   rc=  1.791422   el=  0.001971   Ekb= -0.970471   kbcos= -0.009212
   l= 3   rc=  1.859892   el=  0.003065   Ekb= -0.399525   kbcos= -0.001223

KBgen: Total number of  Kleinman-Bylander projectors:   16
atom: -------------------------------------------------------------------------

atom: SANKEY-TYPE ORBITALS:
atom: Selected multiple-zeta basis: split     

SPLIT: Orbitals with angular momentum L= 0

SPLIT: Basis orbitals for state 2s

SPLIT: PAO cut-off radius determined from an
SPLIT: energy shift=  0.007350 Ry

   izeta = 1
                 lambda =    1.000000
                     rc =    4.632753
                 energy =   -1.002270
                kinetic =    0.855760
    potential(screened) =   -1.858031
       potential(ionic) =   -5.417575

   izeta = 2
                 rmatch =    3.431921
              splitnorm =    0.150000
                 energy =   -0.867111
                kinetic =    1.300804
    potential(screened) =   -2.167915
       potential(ionic) =   -5.962684

SPLIT: Orbitals with angular momentum L= 1

SPLIT: Basis orbitals for state 2p

SPLIT: PAO cut-off radius determined from an
SPLIT: energy shift=  0.007350 Ry

   izeta = 1
                 lambda =    1.000000
                     rc =    5.658549
                 energy =   -0.381140
                kinetic =    2.399701
    potential(screened) =   -2.780841
       potential(ionic) =   -6.206085

   izeta = 2
                 rmatch =    3.653288
              splitnorm =    0.150000
                 energy =   -0.249149
                kinetic =    3.542762
    potential(screened) =   -3.791911
       potential(ionic) =   -7.581078

POLgen: Perturbative polarization orbital with L=  2

POLgen: Polarization orbital for state 2p

   izeta = 1
                     rc =    5.658549
                 energy =    1.109913
                kinetic =    2.304789
    potential(screened) =   -1.194876
       potential(ionic) =   -4.013592
atom: Total number of Sankey-type orbitals: 13

atm_pop: Valence configuration (for local Pseudopot. screening):
 2s( 2.00)                                                            
 2p( 2.00)                                                            
Vna: chval, zval:    4.00000   4.00000

Vna:  Cut-off radius for the neutral-atom potential:   5.658549
comcore: Pseudo-core radius Rcore=  1.791422

atom: _________________________________________________________________________

prinput: Basis input ----------------------------------------------------------

PAO.BasisType split     

%block ChemicalSpeciesLabel
    1    7 N                       # Species index, atomic number, species label
    2    6 C                       # Species index, atomic number, species label
%endblock ChemicalSpeciesLabel

%block PAO.Basis                 # Define Basis set
N                     2                    # Species label, number of l-shells
 n=2   0   2                         # n, l, Nzeta 
   4.071      2.905   
   1.000      1.000   
 n=2   1   2 P   1                   # n, l, Nzeta, Polarization, NzetaPol
   4.973      3.054   
   1.000      1.000   
C                     2                    # Species label, number of l-shells
 n=2   0   2                         # n, l, Nzeta 
   4.633      3.432   
   1.000      1.000   
 n=2   1   2 P   1                   # n, l, Nzeta, Polarization, NzetaPol
   5.659      3.653   
   1.000      1.000   
%endblock PAO.Basis

prinput: ----------------------------------------------------------------------

coor:   Atomic-coordinates input format  =     Fractional

siesta: Atomic coordinates (Bohr) and species
siesta:     -2.35420  38.89134   0.00000  1        1
siesta:     -2.35420  41.57980   0.00000  1        2
siesta:      2.30256  38.89134   0.00000  1        3
siesta:      2.30256  41.57980   0.00000  1        4
siesta:     -4.68258  34.85847   0.00000  1        5
siesta:     -4.68258  37.54693   0.00000  1        6
siesta:     -0.02582  21.41544   0.00000  1        7
siesta:      2.30256  22.75985   0.00000  1        8
siesta:     -4.68258  21.41544   0.00000  1        9
siesta:     -2.35420  22.75985   0.00000  1       10
siesta:     -7.01096  22.75985   0.00000  1       11
siesta:     -7.01096  25.44831   0.00000  1       12
siesta:     -9.33934  26.79272   0.00000  1       13
siesta:     -9.33934  29.48119   0.00000  1       14
siesta:     -4.68258  26.79272   0.00000  1       15
siesta:     -4.68258  29.48119   0.00000  1       16
siesta:     -2.35420  30.82560   0.00000  1       17
siesta:     -2.35420  33.51406   0.00000  1       18
siesta:     -7.01096  30.82560   0.00000  1       19
siesta:     -7.01096  33.51406   0.00000  1       20
siesta:     -0.02582  34.85847   0.00000  1       21
siesta:     -0.02582  37.54693   0.00000  1       22
siesta:     -0.02582  42.92421   0.00000  1       23
siesta:     -0.02582   2.59549   0.00000  2       24
siesta:     -0.02582   5.28395   0.00000  2       25
siesta:      4.63094  34.85847   0.00000  2       26
siesta:      4.63094  37.54693   0.00000  2       27
siesta:      6.95932  30.82560   0.00000  2       28
siesta:      6.95932  33.51406   0.00000  2       29
siesta:      9.28770  26.79272   0.00000  2       30
siesta:      9.28770  29.48119   0.00000  2       31
siesta:      2.30256   6.62836   0.00000  2       32
siesta:      2.30256   9.31683   0.00000  2       33
siesta:      4.63094  10.66124   0.00000  2       34
siesta:      4.63094  13.34970   0.00000  2       35
siesta:      6.95932  14.69411   0.00000  2       36
siesta:      6.95932  17.38257   0.00000  2       37
siesta:      9.28770  18.72698   0.00000  2       38
siesta:      9.28770  21.41544   0.00000  2       39
siesta:     11.61608  22.75985   0.00000  2       40
siesta:     11.61608  25.44831   0.00000  2       41
siesta:     -2.35420   6.62836   0.00000  2       42
siesta:     -2.35420   9.31683   0.00000  2       43
siesta:     -0.02582  10.66124   0.00000  2       44
siesta:     -0.02582  13.34970   0.00000  2       45
siesta:      2.30256  14.69411   0.00000  2       46
siesta:      2.30256  17.38257   0.00000  2       47
siesta:      4.63094  18.72698   0.00000  2       48
siesta:      4.63094  21.41544   0.00000  2       49
siesta:      6.95932  22.75985   0.00000  2       50
siesta:      6.95932  25.44831   0.00000  2       51
siesta:     -4.68258  10.66124   0.00000  2       52
siesta:     -4.68258  13.34970   0.00000  2       53
siesta:     -2.35420  14.69411   0.00000  2       54
siesta:     -2.35420  17.38257   0.00000  2       55
siesta:     -0.02582  18.72698   0.00000  2       56
siesta:      2.30256  25.44831   0.00000  2       57
siesta:     -7.01096  14.69411   0.00000  2       58
siesta:     -7.01096  17.38257   0.00000  2       59
siesta:     -4.68258  18.72698   0.00000  2       60
siesta:     -2.35420  25.44831   0.00000  2       61
siesta:     -9.33934  18.72698   0.00000  2       62
siesta:     -9.33934  21.41544   0.00000  2       63
siesta:    -11.66772  22.75985   0.00000  2       64
siesta:    -11.66772  25.44831   0.00000  2       65
siesta:      4.63094  26.79272   0.00000  2       66
siesta:      4.63094  29.48119   0.00000  2       67
siesta:     -0.02582  26.79272   0.00000  2       68
siesta:     -0.02582  29.48119   0.00000  2       69
siesta:      2.30256  30.82560   0.00000  2       70
siesta:      2.30256  33.51406   0.00000  2       71
siesta:     -0.02582  45.61267   0.00000  2       72

siesta: System type = slab      

initatomlists: Number of atoms, orbitals, and projectors:     72   936  1152

siesta: ******************** Simulation parameters ****************************
siesta:
siesta: The following are some of the parameters of the simulation.
siesta: A complete list of the parameters used, including default values,
siesta: can be found in file out.fdf
siesta:
redata: Non-Collinear-spin run           =     F
redata: SpinPolarized (Up/Down) run      =     F
redata: Number of spin components        =     1
redata: Long output                      =     F
redata: Number of Atomic Species         =        2
redata: Charge density info will appear in .RHO file
redata: Write Mulliken Pop.              =     NO
redata: Mesh Cutoff                      =   200.0000  Ry
redata: Net charge of the system         =     0.0000 |e|
redata: Max. number of SCF Iter          =      500
redata: SCF convergence failure will abort job
redata: Performing Pulay mixing using    =    10 iterations
redata: Mix DM in first SCF step ?       =     F
redata: Write Pulay info on disk?        =     F
redata: Discard 1st Pulay DM after  kick =     F
redata: New DM Mixing Weight             =     0.0500
redata: New DM Occupancy tolerance       = 0.000000000001
redata: No kicks to SCF
redata: DM Mixing Weight for Kicks       =     0.5000
redata: DM Tolerance for SCF             =     0.000100
redata: Require Energy convergence for SCF =     F
redata: DM Energy tolerance for SCF      =     0.000100 eV
redata: Require Harris convergence for SCF =     F
redata: DM Harris energy tolerance for SCF =     0.000100 eV
redata: Using Saved Data (generic)   =     F
redata: Use continuation files for DM    =     T
redata: Neglect nonoverlap interactions  =     F
redata: Method of Calculation            =     Diagonalization
redata: Divide and Conquer               =     T
redata: Electronic Temperature           =     0.0019  Ry
redata: Fix the spin of the system       =     F
redata: Dynamics option                  =     Verlet MD run
redata: Initial MD time step             =        1
redata:   Final MD time step             =        1
redata: Length of MD time step           =     1.0000  fs
redata: Initial Temperature of MD run    =     0.0000  K
redata: Perform a MD quench              =     F
redata: ***********************************************************************
Total number of electrons:   311.000000
Total ionic charge:   311.000000

* ProcessorY, Blocksize:    2  24

k-point displ. along   1 input, could be:     0.50    0.00
k-point displ. along   2 input, could be:     0.50    0.00
 Kpoints in:          231 . Kpoints trimmed:          231

siesta: k-grid: Number of k-points =   231
siesta: k-grid: Cutoff (effective) =     5.000 Ang
siesta: k-grid: Supercell and displacements
siesta: k-grid:   21   0   0      0.500
siesta: k-grid:    0  21   0      0.500
siesta: k-grid:    0   0   1      0.000
Naive supercell factors:     2    2    2

superc: Internal auxiliary supercell:     2 x     2 x     2  =       8
superc: Number of atoms, orbitals, and projectors:    576   7488   9216

* Maximum dynamic memory allocated =     4 MB

siesta:                 ==============================
                            Begin MD step =      1
                        ==============================

superc: Internal auxiliary supercell:     2 x     2 x     2  =       8
superc: Number of atoms, orbitals, and projectors:    576   7488   9216

outcell: Unit cell vectors (Ang):
       12.804619    7.392750    0.000000
        0.000000   14.785500    0.000000
        0.000000    0.000000   10.000000

outcell: Cell vector modules (Ang)   :   14.785500   14.785500   10.000000
outcell: Cell angles (23,13,12) (deg):     90.0000     90.0000     60.0000
outcell: Cell volume (Ang**3)        :   1893.2269
New_DM. Step:     1
Initializing Density Matrix...

InitMesh: MESH =   120 x   120 x    90 =     1296000
InitMesh: Mesh cutoff (required, used) =   200.000   223.865 Ry

* Maximum dynamic memory allocated =   179 MB

stepf: Fermi-Dirac step function

siesta: Program's energy decomposition (eV):
siesta: Ebs     =     -6342.103124
siesta: Eions   =     22100.188487
siesta: Ena     =      4962.118799
siesta: Ekin    =      8308.399223
siesta: Enl     =       -46.469364
siesta: DEna    =        -0.000015
siesta: DUscf   =         0.000000
siesta: DUext   =         0.000000
siesta: Exc     =     -4752.095121
siesta: eta*DQ  =         0.000000
siesta: Emadel  =         0.000000
siesta: Emeta   =         0.000000
siesta: Emolmec =         0.000000
siesta: Ekinion =         0.000000
siesta: Eharris =    -13230.871781
siesta: Etot    =    -13628.234965
siesta: FreeEng =    -13628.234965

siesta: iscf   Eharris(eV)      E_KS(eV)   FreeEng(eV)   dDmax  Ef(eV)
siesta:    1   -13230.8718   -13628.2350   -13628.2350  5.9484 -6.4091
timer: Routine,Calls,Time,% = IterSCF        1    4098.650  99.70
elaps: Routine,Calls,Wall,% = IterSCF        1     512.990  99.70
siesta:    2   -17129.5776   -12655.0270   -12655.0621 23.8482 -3.1684
siesta:    3   -13119.3605   -13447.2114   -13447.2691  2.9663 -5.1492
siesta:    4   -13108.5169   -13248.5985   -13248.6954  0.9501 -4.0503
siesta:    5   -13076.3608   -13203.7263   -13203.7856  0.9619 -3.8736
siesta:    6   -13072.2601   -13172.7045   -13172.7687  0.8586 -3.7861
siesta:    7   -13069.8766   -13156.7546   -13156.8338  0.7922 -3.8393
siesta:    8   -13069.3322   -13132.6580   -13132.7372  0.6944 -3.8651
siesta:    9   -13068.6147   -13123.6619   -13123.7041  0.7701 -3.8095
siesta:   10   -13068.5166   -13100.1664   -13100.2440  0.4669 -3.8434
siesta:   11   -13068.0992   -13072.6736   -13072.7246  0.4358 -3.8367
siesta:   12   -13067.4028   -13056.7922   -13056.8457  0.5198 -3.7014
siesta:   13   -13067.0275   -13052.7608   -13052.8186  0.4481 -3.7284
siesta:   14   -13066.9064   -13052.3352   -13052.3924  0.5444 -3.7060
siesta:   15   -13066.3303   -13051.6482   -13051.7051  0.2409 -3.7397
siesta:   16   -13066.1628   -13051.3611   -13051.4311  0.2208 -3.7281
siesta:   17   -13066.1126   -13054.0237   -13054.1048  0.2247 -3.7470
siesta:   18   -13066.0716   -13056.1598   -13056.2344  0.1899 -3.7587
siesta:   19   -13066.0488   -13059.2388   -13059.3162  0.1201 -3.7572
siesta:   20   -13066.0233   -13060.6659   -13060.7468  0.1002 -3.7663
siesta:   21   -13066.0145   -13063.9324   -13064.0157  0.1267 -3.7774
siesta:   22   -13066.0132   -13064.4003   -13064.4830  0.1390 -3.7824
siesta:   23   -13065.9992   -13065.8972   -13065.9769  0.0654 -3.7678
siesta:   24   -13065.9975   -13065.6993   -13065.7828  0.0278 -3.7684
siesta:   25   -13065.9963   -13065.7704   -13065.8522  0.0236 -3.7690
siesta:   26   -13065.9929   -13065.7356   -13065.8175  0.0323 -3.7640
siesta:   27   -13065.9942   -13065.7563   -13065.8393  0.0465 -3.7647
siesta:   28   -13065.9924   -13065.9213   -13066.0027  0.0109 -3.7619
siesta:   29   -13065.9919   -13065.9296   -13066.0119  0.0115 -3.7618
siesta:   30   -13065.9924   -13065.9596   -13066.0423  0.0082 -3.7629
siesta:   31   -13065.9923   -13065.8268   -13065.9088  0.0076 -3.7632
siesta:   32   -13065.9921   -13065.8339   -13065.9159  0.0023 -3.7631
siesta:   33   -13065.9920   -13065.9234   -13066.0055  0.0015 -3.7634
siesta:   34   -13065.9919   -13065.9498   -13066.0320  0.0010 -3.7640
siesta:   35   -13065.9919   -13065.9570   -13066.0392  0.0005 -3.7640
siesta:   36   -13065.9919   -13065.9608   -13066.0430  0.0005 -3.7640
siesta:   37   -13065.9919   -13065.9650   -13066.0473  0.0003 -3.7640
siesta:   38   -13065.9919   -13065.9784   -13066.0606  0.0003 -3.7639
siesta:   39   -13065.9919   -13065.9923   -13066.0745  0.0001 -3.7639
siesta:   40   -13065.9919   -13065.9920   -13066.0742  0.0001 -3.7639

siesta: E_KS(eV) =           -13065.9917

siesta: E_KS - E_eggbox =    -13065.9917

siesta: Atomic forces (eV/Ang):
----------------------------------------
   Tot   -0.268537    0.033793    0.000000
----------------------------------------
   Max  683.153114
   Res  180.561700    sqrt( Sum f_i^2 / 3N )
----------------------------------------
   Max  683.153114    constrained

Stress-tensor-Voigt (kbar):     -612.95    -3303.38       -0.06       19.81        0.00        0.00
(Free)E + p*V (eV/cell)   -11523.4796
Target enthalpy (eV/cell)   -13066.0740

siesta: Stress tensor (static) (eV/Ang**3):
        -0.382566    0.012363    0.000000
         0.012363   -2.061787    0.000000
         0.000000    0.000000   -0.000036

siesta: Pressure (static):       1305.46182053  kBar

siesta: Stress tensor (total) (eV/Ang**3):
        -0.382566    0.012363    0.000000
         0.012363   -2.061787    0.000000
         0.000000    0.000000   -0.000036

siesta: Pressure (total):       1305.46182053  kBar

siesta: Temp_ion =       0.000 K

* Maximum dynamic memory allocated =   196 MB
Computing bands...

siesta: Program's energy decomposition (eV):
siesta: Ebs     =     -5085.762970
siesta: Eions   =     22100.188487
siesta: Ena     =      4962.118799
siesta: Ekin    =     11490.743422
siesta: Enl     =     -1775.640597
siesta: DEna    =      -823.567534
siesta: DUscf   =       114.212111
siesta: DUext   =         0.000000
siesta: Exc     =     -4933.669429
siesta: eta*DQ  =         0.000000
siesta: Emadel  =         0.000000
siesta: Emeta   =         0.000000
siesta: Emolmec =         0.000000
siesta: Ekinion =         0.000000
siesta: Eharris =    -13065.991887
siesta: Etot    =    -13065.991716
siesta: FreeEng =    -13066.073951

siesta: Final energy (eV):
siesta:  Band Struct. =   -5085.762970
siesta:       Kinetic =   11490.743422
siesta:       Hartree =   37431.794222
siesta:    Ext. field =       0.000000
siesta:   Exch.-corr. =   -4933.669429
siesta:  Ion-electron =  -85823.728411
siesta:       Ion-ion =   28768.868480
siesta:       Ekinion =       0.000000
siesta:         Total =  -13065.991716

siesta: Atomic forces (eV/Ang):
siesta:      1    0.978158  108.059128    0.000000
siesta:      2  -25.727163 -656.829511    0.000000
siesta:      3    3.294188  105.156715    0.000000
siesta:      4   23.497396 -656.130422    0.000000
siesta:      5  -30.940246    7.864265    0.000000
siesta:      6  -26.353374 -657.245737    0.000000
siesta:      7    0.192481   -1.651161    0.000000
siesta:      8    1.010123    1.889309    0.000000
siesta:      9    0.835743   -1.062065    0.000000
siesta:     10   -1.694389    1.801093    0.000000
siesta:     11   -0.373397    0.372409    0.000000
siesta:     12    2.170948    0.131200    0.000000
siesta:     13   -2.664650    0.716756    0.000000
siesta:     14    0.768708    0.250712    0.000000
siesta:     15   -0.002681   -1.962935    0.000000
siesta:     16   -2.171737   -3.500057    0.000000
siesta:     17  -27.090914    7.485498    0.000000
siesta:     18    2.085460 -677.696519    0.000000
siesta:     19   -1.331883   -0.272454    0.000000
siesta:     20   -1.036854   -3.530249    0.000000
siesta:     21    2.505122  106.649935    0.000000
siesta:     22   -2.155069 -665.087423    0.000000
siesta:     23   -1.236244  120.825635    0.000000
siesta:     24  -14.097744  548.120207    0.000000
siesta:     25   -1.164685 -121.243190    0.000000
siesta:     26   27.317822    4.018861    0.000000
siesta:     27   33.037733 -554.957674    0.000000
siesta:     28    2.024938    0.042653    0.000000
siesta:     29   -2.957290    1.621645    0.000000
siesta:     30    2.038117    2.318108    0.000000
siesta:     31   -1.298672    0.074470    0.000000
siesta:     32   -2.943182  547.519294    0.000000
siesta:     33   -0.150401 -120.928114    0.000000
siesta:     34   17.895396  551.017031    0.000000
siesta:     35   25.992185   -3.095899    0.000000
siesta:     36   -3.425456   -1.569749    0.000000
siesta:     37    2.135059    0.350975    0.000000
siesta:     38   -1.532073   -0.019859    0.000000
siesta:     39    1.696887   -2.738189    0.000000
siesta:     40    0.067681    7.543310    0.000000
siesta:     41   -0.346938   -7.418315    0.000000
siesta:     42  -23.814510  655.309470    0.000000
siesta:     43    2.170748 -116.485492    0.000000
siesta:     44   -3.823125  673.873200    0.000000
siesta:     45    0.428882 -116.189704    0.000000
siesta:     46    3.150415  682.066889    0.000000
siesta:     47   23.907431   -3.063195    0.000000
siesta:     48   -2.004058    3.531607    0.000000
siesta:     49   -0.331457   -1.089181    0.000000
siesta:     50   -0.526814    1.205281    0.000000
siesta:     51   -0.050606   -0.703747    0.000000
siesta:     52  -21.180382  658.976550    0.000000
siesta:     53  -26.421550   -3.943535    0.000000
siesta:     54   -0.345030  683.153114    0.000000
siesta:     55  -23.786400   -2.246244    0.000000
siesta:     56    0.804305  573.079473    0.000000
siesta:     57   -0.948696   -0.967092    0.000000
siesta:     58    2.644827   -0.739963    0.000000
siesta:     59   -1.326367    0.141015    0.000000
siesta:     60    1.738690    3.084649    0.000000
siesta:     61   -0.796904    0.654890    0.000000
siesta:     62    0.589285    0.520795    0.000000
siesta:     63   -1.848047   -1.840469    0.000000
siesta:     64    1.032464    3.615757    0.000000
siesta:     65    1.772402   -0.975262    0.000000
siesta:     66    0.439050   -0.152949    0.000000
siesta:     67   -1.562911   -2.407520    0.000000
siesta:     68    0.161942   -1.307955    0.000000
siesta:     69   20.260516 -574.842653    0.000000
siesta:     70   23.948499    4.634515    0.000000
siesta:     71   27.388307 -562.502359    0.000000
siesta:     72   -0.788545 -541.245779    0.000000
siesta: ----------------------------------------
siesta:    Tot   -0.268537    0.033793    0.000000

siesta: Stress tensor (static) (eV/Ang**3):
siesta:    -0.382566    0.012363    0.000000
siesta:     0.012363   -2.061787    0.000000
siesta:     0.000000    0.000000   -0.000036

siesta: Cell volume =       1893.226884 Ang**3

siesta: Pressure (static):
siesta:                Solid            Molecule  Units
siesta:           0.00887417          0.14423355  Ry/Bohr**3
siesta:           0.81479637         13.24303401  eV/Ang**3
siesta:        1305.46182053      21217.90899433  kBar
(Free)E+ p_basis*V_orbitals  =      -13038.624496
(Free)Eharris+ p_basis*V_orbitals  =      -13038.624378

siesta: Electric dipole (a.u.)  =    0.000000    0.000000    0.000000
siesta: Electric dipole (Debye) =    0.000000    0.000000    0.000000

* Maximum dynamic memory allocated : Node    0 =   196 MB
* Maximum dynamic memory allocated : Node    1 =    71 MB
* Maximum dynamic memory allocated : Node    2 =    72 MB
* Maximum dynamic memory allocated : Node    3 =   186 MB
* Maximum dynamic memory allocated : Node    4 =   188 MB
* Maximum dynamic memory allocated : Node    5 =    71 MB
* Maximum dynamic memory allocated : Node    6 =    72 MB
* Maximum dynamic memory allocated : Node    7 =   173 MB

* Maximum memory occured during matrixMtoO                    

timer: CPU execution times:
timer:  Routine       Calls   Time/call    Tot.time        %
timer:  siesta            1  161434.995  161434.995   100.00
timer:  Setup             1       3.786       3.786     0.00
timer:  bands             3     268.591     805.772     0.50
timer:  writewave         1       0.042       0.042     0.00
timer:  KSV_init          1       0.006       0.006     0.00
timer:  IterMD            1  160619.730  160619.730    99.49
timer:  hsparse           1       0.233       0.233     0.00
timer:  overlap           1       7.707       7.707     0.00
timer:  IterSCF          40    4011.533  160461.319    99.40
timer:  kinefsm           2       3.948       7.895     0.00
timer:  nlefsm            2      18.405      36.810     0.02
timer:  DHSCF            41      80.933    3318.245     2.06
timer:  DHSCF1            1       0.760       0.760     0.00
timer:  DHSCF2            1      32.274      32.274     0.02
timer:  REORD           330       0.010       3.339     0.00
timer:  POISON           42       2.244      94.261     0.06
timer:  DHSCF3           41      79.367    3254.051     2.02
timer:  rhoofd           41      16.135     661.516     0.41
timer:  cellXC           41       3.476     142.536     0.09
timer:  vmat             41      38.110    1562.513     0.97
timer:  MolMec            2       0.000       0.000     0.00
timer:  diagon           40    3929.037  157161.477    97.35
timer:  c-eigval       9361       6.657   62319.627    38.60
timer:  c-buildHS      9361       0.111    1035.944     0.64
timer:  cdiag         18601       6.831  127058.764    78.71
timer:  cdiag1        18601       0.427    7939.214     4.92
timer:  cdiag2        18601       1.906   35447.853    21.96
timer:  cdiag3        18601       3.940   73280.287    45.39
timer:  cdiag4        18601       0.204    3790.610     2.35
timer:  c-eigvec       9240       7.187   66407.173    41.14
timer:  c-buildD       9240       3.159   29189.659    18.08
timer:  DHSCF4            1      28.965      28.965     0.02
timer:  dfscf             1      27.191      27.191     0.02
timer:  overfsm           1       0.395       0.395     0.00
timer:  optical           1       5.006       5.006     0.00
  

elaps: ELAPSED times:
elaps:  Routine       Calls   Time/call    Tot.time        %
elaps:  siesta            1   20201.404   20201.404   100.00
elaps:  Setup             1       0.489       0.489     0.00
elaps:  bands             3      33.627     100.880     0.50
elaps:  writewave         1       0.005       0.005     0.00
elaps:  KSV_init          1       0.001       0.001     0.00
elaps:  IterMD            1   20099.375   20099.375    99.49
elaps:  hsparse           1       0.032       0.032     0.00
elaps:  overlap           1       0.962       0.962     0.00
elaps:  IterSCF          40     501.992   20079.671    99.40
elaps:  kinefsm           2       0.495       0.989     0.00
elaps:  nlefsm            2       2.309       4.618     0.02
elaps:  DHSCF            41      10.216     418.839     2.07
elaps:  DHSCF1            1       0.100       0.100     0.00
elaps:  DHSCF2            1       4.036       4.036     0.02
elaps:  REORD           330       0.001       0.444     0.00
elaps:  POISON           42       0.281      11.792     0.06
elaps:  DHSCF3           41       9.929     407.092     2.02
elaps:  rhoofd           41       4.382     179.656     0.89
elaps:  cellXC           41       0.434      17.795     0.09
elaps:  vmat             41       4.767     195.457     0.97
elaps:  MolMec            2       0.000       0.000     0.00
elaps:  diagon           40     491.680   19667.199    97.36
elaps:  c-eigval       9361       0.833    7797.503    38.60
elaps:  c-buildHS      9361       0.015     142.594     0.71
elaps:  cdiag         18601       0.843   15689.614    77.67
elaps:  cdiag1        18601       0.053     985.169     4.88
elaps:  cdiag2        18601       0.238    4435.381    21.96
elaps:  cdiag3        18601       0.494    9181.131    45.45
elaps:  cdiag4        18601       0.026     479.300     2.37
elaps:  c-eigvec       9240       0.880    8134.529    40.27
elaps:  c-buildD       9240       0.414    3828.373    18.95
elaps:  DHSCF4            1       7.318       7.318     0.04
elaps:  dfscf             1       6.944       6.944     0.03
elaps:  overfsm           1       0.051       0.051     0.00
elaps:  optical           1       0.001       0.001     0.00
  
>> End of run:  26-APR-2016   7:30:46
