Siesta Version:                                        siesta-3.2-pl-3
Architecture  : x86_64-unknown-linux-gnu--unknown
Compiler flags: mpiifort -g -O2 -fPIC -xSSE4.1 -fp-model source -shared-intel 
PARALLEL version

* Running on    8 nodes in parallel
>> Start of run:  15-APR-2016   7:30:02

                           ***********************       
                           *  WELCOME TO SIESTA  *       
                           ***********************       

reinit: Reading from standard input
************************** Dump of input data file ****************************
#(1) General system descriptors
SystemName            GRP_doping    # Descriptive name of the system
SystemLabel           GRP_doping    # Short name for naming files
%include STRUCT.fdf
%include KPT.fdf
%include BASIS.fdf
#%include TS.fdf # for transiesta calculation
#(4) DFT, Grid, SCF
XC.functional         GGA           # LDA or GGA (default = LDA)
XC.authors            PBE           # CA (Ceperley-Aldr) = PZ
                                    #    (Perdew-Zunger) - LDA - Default
                                    # PW92 (Perdew-Wang-92) - LDA
                                    # PBE (Perdew-Burke-Ernzerhof) - GGA
MeshCutoff            200.000000    Ry      # Default: 50.0 Ry ~ 0.444 Bohr
                                    #         100.0 Ry ~ 0.314 Bohr
MaxSCFIterations      500           # Default: 50
DM.MixingWeight       0.05          # Default: 0.25
DM.NumberPulay        10            # Default: 0
DM.PulayOnFile        F             # SystemLabel.P1, SystemLabel.P2
DM.Tolerance          1.d-4         # Default: 1.d-4
DM.UseSaveDM          .true.        # because of the bug
SCFMustConverge       .true.
NeglNonOverlapInt     F             # Default: F
#(5) Eigenvalue problem: order-N or diagonalization
SolutionMethod        Diagon        # or Transiesta
ElectronicTemperature 300.0 K       # Default: 300.0 K
#(6) Molecular dynamics and relaxations
#MD.TypeOfRun          CG            # Type of dynamics:
#MD.VariableCell       F
#MD.NumCGsteps         0           # 0 for single-point / 100 for gopt
#MD.MaxCGDispl         0.2 Bohr      # Default: 0.2 Bohr
#MD.MaxForceTol        0.02 eV/Ang   # Default: 0.04 eV/Ang
#MD.MaxStressTol       1.0 GPa       # Default: 1.0 GPa
# Geometry Constraints
#%block GeometryConstraints
#	position from 1 to 44
#%endblock GeometryConstraints
BandLinesScale   pi/a
%block BandLines
 1   0.00000000  0.00000000  0.00000000
50   0.00000000  0.07809418  0.00000000
50   0.04509075  0.07809242  0.00000000
20   0.00000000  0.00000000  0.00000000
%endblock BandLines
************************** End of input data file *****************************

reinit: -----------------------------------------------------------------------
reinit: System Name: GRP_doping
reinit: -----------------------------------------------------------------------
reinit: System Label: GRP_doping                                                  
reinit: -----------------------------------------------------------------------

initatom: Reading input for the pseudopotentials and atomic orbitals ----------
 Species number:            1  Label: B Atomic number:           5
 Species number:            2  Label: C Atomic number:           6
Ground state valence configuration:   2s02  2p01
Reading pseudopotential information in formatted form from B.psf

Valence configuration for pseudopotential generation:
2s( 2.00) rc: 1.74
2p( 1.00) rc: 1.74
3d( 0.00) rc: 1.74
4f( 0.00) rc: 1.74
Ground state valence configuration:   2s02  2p02
Reading pseudopotential information in formatted form from C.psf

Valence configuration for pseudopotential generation:
2s( 2.00) rc: 1.54
2p( 2.00) rc: 1.54
3d( 0.00) rc: 1.54
4f( 0.00) rc: 1.54
For B, standard SIESTA heuristics set lmxkb to 3
 (one more than the basis l, including polarization orbitals).
Use PS.lmax or PS.KBprojectors blocks to override.
For C, standard SIESTA heuristics set lmxkb to 3
 (one more than the basis l, including polarization orbitals).
Use PS.lmax or PS.KBprojectors blocks to override.

<basis_specs>
===============================================================================
B                    Z=   5    Mass=  10.810        Charge= 0.17977+309
Lmxo=1 Lmxkb= 3    BasisType=split      Semic=F
L=0  Nsemic=0  Cnfigmx=2
          n=1  nzeta=2  polorb=0
            splnorm:   0.15000    
               vcte:    0.0000    
               rinn:    0.0000    
                rcs:    0.0000      0.0000    
            lambdas:    1.0000      1.0000    
L=1  Nsemic=0  Cnfigmx=2
          n=1  nzeta=2  polorb=1
            splnorm:   0.15000    
               vcte:    0.0000    
               rinn:    0.0000    
                rcs:    0.0000      0.0000    
            lambdas:    1.0000      1.0000    
-------------------------------------------------------------------------------
L=0  Nkbl=1  erefs: 0.17977+309
L=1  Nkbl=1  erefs: 0.17977+309
L=2  Nkbl=1  erefs: 0.17977+309
L=3  Nkbl=1  erefs: 0.17977+309
===============================================================================
</basis_specs>

atom: Called for B                     (Z =   5)

read_vps: Pseudopotential generation method:
read_vps: ATM3      Troullier-Martins                       
Total valence charge:    3.00000

read_vps: Pseudopotential includes a core correction:
read_vps: Pseudo-core for xc-correction

xc_check: Exchange-correlation functional:
xc_check: GGA Perdew, Burke & Ernzerhof 1996
V l=0 = -2*Zval/r beyond r=  1.7165
V l=1 = -2*Zval/r beyond r=  1.7165
V l=2 = -2*Zval/r beyond r=  1.7165
V l=3 = -2*Zval/r beyond r=  1.6951
All V_l potentials equal beyond r=  1.7165
This should be close to max(r_c) in ps generation
All pots = -2*Zval/r beyond r=  1.7165

VLOCAL1: 99.0% of the norm of Vloc inside     14.733 Ry
VLOCAL1: 99.9% of the norm of Vloc inside     33.577 Ry
atom: Maximum radius for 4*pi*r*r*local-pseudopot. charge    2.04484
atom: Maximum radius for r*vlocal+2*Zval:    1.75994
GHOST: No ghost state for L =  0
GHOST: No ghost state for L =  1
GHOST: No ghost state for L =  2
GHOST: No ghost state for L =  3

KBgen: Kleinman-Bylander projectors: 
   l= 0   rc=  1.897051   el= -0.693730   Ekb=  4.595746   kbcos=  0.286105
   l= 1   rc=  1.920920   el= -0.265236   Ekb= -2.350715   kbcos= -0.315747
   l= 2   rc=  2.044840   el=  0.002055   Ekb= -0.690767   kbcos= -0.013822
   l= 3   rc=  2.149707   el=  0.003188   Ekb= -0.315358   kbcos= -0.002055

KBgen: Total number of  Kleinman-Bylander projectors:   16
atom: -------------------------------------------------------------------------

atom: SANKEY-TYPE ORBITALS:
atom: Selected multiple-zeta basis: split     

SPLIT: Orbitals with angular momentum L= 0

SPLIT: Basis orbitals for state 2s

SPLIT: PAO cut-off radius determined from an
SPLIT: energy shift=  0.007350 Ry

   izeta = 1
                 lambda =    1.000000
                     rc =    5.422032
                 energy =   -0.686029
                kinetic =    0.576707
    potential(screened) =   -1.262736
       potential(ionic) =   -3.271094

   izeta = 2
                 rmatch =    4.222573
              splitnorm =    0.150000
                 energy =   -0.602132
                kinetic =    0.858975
    potential(screened) =   -1.461107
       potential(ionic) =   -3.582536

SPLIT: Orbitals with angular momentum L= 1

SPLIT: Basis orbitals for state 2p

SPLIT: PAO cut-off radius determined from an
SPLIT: energy shift=  0.007350 Ry

   izeta = 1
                 lambda =    1.000000
                     rc =    6.790259
                 energy =   -0.258578
                kinetic =    1.481412
    potential(screened) =   -1.739989
       potential(ionic) =   -3.657461

   izeta = 2
                 rmatch =    4.608740
              splitnorm =    0.150000
                 energy =   -0.173757
                kinetic =    2.186690
    potential(screened) =   -2.360447
       potential(ionic) =   -4.464260

POLgen: Perturbative polarization orbital with L=  2

POLgen: Polarization orbital for state 2p

   izeta = 1
                     rc =    6.790259
                 energy =    0.684082
                kinetic =    1.471481
    potential(screened) =   -0.787399
       potential(ionic) =   -2.406985
atom: Total number of Sankey-type orbitals: 13

atm_pop: Valence configuration (for local Pseudopot. screening):
 2s( 2.00)                                                            
 2p( 1.00)                                                            
Vna: chval, zval:    3.00000   3.00000

Vna:  Cut-off radius for the neutral-atom potential:   6.790259
comcore: Pseudo-core radius Rcore=  2.122997

atom: _________________________________________________________________________

<basis_specs>
===============================================================================
C                    Z=   6    Mass=  12.010        Charge= 0.17977+309
Lmxo=1 Lmxkb= 3    BasisType=split      Semic=F
L=0  Nsemic=0  Cnfigmx=2
          n=1  nzeta=2  polorb=0
            splnorm:   0.15000    
               vcte:    0.0000    
               rinn:    0.0000    
                rcs:    0.0000      0.0000    
            lambdas:    1.0000      1.0000    
L=1  Nsemic=0  Cnfigmx=2
          n=1  nzeta=2  polorb=1
            splnorm:   0.15000    
               vcte:    0.0000    
               rinn:    0.0000    
                rcs:    0.0000      0.0000    
            lambdas:    1.0000      1.0000    
-------------------------------------------------------------------------------
L=0  Nkbl=1  erefs: 0.17977+309
L=1  Nkbl=1  erefs: 0.17977+309
L=2  Nkbl=1  erefs: 0.17977+309
L=3  Nkbl=1  erefs: 0.17977+309
===============================================================================
</basis_specs>

atom: Called for C                     (Z =   6)

read_vps: Pseudopotential generation method:
read_vps: ATM3      Troullier-Martins                       
Total valence charge:    4.00000

read_vps: Pseudopotential includes a core correction:
read_vps: Pseudo-core for xc-correction

xc_check: Exchange-correlation functional:
xc_check: GGA Perdew, Burke & Ernzerhof 1996
V l=0 = -2*Zval/r beyond r=  1.5227
V l=1 = -2*Zval/r beyond r=  1.5227
V l=2 = -2*Zval/r beyond r=  1.5227
V l=3 = -2*Zval/r beyond r=  1.5038
All V_l potentials equal beyond r=  1.5227
This should be close to max(r_c) in ps generation
All pots = -2*Zval/r beyond r=  1.5227

VLOCAL1: 99.0% of the norm of Vloc inside     18.722 Ry
VLOCAL1: 99.9% of the norm of Vloc inside     42.668 Ry
atom: Maximum radius for 4*pi*r*r*local-pseudopot. charge    1.83678
atom: Maximum radius for r*vlocal+2*Zval:    1.58088
GHOST: No ghost state for L =  0
GHOST: No ghost state for L =  1
GHOST: No ghost state for L =  2
GHOST: No ghost state for L =  3

KBgen: Kleinman-Bylander projectors: 
   l= 0   rc=  1.704034   el= -1.009801   Ekb=  5.335044   kbcos=  0.316824
   l= 1   rc=  1.704034   el= -0.388707   Ekb= -3.785862   kbcos= -0.366464
   l= 2   rc=  1.791422   el=  0.001971   Ekb= -0.970471   kbcos= -0.009212
   l= 3   rc=  1.859892   el=  0.003065   Ekb= -0.399525   kbcos= -0.001223

KBgen: Total number of  Kleinman-Bylander projectors:   16
atom: -------------------------------------------------------------------------

atom: SANKEY-TYPE ORBITALS:
atom: Selected multiple-zeta basis: split     

SPLIT: Orbitals with angular momentum L= 0

SPLIT: Basis orbitals for state 2s

SPLIT: PAO cut-off radius determined from an
SPLIT: energy shift=  0.007350 Ry

   izeta = 1
                 lambda =    1.000000
                     rc =    4.632753
                 energy =   -1.002270
                kinetic =    0.855760
    potential(screened) =   -1.858031
       potential(ionic) =   -5.417575

   izeta = 2
                 rmatch =    3.431921
              splitnorm =    0.150000
                 energy =   -0.867111
                kinetic =    1.300804
    potential(screened) =   -2.167915
       potential(ionic) =   -5.962684

SPLIT: Orbitals with angular momentum L= 1

SPLIT: Basis orbitals for state 2p

SPLIT: PAO cut-off radius determined from an
SPLIT: energy shift=  0.007350 Ry

   izeta = 1
                 lambda =    1.000000
                     rc =    5.658549
                 energy =   -0.381140
                kinetic =    2.399701
    potential(screened) =   -2.780841
       potential(ionic) =   -6.206085

   izeta = 2
                 rmatch =    3.653288
              splitnorm =    0.150000
                 energy =   -0.249149
                kinetic =    3.542762
    potential(screened) =   -3.791911
       potential(ionic) =   -7.581078

POLgen: Perturbative polarization orbital with L=  2

POLgen: Polarization orbital for state 2p

   izeta = 1
                     rc =    5.658549
                 energy =    1.109913
                kinetic =    2.304789
    potential(screened) =   -1.194876
       potential(ionic) =   -4.013592
atom: Total number of Sankey-type orbitals: 13

atm_pop: Valence configuration (for local Pseudopot. screening):
 2s( 2.00)                                                            
 2p( 2.00)                                                            
Vna: chval, zval:    4.00000   4.00000

Vna:  Cut-off radius for the neutral-atom potential:   5.658549
comcore: Pseudo-core radius Rcore=  1.791422

atom: _________________________________________________________________________

prinput: Basis input ----------------------------------------------------------

PAO.BasisType split     

%block ChemicalSpeciesLabel
    1    5 B                       # Species index, atomic number, species label
    2    6 C                       # Species index, atomic number, species label
%endblock ChemicalSpeciesLabel

%block PAO.Basis                 # Define Basis set
B                     2                    # Species label, number of l-shells
 n=2   0   2                         # n, l, Nzeta 
   5.422      4.223   
   1.000      1.000   
 n=2   1   2 P   1                   # n, l, Nzeta, Polarization, NzetaPol
   6.790      4.609   
   1.000      1.000   
C                     2                    # Species label, number of l-shells
 n=2   0   2                         # n, l, Nzeta 
   4.633      3.432   
   1.000      1.000   
 n=2   1   2 P   1                   # n, l, Nzeta, Polarization, NzetaPol
   5.659      3.653   
   1.000      1.000   
%endblock PAO.Basis

prinput: ----------------------------------------------------------------------

coor:   Atomic-coordinates input format  =     Fractional

siesta: Atomic coordinates (Bohr) and species
siesta:     -0.02582  21.41544   0.00000  1        1
siesta:      2.30256  22.75985   0.00000  1        2
siesta:      2.30256  25.44831   0.00000  1        3
siesta:     -2.35420  22.75985   0.00000  1        4
siesta:     -2.35420  25.44831   0.00000  1        5
siesta:     -0.02582  26.79272   0.00000  1        6
siesta:     -0.02582  42.92421   0.00000  1        7
siesta:     -0.02582   2.59549   0.00000  2        8
siesta:     -0.02582   5.28395   0.00000  2        9
siesta:     -2.35420  38.89134   0.00000  2       10
siesta:     -2.35420  41.57980   0.00000  2       11
siesta:      2.30256  38.89134   0.00000  2       12
siesta:      2.30256  41.57980   0.00000  2       13
siesta:      4.63094  34.85847   0.00000  2       14
siesta:      4.63094  37.54693   0.00000  2       15
siesta:      6.95932  30.82560   0.00000  2       16
siesta:      6.95932  33.51406   0.00000  2       17
siesta:      9.28770  26.79272   0.00000  2       18
siesta:      9.28770  29.48119   0.00000  2       19
siesta:     -4.68258  34.85847   0.00000  2       20
siesta:     -4.68258  37.54693   0.00000  2       21
siesta:      2.30256   6.62836   0.00000  2       22
siesta:      2.30256   9.31683   0.00000  2       23
siesta:      4.63094  10.66124   0.00000  2       24
siesta:      4.63094  13.34970   0.00000  2       25
siesta:      6.95932  14.69411   0.00000  2       26
siesta:      6.95932  17.38257   0.00000  2       27
siesta:      9.28770  18.72698   0.00000  2       28
siesta:      9.28770  21.41544   0.00000  2       29
siesta:     11.61608  22.75985   0.00000  2       30
siesta:     11.61608  25.44831   0.00000  2       31
siesta:     -2.35420   6.62836   0.00000  2       32
siesta:     -2.35420   9.31683   0.00000  2       33
siesta:     -0.02582  10.66124   0.00000  2       34
siesta:     -0.02582  13.34970   0.00000  2       35
siesta:      2.30256  14.69411   0.00000  2       36
siesta:      2.30256  17.38257   0.00000  2       37
siesta:      4.63094  18.72698   0.00000  2       38
siesta:      4.63094  21.41544   0.00000  2       39
siesta:      6.95932  22.75985   0.00000  2       40
siesta:      6.95932  25.44831   0.00000  2       41
siesta:     -4.68258  10.66124   0.00000  2       42
siesta:     -4.68258  13.34970   0.00000  2       43
siesta:     -2.35420  14.69411   0.00000  2       44
siesta:     -2.35420  17.38257   0.00000  2       45
siesta:     -0.02582  18.72698   0.00000  2       46
siesta:     -7.01096  14.69411   0.00000  2       47
siesta:     -7.01096  17.38257   0.00000  2       48
siesta:     -4.68258  18.72698   0.00000  2       49
siesta:     -4.68258  21.41544   0.00000  2       50
siesta:     -9.33934  18.72698   0.00000  2       51
siesta:     -9.33934  21.41544   0.00000  2       52
siesta:     -7.01096  22.75985   0.00000  2       53
siesta:     -7.01096  25.44831   0.00000  2       54
siesta:    -11.66772  22.75985   0.00000  2       55
siesta:    -11.66772  25.44831   0.00000  2       56
siesta:     -9.33934  26.79272   0.00000  2       57
siesta:     -9.33934  29.48119   0.00000  2       58
siesta:      4.63094  26.79272   0.00000  2       59
siesta:      4.63094  29.48119   0.00000  2       60
siesta:     -0.02582  29.48119   0.00000  2       61
siesta:     -4.68258  26.79272   0.00000  2       62
siesta:     -4.68258  29.48119   0.00000  2       63
siesta:      2.30256  30.82560   0.00000  2       64
siesta:      2.30256  33.51406   0.00000  2       65
siesta:     -2.35420  30.82560   0.00000  2       66
siesta:     -2.35420  33.51406   0.00000  2       67
siesta:     -7.01096  30.82560   0.00000  2       68
siesta:     -7.01096  33.51406   0.00000  2       69
siesta:     -0.02582  34.85847   0.00000  2       70
siesta:     -0.02582  37.54693   0.00000  2       71
siesta:     -0.02582  45.61267   0.00000  2       72

siesta: System type = slab      

initatomlists: Number of atoms, orbitals, and projectors:     72   936  1152

siesta: ******************** Simulation parameters ****************************
siesta:
siesta: The following are some of the parameters of the simulation.
siesta: A complete list of the parameters used, including default values,
siesta: can be found in file out.fdf
siesta:
redata: Non-Collinear-spin run           =     F
redata: SpinPolarized (Up/Down) run      =     F
redata: Number of spin components        =     1
redata: Long output                      =     F
redata: Number of Atomic Species         =        2
redata: Charge density info will appear in .RHO file
redata: Write Mulliken Pop.              =     NO
redata: Mesh Cutoff                      =   200.0000  Ry
redata: Net charge of the system         =     0.0000 |e|
redata: Max. number of SCF Iter          =      500
redata: SCF convergence failure will abort job
redata: Performing Pulay mixing using    =    10 iterations
redata: Mix DM in first SCF step ?       =     F
redata: Write Pulay info on disk?        =     F
redata: Discard 1st Pulay DM after  kick =     F
redata: New DM Mixing Weight             =     0.0500
redata: New DM Occupancy tolerance       = 0.000000000001
redata: No kicks to SCF
redata: DM Mixing Weight for Kicks       =     0.5000
redata: DM Tolerance for SCF             =     0.000100
redata: Require Energy convergence for SCF =     F
redata: DM Energy tolerance for SCF      =     0.000100 eV
redata: Require Harris convergence for SCF =     F
redata: DM Harris energy tolerance for SCF =     0.000100 eV
redata: Using Saved Data (generic)   =     F
redata: Use continuation files for DM    =     T
redata: Neglect nonoverlap interactions  =     F
redata: Method of Calculation            =     Diagonalization
redata: Divide and Conquer               =     T
redata: Electronic Temperature           =     0.0019  Ry
redata: Fix the spin of the system       =     F
redata: Dynamics option                  =     Verlet MD run
redata: Initial MD time step             =        1
redata:   Final MD time step             =        1
redata: Length of MD time step           =     1.0000  fs
redata: Initial Temperature of MD run    =     0.0000  K
redata: Perform a MD quench              =     F
redata: ***********************************************************************
Total number of electrons:   281.000000
Total ionic charge:   281.000000

* ProcessorY, Blocksize:    2  24

k-point displ. along   1 input, could be:     0.50    0.00
k-point displ. along   2 input, could be:     0.50    0.00
 Kpoints in:          231 . Kpoints trimmed:          231

siesta: k-grid: Number of k-points =   231
siesta: k-grid: Cutoff (effective) =     5.000 Ang
siesta: k-grid: Supercell and displacements
siesta: k-grid:   21   0   0      0.500
siesta: k-grid:    0  21   0      0.500
siesta: k-grid:    0   0   1      0.000
Naive supercell factors:     2    2    2

superc: Internal auxiliary supercell:     2 x     2 x     2  =       8
superc: Number of atoms, orbitals, and projectors:    576   7488   9216

* Maximum dynamic memory allocated =     4 MB

siesta:                 ==============================
                            Begin MD step =      1
                        ==============================

superc: Internal auxiliary supercell:     2 x     2 x     2  =       8
superc: Number of atoms, orbitals, and projectors:    576   7488   9216

outcell: Unit cell vectors (Ang):
       12.804619    7.392750    0.000000
        0.000000   14.785500    0.000000
        0.000000    0.000000   10.000000

outcell: Cell vector modules (Ang)   :   14.785500   14.785500   10.000000
outcell: Cell angles (23,13,12) (deg):     90.0000     90.0000     60.0000
outcell: Cell volume (Ang**3)        :   1893.2269
New_DM. Step:     1
Initializing Density Matrix...

iodm: Reading Density Matrix from files

InitMesh: MESH =   120 x   120 x    90 =     1296000
InitMesh: Mesh cutoff (required, used) =   200.000   223.865 Ry

* Maximum dynamic memory allocated =   206 MB

stepf: Fermi-Dirac step function

siesta: Program's energy decomposition (eV):
siesta: Ebs     =     -4489.912917
siesta: Eions   =     17506.614093
siesta: Ena     =      4559.181796
siesta: Ekin    =      8378.472785
siesta: Enl     =      -446.046885
siesta: DEna    =      -781.669898
siesta: DUscf   =        94.409469
siesta: DUext   =         0.000000
siesta: Exc     =     -4334.771223
siesta: eta*DQ  =         0.000000
siesta: Emadel  =         0.000000
siesta: Emeta   =         0.000000
siesta: Emolmec =         0.000000
siesta: Ekinion =         0.000000
siesta: Eharris =     -9987.826231
siesta: Etot    =    -10037.038048
siesta: FreeEng =    -10037.038048

siesta: iscf   Eharris(eV)      E_KS(eV)   FreeEng(eV)   dDmax  Ef(eV)
siesta:    1    -9987.8262   -10037.0380   -10037.0380  0.7783 -5.1165
timer: Routine,Calls,Time,% = IterSCF        1    3463.287  99.69
elaps: Routine,Calls,Wall,% = IterSCF        1     433.738  99.69
siesta:    2   -10525.2300    -9901.0772    -9901.1096  2.5912 -5.6896
siesta:    3    -9978.3970   -10014.7489   -10014.7944  0.7312 -4.8465
siesta:    4    -9975.6679   -10009.7997   -10009.8626  0.6964 -4.9722
siesta:    5    -9976.3127    -9998.2579    -9998.3169  0.6231 -4.7955
siesta:    6    -9973.6812    -9981.7743    -9981.8457  0.3122 -4.6335
siesta:    7    -9973.4474    -9966.7147    -9966.7780  0.2043 -4.6642
siesta:    8    -9972.6172    -9963.1739    -9963.2522  0.1726 -4.5927
siesta:    9    -9972.5799    -9963.2234    -9963.2904  0.1719 -4.5965
siesta:   10    -9971.2053    -9963.1480    -9963.2165  0.1293 -4.7153
siesta:   11    -9971.1792    -9963.0161    -9963.0953  0.1041 -4.7053
siesta:   12    -9971.1199    -9963.1458    -9963.2284  0.1025 -4.6806
siesta:   13    -9971.1132    -9965.0450    -9965.1306  0.0898 -4.7040
siesta:   14    -9971.0872    -9967.2451    -9967.3233  0.0751 -4.7146
siesta:   15    -9971.1076    -9968.4287    -9968.5084  0.0867 -4.7357
siesta:   16    -9971.0488    -9968.8949    -9968.9659  0.0643 -4.7508
siesta:   17    -9971.0333    -9968.8400    -9968.9183  0.0525 -4.7355
siesta:   18    -9971.0275    -9969.5569    -9969.6382  0.0400 -4.7590
siesta:   19    -9971.0188    -9970.1659    -9970.2467  0.0289 -4.7580
siesta:   20    -9971.0173    -9970.4079    -9970.4902  0.0165 -4.7479
siesta:   21    -9971.0163    -9970.7903    -9970.8736  0.0093 -4.7455
siesta:   22    -9971.0144    -9970.8503    -9970.9344  0.0072 -4.7509
siesta:   23    -9971.0142    -9971.1256    -9971.2095  0.0101 -4.7500
siesta:   24    -9971.0142    -9971.1264    -9971.2097  0.0100 -4.7503
siesta:   25    -9971.0139    -9971.1109    -9971.1943  0.0099 -4.7496
siesta:   26    -9971.0135    -9970.8460    -9970.9296  0.0062 -4.7493
siesta:   27    -9971.0134    -9970.8606    -9970.9442  0.0051 -4.7493
siesta:   28    -9971.0134    -9970.9304    -9971.0141  0.0016 -4.7503
siesta:   29    -9971.0134    -9971.0083    -9971.0920  0.0013 -4.7502
siesta:   30    -9971.0134    -9971.0114    -9971.0950  0.0010 -4.7503
siesta:   31    -9971.0133    -9971.0102    -9971.0938  0.0005 -4.7507
siesta:   32    -9971.0133    -9971.0118    -9971.0955  0.0004 -4.7507
siesta:   33    -9971.0133    -9971.0177    -9971.1014  0.0004 -4.7507
siesta:   34    -9971.0133    -9971.0188    -9971.1024  0.0004 -4.7506
siesta:   35    -9971.0133    -9971.0159    -9971.0996  0.0003 -4.7506
siesta:   36    -9971.0133    -9971.0092    -9971.0928  0.0001 -4.7506
siesta:   37    -9971.0133    -9971.0077    -9971.0914  0.0001 -4.7506
siesta:   38    -9971.0133    -9971.0055    -9971.0891  0.0001 -4.7506

siesta: E_KS(eV) =            -9971.0059

siesta: E_KS - E_eggbox =     -9971.0059

siesta: Atomic forces (eV/Ang):
----------------------------------------
   Tot   -0.190563   -0.100676    0.000000
----------------------------------------
   Max  570.490928
   Res  161.372356    sqrt( Sum f_i^2 / 3N )
----------------------------------------
   Max  570.490928    constrained

Stress-tensor-Voigt (kbar):     -761.48    -2859.45       -0.37       -0.07        0.00        0.00
(Free)E + p*V (eV/cell)    -8544.7222
Target enthalpy (eV/cell)    -9971.0895

siesta: Stress tensor (static) (eV/Ang**3):
        -0.475276   -0.000044    0.000000
        -0.000044   -1.784708    0.000000
         0.000000    0.000000   -0.000233

siesta: Pressure (static):       1207.10155645  kBar

siesta: Stress tensor (total) (eV/Ang**3):
        -0.475276   -0.000044    0.000000
        -0.000044   -1.784708    0.000000
         0.000000    0.000000   -0.000233

siesta: Pressure (total):       1207.10155645  kBar

siesta: Temp_ion =       0.000 K

* Maximum dynamic memory allocated =   223 MB
Computing bands...

siesta: Program's energy decomposition (eV):
siesta: Ebs     =     -4433.143608
siesta: Eions   =     17506.614093
siesta: Ena     =      4559.181796
siesta: Ekin    =      8973.508846
siesta: Enl     =      -950.458724
siesta: DEna    =      -799.505798
siesta: DUscf   =       107.581376
siesta: DUext   =         0.000000
siesta: Exc     =     -4354.699262
siesta: eta*DQ  =         0.000000
siesta: Emadel  =         0.000000
siesta: Emeta   =         0.000000
siesta: Emolmec =         0.000000
siesta: Ekinion =         0.000000
siesta: Eharris =     -9971.013336
siesta: Etot    =     -9971.005859
siesta: FreeEng =     -9971.089515

siesta: Final energy (eV):
siesta:  Band Struct. =   -4433.143608
siesta:       Kinetic =    8973.508846
siesta:       Hartree =   29317.943995
siesta:    Ext. field =       0.000000
siesta:   Exch.-corr. =   -4354.699262
siesta:  Ion-electron =  -67281.936035
siesta:       Ion-ion =   23374.176597
siesta:       Ekinion =       0.000000
siesta:         Total =   -9971.005859

siesta: Atomic forces (eV/Ang):
siesta:      1    0.000225   -4.550727    0.000000
siesta:      2    3.523318   -2.789958    0.000000
siesta:      3    3.601736    2.934197    0.000000
siesta:      4   -3.543583   -2.758464    0.000000
siesta:      5   -3.610627    2.930507    0.000000
siesta:      6    0.007852    4.115174    0.000000
siesta:      7   -0.001112  114.118494    0.000000
siesta:      8   -0.017424  549.754902    0.000000
siesta:      9    0.009121 -128.964808    0.000000
siesta:     10    1.556716  127.731290    0.000000
siesta:     11  -10.106822 -542.532568    0.000000
siesta:     12   -1.594350  127.747659    0.000000
siesta:     13   10.105086 -542.525514    0.000000
siesta:     14   26.768818    5.248523    0.000000
siesta:     15   33.681466 -548.611196    0.000000
siesta:     16    2.290574    0.296858    0.000000
siesta:     17   -2.529827    2.080307    0.000000
siesta:     18    2.548506    1.509263    0.000000
siesta:     19   -1.276157    0.624686    0.000000
siesta:     20  -26.779750    5.243974    0.000000
siesta:     21  -33.705338 -548.593115    0.000000
siesta:     22   14.918547  547.442737    0.000000
siesta:     23   -2.155214 -127.366478    0.000000
siesta:     24   32.128551  548.681294    0.000000
siesta:     25   26.855214   -3.890120    0.000000
siesta:     26   -2.341032   -2.111452    0.000000
siesta:     27    2.011879   -0.289831    0.000000
siesta:     28   -1.181720   -0.608301    0.000000
siesta:     29    2.484825   -1.499448    0.000000
siesta:     30   -0.284871    7.203949    0.000000
siesta:     31   -0.301285   -7.202958    0.000000
siesta:     32  -14.951043  547.488060    0.000000
siesta:     33    2.136346 -127.343469    0.000000
siesta:     34    0.039668  550.522212    0.000000
siesta:     35    0.047986 -131.334311    0.000000
siesta:     36   32.488872  556.483249    0.000000
siesta:     37   18.019285   -7.022667    0.000000
siesta:     38   -0.142676    2.119670    0.000000
siesta:     39    2.529629   -1.983863    0.000000
siesta:     40    0.146193    0.063848    0.000000
siesta:     41    0.089226   -0.022217    0.000000
siesta:     42  -32.139503  548.683094    0.000000
siesta:     43  -26.904949   -3.852849    0.000000
siesta:     44  -32.508641  556.506090    0.000000
siesta:     45  -18.054695   -7.019361    0.000000
siesta:     46    0.008332  570.490928    0.000000
siesta:     47    2.345265   -2.118725    0.000000
siesta:     48   -2.001229   -0.296989    0.000000
siesta:     49    0.130263    2.153785    0.000000
siesta:     50   -2.542774   -1.987130    0.000000
siesta:     51    1.186238   -0.602522    0.000000
siesta:     52   -2.493753   -1.486722    0.000000
siesta:     53   -0.150082    0.068583    0.000000
siesta:     54   -0.108624   -0.033393    0.000000
siesta:     55    0.300547    7.205447    0.000000
siesta:     56    0.306716   -7.207358    0.000000
siesta:     57   -2.545041    1.500662    0.000000
siesta:     58    1.281686    0.616084    0.000000
siesta:     59    2.588961    1.715071    0.000000
siesta:     60   -0.886452   -2.061694    0.000000
siesta:     61    0.015422 -560.948431    0.000000
siesta:     62   -2.610427    1.712650    0.000000
siesta:     63    0.861352   -2.095948    0.000000
siesta:     64   21.532984    5.300324    0.000000
siesta:     65   23.123992 -556.971357    0.000000
siesta:     66  -21.560641    5.279097    0.000000
siesta:     67  -23.127832 -556.968104    0.000000
siesta:     68   -2.252540    0.307761    0.000000
siesta:     69    2.531489    2.091343    0.000000
siesta:     70    0.007084  128.181063    0.000000
siesta:     71    0.019463 -545.417514    0.000000
siesta:     72   -0.009980 -555.183945    0.000000
siesta: ----------------------------------------
siesta:    Tot   -0.190563   -0.100676    0.000000

siesta: Stress tensor (static) (eV/Ang**3):
siesta:    -0.475276   -0.000044    0.000000
siesta:    -0.000044   -1.784708    0.000000
siesta:     0.000000    0.000000   -0.000233

siesta: Cell volume =       1893.226884 Ang**3

siesta: Pressure (static):
siesta:                Solid            Molecule  Units
siesta:           0.00820555          0.12593295  Ry/Bohr**3
siesta:           0.75340539         11.56273559  eV/Ang**3
siesta:        1207.10155645      18525.74502692  kBar
(Free)E+ p_basis*V_orbitals  =       -9938.140223
(Free)Eharris+ p_basis*V_orbitals  =       -9938.148071

siesta: Electric dipole (a.u.)  =    0.000000    0.000000    0.000000
siesta: Electric dipole (Debye) =    0.000000    0.000000    0.000000

* Maximum dynamic memory allocated : Node    0 =   223 MB
* Maximum dynamic memory allocated : Node    1 =    78 MB
* Maximum dynamic memory allocated : Node    2 =    81 MB
* Maximum dynamic memory allocated : Node    3 =   212 MB
* Maximum dynamic memory allocated : Node    4 =   213 MB
* Maximum dynamic memory allocated : Node    5 =    78 MB
* Maximum dynamic memory allocated : Node    6 =    80 MB
* Maximum dynamic memory allocated : Node    7 =   196 MB

* Maximum memory occured during matrixMtoO                    

timer: CPU execution times:
timer:  Routine       Calls   Time/call    Tot.time        %
timer:  siesta            1  129226.522  129226.522   100.00
timer:  Setup             1       2.694       2.694     0.00
timer:  bands             3     243.424     730.271     0.57
timer:  writewave         1       0.019       0.019     0.00
timer:  KSV_init          1       0.004       0.004     0.00
timer:  IterMD            1  128488.385  128488.385    99.43
timer:  hsparse           1       0.514       0.514     0.00
timer:  overlap           1       5.519       5.519     0.00
timer:  IterSCF          38    3376.575  128309.866    99.29
timer:  kinefsm           2       2.896       5.793     0.00
timer:  nlefsm            2      18.789      37.578     0.03
timer:  DHSCF            39      90.325    3522.687     2.73
timer:  DHSCF1            1       0.994       0.994     0.00
timer:  DHSCF2            1      40.111      40.111     0.03
timer:  REORD           314       0.005       1.558     0.00
timer:  POISON           40       0.873      34.936     0.03
timer:  DHSCF3           39      88.338    3445.192     2.67
timer:  rhoofd           39      20.492     799.172     0.62
timer:  cellXC           39       3.291     128.338     0.10
timer:  vmat             39      41.083    1602.240     1.24
timer:  MolMec            2       0.000       0.001     0.00
timer:  diagon           38    3285.596  124852.665    96.62
timer:  c-eigval       8899       6.019   53560.342    41.45
timer:  c-buildHS      8899       0.049     439.779     0.34
timer:  cdiag         17677       6.147  108665.836    84.09
timer:  cdiag1        17677       0.385    6809.957     5.27
timer:  cdiag2        17677       1.772   31324.389    24.24
timer:  cdiag3        17677       3.723   65805.279    50.92
timer:  cdiag4        17677       0.149    2630.098     2.04
timer:  c-eigvec       8778       6.370   55913.164    43.27
timer:  c-buildD       8778       1.830   16064.462    12.43
timer:  DHSCF4            1      35.641      35.641     0.03
timer:  dfscf             1      32.994      32.994     0.03
timer:  overfsm           1       0.423       0.423     0.00
timer:  optical           1       4.521       4.521     0.00
  

elaps: ELAPSED times:
elaps:  Routine       Calls   Time/call    Tot.time        %
elaps:  siesta            1   16183.656   16183.656   100.00
elaps:  Setup             1       0.339       0.339     0.00
elaps:  bands             3      30.502      91.505     0.57
elaps:  writewave         1       0.002       0.002     0.00
elaps:  KSV_init          1       0.000       0.000     0.00
elaps:  IterMD            1   16091.215   16091.215    99.43
elaps:  hsparse           1       0.062       0.062     0.00
elaps:  overlap           1       0.904       0.904     0.01
elaps:  IterSCF          38     422.865   16068.860    99.29
elaps:  kinefsm           2       0.472       0.944     0.01
elaps:  nlefsm            2       2.382       4.765     0.03
elaps:  DHSCF            39      11.423     445.495     2.75
elaps:  DHSCF1            1       0.126       0.126     0.00
elaps:  DHSCF2            1       5.023       5.023     0.03
elaps:  REORD           314       0.001       0.212     0.00
elaps:  POISON           40       0.110       4.418     0.03
elaps:  DHSCF3           39      11.064     431.484     2.67
elaps:  rhoofd           39       5.373     209.564     1.29
elaps:  cellXC           39       0.412      16.052     0.10
elaps:  vmat             39       5.145     200.666     1.24
elaps:  MolMec            2       0.000       0.000     0.00
elaps:  diagon           38     411.478   15636.160    96.62
elaps:  c-eigval       8899       0.754    6707.563    41.45
elaps:  c-buildHS      8899       0.007      60.089     0.37
elaps:  cdiag         17677       0.765   13531.644    83.61
elaps:  cdiag1        17677       0.048     852.778     5.27
elaps:  cdiag2        17677       0.222    3923.587    24.24
elaps:  cdiag3        17677       0.467    8252.079    50.99
elaps:  cdiag4        17677       0.018     323.323     2.00
elaps:  c-eigvec       8778       0.790    6936.690    42.86
elaps:  c-buildD       8778       0.237    2077.256    12.84
elaps:  DHSCF4            1       8.766       8.766     0.05
elaps:  dfscf             1       8.245       8.245     0.05
elaps:  overfsm           1       0.055       0.055     0.00
elaps:  optical           1       0.000       0.000     0.00
  
>> End of run:  15-APR-2016  11:59:46
