Siesta Version:                                        siesta-3.2-pl-3
Architecture  : x86_64-unknown-linux-gnu--unknown
Compiler flags: mpiifort -g -O2 -fPIC -xSSE4.1 -fp-model source -shared-intel 
PARALLEL version

* Running on   12 nodes in parallel
>> Start of run:   7-MAY-2016  16:58:05

                           ***********************       
                           *  WELCOME TO SIESTA  *       
                           ***********************       

reinit: Reading from standard input
************************** Dump of input data file ****************************
#(1) General system descriptors
SystemName            GRP_doping    # Descriptive name of the system
SystemLabel           GRP_doping    # Short name for naming files
%include STRUCT.fdf
%include KPT.fdf
%include BASIS.fdf
#%include TS.fdf # for transiesta calculation
#(4) DFT, Grid, SCF
XC.functional         GGA           # LDA or GGA (default = LDA)
XC.authors            PBE           # CA (Ceperley-Aldr) = PZ
                                    #    (Perdew-Zunger) - LDA - Default
                                    # PW92 (Perdew-Wang-92) - LDA
                                    # PBE (Perdew-Burke-Ernzerhof) - GGA
MeshCutoff            200.000000    Ry      # Default: 50.0 Ry ~ 0.444 Bohr
                                    #         100.0 Ry ~ 0.314 Bohr
MaxSCFIterations      500           # Default: 50
DM.MixingWeight       0.05          # Default: 0.25
DM.NumberPulay        10            # Default: 0
DM.PulayOnFile        F             # SystemLabel.P1, SystemLabel.P2
DM.Tolerance          1.d-4         # Default: 1.d-4
DM.UseSaveDM          .true.        # because of the bug
SCFMustConverge       .true.
NeglNonOverlapInt     F             # Default: F
#(5) Eigenvalue problem: order-N or diagonalization
SolutionMethod        Diagon        # or Transiesta
ElectronicTemperature 300.0 K       # Default: 300.0 K
#(6) Molecular dynamics and relaxations
#MD.TypeOfRun          CG            # Type of dynamics:
#MD.VariableCell       F
#MD.NumCGsteps         0           # 0 for single-point / 100 for gopt
#MD.MaxCGDispl         0.2 Bohr      # Default: 0.2 Bohr
#MD.MaxForceTol        0.02 eV/Ang   # Default: 0.04 eV/Ang
#MD.MaxStressTol       1.0 GPa       # Default: 1.0 GPa
# Geometry Constraints
#%block GeometryConstraints
#	position from 1 to 44
#%endblock GeometryConstraints
BandLinesScale   pi/a
%block BandLines
 1   0.00000000  0.00000000  0.00000000
50   0.00000000  0.07809418  0.00000000
50   0.04509075  0.07809242  0.00000000
20   0.00000000  0.00000000  0.00000000
%endblock BandLines
************************** End of input data file *****************************

reinit: -----------------------------------------------------------------------
reinit: System Name: GRP_doping
reinit: -----------------------------------------------------------------------
reinit: System Label: GRP_doping                                                  
reinit: -----------------------------------------------------------------------

initatom: Reading input for the pseudopotentials and atomic orbitals ----------
 Species number:            1  Label: N Atomic number:           7
 Species number:            2  Label: C Atomic number:           6
Ground state valence configuration:   2s02  2p03
Reading pseudopotential information in formatted form from N.psf

Valence configuration for pseudopotential generation:
2s( 2.00) rc: 1.48
2p( 3.00) rc: 1.48
3d( 0.00) rc: 1.48
4f( 0.00) rc: 1.48
Ground state valence configuration:   2s02  2p02
Reading pseudopotential information in formatted form from C.psf

Valence configuration for pseudopotential generation:
2s( 2.00) rc: 1.54
2p( 2.00) rc: 1.54
3d( 0.00) rc: 1.54
4f( 0.00) rc: 1.54
For N, standard SIESTA heuristics set lmxkb to 3
 (one more than the basis l, including polarization orbitals).
Use PS.lmax or PS.KBprojectors blocks to override.
For C, standard SIESTA heuristics set lmxkb to 3
 (one more than the basis l, including polarization orbitals).
Use PS.lmax or PS.KBprojectors blocks to override.

<basis_specs>
===============================================================================
N                    Z=   7    Mass=  14.010        Charge= 0.17977+309
Lmxo=1 Lmxkb= 3    BasisType=split      Semic=F
L=0  Nsemic=0  Cnfigmx=2
          n=1  nzeta=2  polorb=0
            splnorm:   0.15000    
               vcte:    0.0000    
               rinn:    0.0000    
                rcs:    0.0000      0.0000    
            lambdas:    1.0000      1.0000    
L=1  Nsemic=0  Cnfigmx=2
          n=1  nzeta=2  polorb=1
            splnorm:   0.15000    
               vcte:    0.0000    
               rinn:    0.0000    
                rcs:    0.0000      0.0000    
            lambdas:    1.0000      1.0000    
-------------------------------------------------------------------------------
L=0  Nkbl=1  erefs: 0.17977+309
L=1  Nkbl=1  erefs: 0.17977+309
L=2  Nkbl=1  erefs: 0.17977+309
L=3  Nkbl=1  erefs: 0.17977+309
===============================================================================
</basis_specs>

atom: Called for N                     (Z =   7)

read_vps: Pseudopotential generation method:
read_vps: ATM3      Troullier-Martins                       
Total valence charge:    5.00000

read_vps: Pseudopotential includes a core correction:
read_vps: Pseudo-core for xc-correction

xc_check: Exchange-correlation functional:
xc_check: GGA Perdew, Burke & Ernzerhof 1996
V l=0 = -2*Zval/r beyond r=  1.4606
V l=1 = -2*Zval/r beyond r=  1.4606
V l=2 = -2*Zval/r beyond r=  1.4606
V l=3 = -2*Zval/r beyond r=  1.4606
All V_l potentials equal beyond r=  1.4606
This should be close to max(r_c) in ps generation
All pots = -2*Zval/r beyond r=  1.4606

VLOCAL1: 99.0% of the norm of Vloc inside     20.347 Ry
VLOCAL1: 99.9% of the norm of Vloc inside     46.372 Ry
atom: Maximum radius for 4*pi*r*r*local-pseudopot. charge    1.76189
atom: Maximum radius for r*vlocal+2*Zval:    1.53550
GHOST: No ghost state for L =  0
GHOST: No ghost state for L =  1
GHOST: No ghost state for L =  2
GHOST: No ghost state for L =  3

KBgen: Kleinman-Bylander projectors: 
   l= 0   rc=  1.634559   el= -1.363963   Ekb=  5.296955   kbcos=  0.335621
   l= 1   rc=  1.614250   el= -0.521451   Ekb= -5.259161   kbcos= -0.433408
   l= 2   rc=  1.718383   el=  0.001991   Ekb= -1.271464   kbcos= -0.007566
   l= 3   rc=  1.761893   el=  0.003093   Ekb= -0.494769   kbcos= -0.001015

KBgen: Total number of  Kleinman-Bylander projectors:   16
atom: -------------------------------------------------------------------------

atom: SANKEY-TYPE ORBITALS:
atom: Selected multiple-zeta basis: split     

SPLIT: Orbitals with angular momentum L= 0

SPLIT: Basis orbitals for state 2s

SPLIT: PAO cut-off radius determined from an
SPLIT: energy shift=  0.007350 Ry

   izeta = 1
                 lambda =    1.000000
                     rc =    4.071465
                 energy =   -1.356470
                kinetic =    1.176977
    potential(screened) =   -2.533447
       potential(ionic) =   -8.057990

   izeta = 2
                 rmatch =    2.905100
              splitnorm =    0.150000
                 energy =   -1.158343
                kinetic =    1.813009
    potential(screened) =   -2.971352
       potential(ionic) =   -8.901931

SPLIT: Orbitals with angular momentum L= 1

SPLIT: Basis orbitals for state 2p

SPLIT: PAO cut-off radius determined from an
SPLIT: energy shift=  0.007350 Ry

   izeta = 1
                 lambda =    1.000000
                     rc =    4.972977
                 energy =   -0.513884
                kinetic =    3.441732
    potential(screened) =   -3.955616
       potential(ionic) =   -9.287901

   izeta = 2
                 rmatch =    3.054066
              splitnorm =    0.150000
                 energy =   -0.318226
                kinetic =    5.125348
    potential(screened) =   -5.443573
       potential(ionic) =  -11.380999

POLgen: Perturbative polarization orbital with L=  2

POLgen: Polarization orbital for state 2p

   izeta = 1
                     rc =    4.972977
                 energy =    1.607437
                kinetic =    3.268125
    potential(screened) =   -1.660688
       potential(ionic) =   -5.973652
atom: Total number of Sankey-type orbitals: 13

atm_pop: Valence configuration (for local Pseudopot. screening):
 2s( 2.00)                                                            
 2p( 3.00)                                                            
Vna: chval, zval:    5.00000   5.00000

Vna:  Cut-off radius for the neutral-atom potential:   4.972977
comcore: Pseudo-core radius Rcore=  1.554824

atom: _________________________________________________________________________

<basis_specs>
===============================================================================
C                    Z=   6    Mass=  12.010        Charge= 0.17977+309
Lmxo=1 Lmxkb= 3    BasisType=split      Semic=F
L=0  Nsemic=0  Cnfigmx=2
          n=1  nzeta=2  polorb=0
            splnorm:   0.15000    
               vcte:    0.0000    
               rinn:    0.0000    
                rcs:    0.0000      0.0000    
            lambdas:    1.0000      1.0000    
L=1  Nsemic=0  Cnfigmx=2
          n=1  nzeta=2  polorb=1
            splnorm:   0.15000    
               vcte:    0.0000    
               rinn:    0.0000    
                rcs:    0.0000      0.0000    
            lambdas:    1.0000      1.0000    
-------------------------------------------------------------------------------
L=0  Nkbl=1  erefs: 0.17977+309
L=1  Nkbl=1  erefs: 0.17977+309
L=2  Nkbl=1  erefs: 0.17977+309
L=3  Nkbl=1  erefs: 0.17977+309
===============================================================================
</basis_specs>

atom: Called for C                     (Z =   6)

read_vps: Pseudopotential generation method:
read_vps: ATM3      Troullier-Martins                       
Total valence charge:    4.00000

read_vps: Pseudopotential includes a core correction:
read_vps: Pseudo-core for xc-correction

xc_check: Exchange-correlation functional:
xc_check: GGA Perdew, Burke & Ernzerhof 1996
V l=0 = -2*Zval/r beyond r=  1.5227
V l=1 = -2*Zval/r beyond r=  1.5227
V l=2 = -2*Zval/r beyond r=  1.5227
V l=3 = -2*Zval/r beyond r=  1.5038
All V_l potentials equal beyond r=  1.5227
This should be close to max(r_c) in ps generation
All pots = -2*Zval/r beyond r=  1.5227

VLOCAL1: 99.0% of the norm of Vloc inside     18.722 Ry
VLOCAL1: 99.9% of the norm of Vloc inside     42.668 Ry
atom: Maximum radius for 4*pi*r*r*local-pseudopot. charge    1.83678
atom: Maximum radius for r*vlocal+2*Zval:    1.58088
GHOST: No ghost state for L =  0
GHOST: No ghost state for L =  1
GHOST: No ghost state for L =  2
GHOST: No ghost state for L =  3

KBgen: Kleinman-Bylander projectors: 
   l= 0   rc=  1.704034   el= -1.009801   Ekb=  5.335044   kbcos=  0.316824
   l= 1   rc=  1.704034   el= -0.388707   Ekb= -3.785862   kbcos= -0.366464
   l= 2   rc=  1.791422   el=  0.001971   Ekb= -0.970471   kbcos= -0.009212
   l= 3   rc=  1.859892   el=  0.003065   Ekb= -0.399525   kbcos= -0.001223

KBgen: Total number of  Kleinman-Bylander projectors:   16
atom: -------------------------------------------------------------------------

atom: SANKEY-TYPE ORBITALS:
atom: Selected multiple-zeta basis: split     

SPLIT: Orbitals with angular momentum L= 0

SPLIT: Basis orbitals for state 2s

SPLIT: PAO cut-off radius determined from an
SPLIT: energy shift=  0.007350 Ry

   izeta = 1
                 lambda =    1.000000
                     rc =    4.632753
                 energy =   -1.002270
                kinetic =    0.855760
    potential(screened) =   -1.858031
       potential(ionic) =   -5.417575

   izeta = 2
                 rmatch =    3.431921
              splitnorm =    0.150000
                 energy =   -0.867111
                kinetic =    1.300804
    potential(screened) =   -2.167915
       potential(ionic) =   -5.962684

SPLIT: Orbitals with angular momentum L= 1

SPLIT: Basis orbitals for state 2p

SPLIT: PAO cut-off radius determined from an
SPLIT: energy shift=  0.007350 Ry

   izeta = 1
                 lambda =    1.000000
                     rc =    5.658549
                 energy =   -0.381140
                kinetic =    2.399701
    potential(screened) =   -2.780841
       potential(ionic) =   -6.206085

   izeta = 2
                 rmatch =    3.653288
              splitnorm =    0.150000
                 energy =   -0.249149
                kinetic =    3.542762
    potential(screened) =   -3.791911
       potential(ionic) =   -7.581078

POLgen: Perturbative polarization orbital with L=  2

POLgen: Polarization orbital for state 2p

   izeta = 1
                     rc =    5.658549
                 energy =    1.109913
                kinetic =    2.304789
    potential(screened) =   -1.194876
       potential(ionic) =   -4.013592
atom: Total number of Sankey-type orbitals: 13

atm_pop: Valence configuration (for local Pseudopot. screening):
 2s( 2.00)                                                            
 2p( 2.00)                                                            
Vna: chval, zval:    4.00000   4.00000

Vna:  Cut-off radius for the neutral-atom potential:   5.658549
comcore: Pseudo-core radius Rcore=  1.791422

atom: _________________________________________________________________________

prinput: Basis input ----------------------------------------------------------

PAO.BasisType split     

%block ChemicalSpeciesLabel
    1    7 N                       # Species index, atomic number, species label
    2    6 C                       # Species index, atomic number, species label
%endblock ChemicalSpeciesLabel

%block PAO.Basis                 # Define Basis set
N                     2                    # Species label, number of l-shells
 n=2   0   2                         # n, l, Nzeta 
   4.071      2.905   
   1.000      1.000   
 n=2   1   2 P   1                   # n, l, Nzeta, Polarization, NzetaPol
   4.973      3.054   
   1.000      1.000   
C                     2                    # Species label, number of l-shells
 n=2   0   2                         # n, l, Nzeta 
   4.633      3.432   
   1.000      1.000   
 n=2   1   2 P   1                   # n, l, Nzeta, Polarization, NzetaPol
   5.659      3.653   
   1.000      1.000   
%endblock PAO.Basis

prinput: ----------------------------------------------------------------------

coor:   Atomic-coordinates input format  =     Fractional

siesta: Atomic coordinates (Bohr) and species
siesta:      6.95932  17.38257   0.00000  1        1
siesta:     -0.02582  10.66124   0.00000  1        2
siesta:      4.63094  21.41544   0.00000  1        3
siesta:      2.30256  25.44831   0.00000  1        4
siesta:     -4.68258  18.72698   0.00000  1        5
siesta:     -9.33934  26.79272   0.00000  1        6
siesta:     -0.02582  29.48119   0.00000  1        7
siesta:     -2.35420  33.51406   0.00000  1        8
siesta:     -0.02582   2.59549   0.00000  2        9
siesta:     -0.02582   5.28395   0.00000  2       10
siesta:     -2.35420  38.89134   0.00000  2       11
siesta:     -2.35420  41.57980   0.00000  2       12
siesta:      2.30256  38.89134   0.00000  2       13
siesta:      2.30256  41.57980   0.00000  2       14
siesta:      4.63094  34.85847   0.00000  2       15
siesta:      4.63094  37.54693   0.00000  2       16
siesta:      6.95932  30.82560   0.00000  2       17
siesta:      6.95932  33.51406   0.00000  2       18
siesta:      9.28770  26.79272   0.00000  2       19
siesta:      9.28770  29.48119   0.00000  2       20
siesta:     -4.68258  34.85847   0.00000  2       21
siesta:     -4.68258  37.54693   0.00000  2       22
siesta:      2.30256   6.62836   0.00000  2       23
siesta:      2.30256   9.31683   0.00000  2       24
siesta:      4.63094  10.66124   0.00000  2       25
siesta:      4.63094  13.34970   0.00000  2       26
siesta:      6.95932  14.69411   0.00000  2       27
siesta:      9.28770  18.72698   0.00000  2       28
siesta:      9.28770  21.41544   0.00000  2       29
siesta:     11.61608  22.75985   0.00000  2       30
siesta:     11.61608  25.44831   0.00000  2       31
siesta:     -2.35420   6.62836   0.00000  2       32
siesta:     -2.35420   9.31683   0.00000  2       33
siesta:     -0.02582  13.34970   0.00000  2       34
siesta:      2.30256  14.69411   0.00000  2       35
siesta:      2.30256  17.38257   0.00000  2       36
siesta:      4.63094  18.72698   0.00000  2       37
siesta:      6.95932  22.75985   0.00000  2       38
siesta:      6.95932  25.44831   0.00000  2       39
siesta:     -4.68258  10.66124   0.00000  2       40
siesta:     -4.68258  13.34970   0.00000  2       41
siesta:     -2.35420  14.69411   0.00000  2       42
siesta:     -2.35420  17.38257   0.00000  2       43
siesta:     -0.02582  18.72698   0.00000  2       44
siesta:     -0.02582  21.41544   0.00000  2       45
siesta:      2.30256  22.75985   0.00000  2       46
siesta:     -7.01096  14.69411   0.00000  2       47
siesta:     -7.01096  17.38257   0.00000  2       48
siesta:     -4.68258  21.41544   0.00000  2       49
siesta:     -2.35420  22.75985   0.00000  2       50
siesta:     -2.35420  25.44831   0.00000  2       51
siesta:     -9.33934  18.72698   0.00000  2       52
siesta:     -9.33934  21.41544   0.00000  2       53
siesta:     -7.01096  22.75985   0.00000  2       54
siesta:     -7.01096  25.44831   0.00000  2       55
siesta:    -11.66772  22.75985   0.00000  2       56
siesta:    -11.66772  25.44831   0.00000  2       57
siesta:     -9.33934  29.48119   0.00000  2       58
siesta:      4.63094  26.79272   0.00000  2       59
siesta:      4.63094  29.48119   0.00000  2       60
siesta:     -0.02582  26.79272   0.00000  2       61
siesta:     -4.68258  26.79272   0.00000  2       62
siesta:     -4.68258  29.48119   0.00000  2       63
siesta:      2.30256  30.82560   0.00000  2       64
siesta:      2.30256  33.51406   0.00000  2       65
siesta:     -2.35420  30.82560   0.00000  2       66
siesta:     -7.01096  30.82560   0.00000  2       67
siesta:     -7.01096  33.51406   0.00000  2       68
siesta:     -0.02582  34.85847   0.00000  2       69
siesta:     -0.02582  37.54693   0.00000  2       70
siesta:     -0.02582  42.92421   0.00000  2       71
siesta:     -0.02582  45.61267   0.00000  2       72

siesta: System type = slab      

initatomlists: Number of atoms, orbitals, and projectors:     72   936  1152

siesta: ******************** Simulation parameters ****************************
siesta:
siesta: The following are some of the parameters of the simulation.
siesta: A complete list of the parameters used, including default values,
siesta: can be found in file out.fdf
siesta:
redata: Non-Collinear-spin run           =     F
redata: SpinPolarized (Up/Down) run      =     F
redata: Number of spin components        =     1
redata: Long output                      =     F
redata: Number of Atomic Species         =        2
redata: Charge density info will appear in .RHO file
redata: Write Mulliken Pop.              =     NO
redata: Mesh Cutoff                      =   200.0000  Ry
redata: Net charge of the system         =     0.0000 |e|
redata: Max. number of SCF Iter          =      500
redata: SCF convergence failure will abort job
redata: Performing Pulay mixing using    =    10 iterations
redata: Mix DM in first SCF step ?       =     F
redata: Write Pulay info on disk?        =     F
redata: Discard 1st Pulay DM after  kick =     F
redata: New DM Mixing Weight             =     0.0500
redata: New DM Occupancy tolerance       = 0.000000000001
redata: No kicks to SCF
redata: DM Mixing Weight for Kicks       =     0.5000
redata: DM Tolerance for SCF             =     0.000100
redata: Require Energy convergence for SCF =     F
redata: DM Energy tolerance for SCF      =     0.000100 eV
redata: Require Harris convergence for SCF =     F
redata: DM Harris energy tolerance for SCF =     0.000100 eV
redata: Using Saved Data (generic)   =     F
redata: Use continuation files for DM    =     T
redata: Neglect nonoverlap interactions  =     F
redata: Method of Calculation            =     Diagonalization
redata: Divide and Conquer               =     T
redata: Electronic Temperature           =     0.0019  Ry
redata: Fix the spin of the system       =     F
redata: Dynamics option                  =     Verlet MD run
redata: Initial MD time step             =        1
redata:   Final MD time step             =        1
redata: Length of MD time step           =     1.0000  fs
redata: Initial Temperature of MD run    =     0.0000  K
redata: Perform a MD quench              =     F
redata: ***********************************************************************
Total number of electrons:   296.000000
Total ionic charge:   296.000000

* ProcessorY, Blocksize:    3  24

k-point displ. along   1 input, could be:     0.50    0.00
k-point displ. along   2 input, could be:     0.50    0.00
 Kpoints in:          231 . Kpoints trimmed:          231

siesta: k-grid: Number of k-points =   231
siesta: k-grid: Cutoff (effective) =     5.000 Ang
siesta: k-grid: Supercell and displacements
siesta: k-grid:   21   0   0      0.500
siesta: k-grid:    0  21   0      0.500
siesta: k-grid:    0   0   1      0.000
Naive supercell factors:     2    2    2

superc: Internal auxiliary supercell:     2 x     2 x     2  =       8
superc: Number of atoms, orbitals, and projectors:    576   7488   9216

* Maximum dynamic memory allocated =     4 MB

siesta:                 ==============================
                            Begin MD step =      1
                        ==============================

superc: Internal auxiliary supercell:     2 x     2 x     2  =       8
superc: Number of atoms, orbitals, and projectors:    576   7488   9216

outcell: Unit cell vectors (Ang):
       12.804619    7.392750    0.000000
        0.000000   14.785500    0.000000
        0.000000    0.000000   10.000000

outcell: Cell vector modules (Ang)   :   14.785500   14.785500   10.000000
outcell: Cell angles (23,13,12) (deg):     90.0000     90.0000     60.0000
outcell: Cell volume (Ang**3)        :   1893.2269
New_DM. Step:     1
Initializing Density Matrix...

InitMesh: MESH =   120 x   120 x    90 =     1296000
InitMesh: Mesh cutoff (required, used) =   200.000   223.865 Ry

* Maximum dynamic memory allocated =   137 MB

stepf: Fermi-Dirac step function

siesta: Program's energy decomposition (eV):
siesta: Ebs     =     -6070.233414
siesta: Eions   =     19688.985824
siesta: Ena     =      4811.134255
siesta: Ekin    =      7049.557044
siesta: Enl     =       395.186693
siesta: DEna    =        -0.000015
siesta: DUscf   =         0.000000
siesta: DUext   =         0.000000
siesta: Exc     =     -4370.764032
siesta: eta*DQ  =         0.000000
siesta: Emadel  =         0.000000
siesta: Emeta   =         0.000000
siesta: Emolmec =         0.000000
siesta: Ekinion =         0.000000
siesta: Eharris =    -11467.166034
siesta: Etot    =    -11803.871880
siesta: FreeEng =    -11803.871880

siesta: iscf   Eharris(eV)      E_KS(eV)   FreeEng(eV)   dDmax  Ef(eV)
siesta:    1   -11467.1660   -11803.8719   -11803.8719  5.8851 -7.2658
timer: Routine,Calls,Time,% = IterSCF        1    2990.716  99.59
elaps: Routine,Calls,Wall,% = IterSCF        1     249.818  99.59
siesta:    2   -15252.5413   -10881.0602   -10881.0859  9.6699 -3.3899
siesta:    3   -11437.5000   -11541.5810   -11541.5966  1.9075 -4.0635
siesta:    4   -11378.3112   -11470.1788   -11470.2369  1.2023 -4.5565
siesta:    5   -11352.9031   -11423.0815   -11423.1021  0.8222 -4.3377
siesta:    6   -11331.1963   -11401.1994   -11401.2571  0.7350 -3.9220
siesta:    7   -11318.1342   -11381.8607   -11381.9069  0.6281 -4.1652
siesta:    8   -11316.4817   -11371.4814   -11371.4905  0.5893 -4.1680
siesta:    9   -11315.1626   -11357.6834   -11357.7363  0.5167 -4.1718
siesta:   10   -11314.6253   -11337.9264   -11337.9516  0.3384 -4.1350
siesta:   11   -11314.6529   -11323.3007   -11323.3480  0.2666 -4.1234
siesta:   12   -11314.9136   -11313.8917   -11313.9447  0.4129 -4.0704
siesta:   13   -11314.1723   -11312.1238   -11312.1623  0.2435 -4.1171
siesta:   14   -11313.3642   -11313.0493   -11313.1038  0.1920 -4.1762
siesta:   15   -11313.1555   -11311.9884   -11312.0590  0.1479 -4.2006
siesta:   16   -11313.0145   -11311.0306   -11311.0559  0.1267 -4.2084
siesta:   17   -11312.9126   -11310.3565   -11310.4016  0.1033 -4.2092
siesta:   18   -11312.8482   -11310.0700   -11310.1110  0.0618 -4.2212
siesta:   19   -11312.8432   -11311.4009   -11311.4585  0.0733 -4.2185
siesta:   20   -11312.8168   -11312.1148   -11312.1600  0.0437 -4.2289
siesta:   21   -11312.8080   -11312.5334   -11312.5903  0.0401 -4.2299
siesta:   22   -11312.8013   -11313.1365   -11313.1942  0.0410 -4.2301
siesta:   23   -11312.7946   -11313.5129   -11313.5712  0.0288 -4.2275
siesta:   24   -11312.7928   -11313.3467   -11313.4082  0.0170 -4.2247
siesta:   25   -11312.7922   -11312.9586   -11313.0214  0.0068 -4.2224
siesta:   26   -11312.7910   -11312.6201   -11312.6825  0.0058 -4.2234
siesta:   27   -11312.7913   -11312.5992   -11312.6620  0.0042 -4.2229
siesta:   28   -11312.7904   -11312.5852   -11312.6474  0.0037 -4.2230
siesta:   29   -11312.7914   -11312.5321   -11312.5951  0.0038 -4.2225
siesta:   30   -11312.7910   -11312.5298   -11312.5919  0.0029 -4.2222
siesta:   31   -11312.7914   -11312.6942   -11312.7566  0.0030 -4.2227
siesta:   32   -11312.7910   -11312.7818   -11312.8438  0.0015 -4.2230
siesta:   33   -11312.7908   -11312.8101   -11312.8724  0.0008 -4.2234
siesta:   34   -11312.7908   -11312.8063   -11312.8688  0.0006 -4.2234
siesta:   35   -11312.7908   -11312.8065   -11312.8690  0.0004 -4.2234
siesta:   36   -11312.7908   -11312.8056   -11312.8681  0.0002 -4.2234
siesta:   37   -11312.7908   -11312.8026   -11312.8651  0.0001 -4.2233
siesta:   38   -11312.7908   -11312.8004   -11312.8629  0.0001 -4.2233

siesta: E_KS(eV) =           -11312.7957

siesta: E_KS - E_eggbox =    -11312.7957

siesta: Atomic forces (eV/Ang):
----------------------------------------
   Tot   -0.322713   -0.170386    0.000000
----------------------------------------
   Max  678.073343
   Res  172.719053    sqrt( Sum f_i^2 / 3N )
----------------------------------------
   Max  678.073343    constrained

Stress-tensor-Voigt (kbar):     -675.35    -3029.57       -0.12        6.31        0.00        0.00
(Free)E + p*V (eV/cell)    -9853.5055
Target enthalpy (eV/cell)   -11312.8582

siesta: Stress tensor (static) (eV/Ang**3):
        -0.421518    0.003940    0.000000
         0.003940   -1.890891    0.000000
         0.000000    0.000000   -0.000075

siesta: Pressure (static):       1235.01631715  kBar

siesta: Stress tensor (total) (eV/Ang**3):
        -0.421518    0.003940    0.000000
         0.003940   -1.890891    0.000000
         0.000000    0.000000   -0.000075

siesta: Pressure (total):       1235.01631715  kBar

siesta: Temp_ion =       0.000 K

* Maximum dynamic memory allocated =   149 MB
Computing bands...

siesta: Program's energy decomposition (eV):
siesta: Ebs     =     -4798.871885
siesta: Eions   =     19688.985824
siesta: Ena     =      4811.134255
siesta: Ekin    =     10105.411947
siesta: Enl     =     -1310.134058
siesta: DEna    =      -792.972735
siesta: DUscf   =       106.375846
siesta: DUext   =         0.000000
siesta: Exc     =     -4543.625114
siesta: eta*DQ  =         0.000000
siesta: Emadel  =         0.000000
siesta: Emeta   =         0.000000
siesta: Emolmec =         0.000000
siesta: Ekinion =         0.000000
siesta: Eharris =    -11312.790786
siesta: Etot    =    -11312.795685
siesta: FreeEng =    -11312.858203

siesta: Final energy (eV):
siesta:  Band Struct. =   -4798.871885
siesta:       Kinetic =   10105.411947
siesta:       Hartree =   32835.030059
siesta:    Ext. field =       0.000000
siesta:   Exch.-corr. =   -4543.625114
siesta:  Ion-electron =  -75416.103274
siesta:       Ion-ion =   25706.490698
siesta:       Ekinion =       0.000000
siesta:         Total =  -11312.795685

siesta: Atomic forces (eV/Ang):
siesta:      1    0.290544    0.656078    0.000000
siesta:      2    1.391718  656.135940    0.000000
siesta:      3    0.355077    0.402660    0.000000
siesta:      4    1.939003   -0.602648    0.000000
siesta:      5    0.963796    3.601663    0.000000
siesta:      6   -0.731406    1.944867    0.000000
siesta:      7    4.014552 -678.073343    0.000000
siesta:      8   -8.290636 -674.402756    0.000000
siesta:      9   -4.602105  644.631017    0.000000
siesta:     10   -2.009549 -119.500968    0.000000
siesta:     11   -0.174278  127.312511    0.000000
siesta:     12   -9.443036 -550.536046    0.000000
siesta:     13   -0.373528  126.278093    0.000000
siesta:     14   10.200129 -550.268579    0.000000
siesta:     15   25.667797    6.284039    0.000000
siesta:     16   29.749481 -550.939095    0.000000
siesta:     17    1.955161   -0.052039    0.000000
siesta:     18   -2.517050    1.867678    0.000000
siesta:     19    2.286253    2.002533    0.000000
siesta:     20   -1.100398    0.379030    0.000000
siesta:     21  -25.644010   10.014771    0.000000
siesta:     22  -28.059785 -549.780683    0.000000
siesta:     23   15.660214  550.178676    0.000000
siesta:     24    0.090387 -130.734091    0.000000
siesta:     25   34.177191  554.067644    0.000000
siesta:     26   26.455769   -5.904180    0.000000
siesta:     27   -1.648315    0.145190    0.000000
siesta:     28   -0.864710   -1.793767    0.000000
siesta:     29    0.656009   -1.885346    0.000000
siesta:     30   -0.134597    6.898993    0.000000
siesta:     31   -0.268632   -7.262579    0.000000
siesta:     32  -24.118453  650.670896    0.000000
siesta:     33   -0.780493 -125.544373    0.000000
siesta:     34   -0.351206 -119.480534    0.000000
siesta:     35   22.315557  559.663306    0.000000
siesta:     36   22.898618   -4.702633    0.000000
siesta:     37   -1.313459    2.267475    0.000000
siesta:     38   -0.405509    0.952553    0.000000
siesta:     39   -0.915310   -1.583838    0.000000
siesta:     40  -34.345448  553.720449    0.000000
siesta:     41  -26.858950   -6.288311    0.000000
siesta:     42  -22.446517  560.400933    0.000000
siesta:     43  -23.262286   -6.031645    0.000000
siesta:     44    0.335731  567.383876    0.000000
siesta:     45    1.805909    0.411548    0.000000
siesta:     46   -0.272657    0.140751    0.000000
siesta:     47    2.898402   -1.219614    0.000000
siesta:     48   -1.437713    0.060212    0.000000
siesta:     49    0.559308   -0.707947    0.000000
siesta:     50   -1.160011    0.213822    0.000000
siesta:     51   -0.278878   -0.182897    0.000000
siesta:     52    1.620690   -0.490876    0.000000
siesta:     53   -2.077625   -2.213635    0.000000
siesta:     54   -0.474882    0.750320    0.000000
siesta:     55   -0.444817   -0.437944    0.000000
siesta:     56    0.319367    6.924334    0.000000
siesta:     57    1.066334   -5.451320    0.000000
siesta:     58   -0.094309   -1.346928    0.000000
siesta:     59   -0.683151    0.334837    0.000000
siesta:     60   -1.685708   -3.675435    0.000000
siesta:     61   -0.138779   -0.283052    0.000000
siesta:     62   -0.541003    0.193495    0.000000
siesta:     63    1.139520   -2.352310    0.000000
siesta:     64   26.372789    8.513885    0.000000
siesta:     65   15.138541 -558.847633    0.000000
siesta:     66  -26.181314    8.166670    0.000000
siesta:     67   -0.715424   -0.266294    0.000000
siesta:     68    1.864974    1.682917    0.000000
siesta:     69    5.267117  125.790095    0.000000
siesta:     70   -3.056085 -657.012438    0.000000
siesta:     71   -0.080438  126.968989    0.000000
siesta:     72    0.203813 -548.327356    0.000000
siesta: ----------------------------------------
siesta:    Tot   -0.322713   -0.170386    0.000000

siesta: Stress tensor (static) (eV/Ang**3):
siesta:    -0.421518    0.003940    0.000000
siesta:     0.003940   -1.890891    0.000000
siesta:     0.000000    0.000000   -0.000075

siesta: Cell volume =       1893.226884 Ang**3

siesta: Pressure (static):
siesta:                Solid            Molecule  Units
siesta:           0.00839530          0.13548861  Ry/Bohr**3
siesta:           0.77082822         12.44010335  eV/Ang**3
siesta:        1235.01631715      19931.45834536  kBar
(Free)E+ p_basis*V_orbitals  =      -11283.264293
(Free)Eharris+ p_basis*V_orbitals  =      -11283.254678

siesta: Electric dipole (a.u.)  =    0.000000    0.000000    0.000000
siesta: Electric dipole (Debye) =    0.000000    0.000000    0.000000

* Maximum dynamic memory allocated : Node    0 =   149 MB
* Maximum dynamic memory allocated : Node    1 =    59 MB
* Maximum dynamic memory allocated : Node    2 =    60 MB
* Maximum dynamic memory allocated : Node    3 =   136 MB
* Maximum dynamic memory allocated : Node    4 =   146 MB
* Maximum dynamic memory allocated : Node    5 =    54 MB
* Maximum dynamic memory allocated : Node    6 =    55 MB
* Maximum dynamic memory allocated : Node    7 =   140 MB
* Maximum dynamic memory allocated : Node    8 =   132 MB
* Maximum dynamic memory allocated : Node    9 =    53 MB
* Maximum dynamic memory allocated : Node   10 =    55 MB
* Maximum dynamic memory allocated : Node   11 =   127 MB

* Maximum memory occured during matrixMtoO                    

timer: CPU execution times:
timer:  Routine       Calls   Time/call    Tot.time        %
timer:  siesta            1  111148.698  111148.698   100.00
timer:  Setup             1       3.359       3.359     0.00
timer:  bands             3     225.213     675.638     0.61
timer:  writewave         1       0.024       0.024     0.00
timer:  KSV_init          1       0.003       0.003     0.00
timer:  IterMD            1  110462.721  110462.721    99.38
timer:  hsparse           1       0.167       0.167     0.00
timer:  overlap           1       5.992       5.992     0.01
timer:  IterSCF          38    2903.594  110336.553    99.27
timer:  kinefsm           2       3.040       6.079     0.01
timer:  nlefsm            2      18.830      37.661     0.03
timer:  DHSCF            39      63.209    2465.162     2.22
timer:  DHSCF1            1       0.899       0.899     0.00
timer:  DHSCF2            1      24.839      24.839     0.02
timer:  REORD           314       0.002       0.734     0.00
timer:  POISON           40       0.449      17.961     0.02
timer:  DHSCF3           39      61.986    2417.454     2.17
timer:  rhoofd           39      12.962     505.513     0.45
timer:  cellXC           39       2.418      94.309     0.08
timer:  vmat             39      29.191    1138.458     1.02
timer:  MolMec            2       0.000       0.000     0.00
timer:  diagon           38    2839.228  107890.667    97.07
timer:  c-eigval       8899       5.565   49520.693    44.55
timer:  c-buildHS      8899       0.033     296.098     0.27
timer:  cdiag         17677       5.657   99999.543    89.97
timer:  cdiag1        17677       0.260    4597.050     4.14
timer:  cdiag2        17677       1.832   32391.697    29.14
timer:  cdiag3        17677       3.364   59471.541    53.51
timer:  cdiag4        17677       0.088    1551.777     1.40
timer:  c-eigvec       8778       5.813   51023.622    45.91
timer:  c-buildD       8778       0.908    7974.272     7.17
timer:  DHSCF4            1      21.725      21.725     0.02
timer:  dfscf             1      20.285      20.285     0.02
timer:  overfsm           1       0.289       0.289     0.00
timer:  optical           1       6.370       6.370     0.01
  

elaps: ELAPSED times:
elaps:  Routine       Calls   Time/call    Tot.time        %
elaps:  siesta            1    9284.153    9284.153   100.00
elaps:  Setup             1       0.279       0.279     0.00
elaps:  bands             3      18.827      56.481     0.61
elaps:  writewave         1       0.002       0.002     0.00
elaps:  KSV_init          1       0.000       0.000     0.00
elaps:  IterMD            1    9226.856    9226.856    99.38
elaps:  hsparse           1       0.016       0.016     0.00
elaps:  overlap           1       0.711       0.711     0.01
elaps:  IterSCF          38     242.535    9216.318    99.27
elaps:  kinefsm           2       0.364       0.727     0.01
elaps:  nlefsm            2       1.660       3.320     0.04
elaps:  DHSCF            39       5.327     207.740     2.24
elaps:  DHSCF1            1       0.077       0.077     0.00
elaps:  DHSCF2            1       2.073       2.073     0.02
elaps:  REORD           314       0.000       0.093     0.00
elaps:  POISON           40       0.038       1.506     0.02
elaps:  DHSCF3           39       5.179     201.967     2.18
elaps:  rhoofd           39       2.293      89.413     0.96
elaps:  cellXC           39       0.202       7.859     0.08
elaps:  vmat             39       2.439      95.136     1.02
elaps:  MolMec            2       0.000       0.000     0.00
elaps:  diagon           38     237.163    9012.209    97.07
elaps:  c-eigval       8899       0.465    4136.365    44.55
elaps:  c-buildHS      8899       0.004      31.620     0.34
elaps:  cdiag         17677       0.468    8280.879    89.19
elaps:  cdiag1        17677       0.021     375.730     4.05
elaps:  cdiag2        17677       0.153    2708.098    29.17
elaps:  cdiag3        17677       0.281    4974.852    53.58
elaps:  cdiag4        17677       0.007     124.596     1.34
elaps:  c-eigvec       8778       0.479    4202.651    45.27
elaps:  c-buildD       8778       0.083     725.045     7.81
elaps:  DHSCF4            1       3.583       3.583     0.04
elaps:  dfscf             1       3.391       3.391     0.04
elaps:  overfsm           1       0.031       0.031     0.00
elaps:  optical           1       0.000       0.000     0.00
  
>> End of run:   7-MAY-2016  19:32:49
