Siesta Version:                                        siesta-3.2-pl-3
Architecture  : x86_64-unknown-linux-gnu--unknown
Compiler flags: mpiifort -g -O2 -fPIC -xSSE4.1 -fp-model source -shared-intel 
PARALLEL version

* Running on   12 nodes in parallel
>> Start of run:   6-APR-2016  14:58:06

                           ***********************       
                           *  WELCOME TO SIESTA  *       
                           ***********************       

reinit: Reading from standard input
************************** Dump of input data file ****************************
#(1) General system descriptors
SystemName            GRP_doping    # Descriptive name of the system
SystemLabel           GRP_doping    # Short name for naming files
%include STRUCT.fdf
%include KPT.fdf
%include BASIS.fdf
#%include TS.fdf # for transiesta calculation
#(4) DFT, Grid, SCF
XC.functional         GGA           # LDA or GGA (default = LDA)
XC.authors            PBE           # CA (Ceperley-Aldr) = PZ
                                    #    (Perdew-Zunger) - LDA - Default
                                    # PW92 (Perdew-Wang-92) - LDA
                                    # PBE (Perdew-Burke-Ernzerhof) - GGA
MeshCutoff            200.000000    Ry      # Default: 50.0 Ry ~ 0.444 Bohr
                                    #         100.0 Ry ~ 0.314 Bohr
MaxSCFIterations      500           # Default: 50
DM.MixingWeight       0.05          # Default: 0.25
DM.NumberPulay        10            # Default: 0
DM.PulayOnFile        F             # SystemLabel.P1, SystemLabel.P2
DM.Tolerance          1.d-4         # Default: 1.d-4
DM.UseSaveDM          .true.        # because of the bug
SCFMustConverge       .true.
NeglNonOverlapInt     F             # Default: F
Diag.ParallelOverK    .true.
#(5) Eigenvalue problem: order-N or diagonalization
SolutionMethod        Diagon        # or Transiesta
ElectronicTemperature 300.0 K       # Default: 300.0 K
#(6) Molecular dynamics and relaxations
#MD.TypeOfRun          CG            # Type of dynamics:
#MD.VariableCell       F
#MD.NumCGsteps         0           # 0 for single-point / 100 for gopt
#MD.MaxCGDispl         0.2 Bohr      # Default: 0.2 Bohr
#MD.MaxForceTol        0.02 eV/Ang   # Default: 0.04 eV/Ang
#MD.MaxStressTol       1.0 GPa       # Default: 1.0 GPa
************************** End of input data file *****************************

reinit: -----------------------------------------------------------------------
reinit: System Name: GRP_doping
reinit: -----------------------------------------------------------------------
reinit: System Label: GRP_doping                                                  
reinit: -----------------------------------------------------------------------

initatom: Reading input for the pseudopotentials and atomic orbitals ----------
 Species number:            1  Label: N Atomic number:           7
 Species number:            2  Label: C Atomic number:           6
Ground state valence configuration:   2s02  2p03
Reading pseudopotential information in formatted form from N.psf

Valence configuration for pseudopotential generation:
2s( 2.00) rc: 1.48
2p( 3.00) rc: 1.48
3d( 0.00) rc: 1.48
4f( 0.00) rc: 1.48
Ground state valence configuration:   2s02  2p02
Reading pseudopotential information in formatted form from C.psf

Valence configuration for pseudopotential generation:
2s( 2.00) rc: 1.54
2p( 2.00) rc: 1.54
3d( 0.00) rc: 1.54
4f( 0.00) rc: 1.54
For N, standard SIESTA heuristics set lmxkb to 3
 (one more than the basis l, including polarization orbitals).
Use PS.lmax or PS.KBprojectors blocks to override.
For C, standard SIESTA heuristics set lmxkb to 3
 (one more than the basis l, including polarization orbitals).
Use PS.lmax or PS.KBprojectors blocks to override.

<basis_specs>
===============================================================================
N                    Z=   7    Mass=  14.010        Charge= 0.17977+309
Lmxo=1 Lmxkb= 3    BasisType=split      Semic=F
L=0  Nsemic=0  Cnfigmx=2
          n=1  nzeta=2  polorb=0
            splnorm:   0.15000    
               vcte:    0.0000    
               rinn:    0.0000    
                rcs:    0.0000      0.0000    
            lambdas:    1.0000      1.0000    
L=1  Nsemic=0  Cnfigmx=2
          n=1  nzeta=2  polorb=1
            splnorm:   0.15000    
               vcte:    0.0000    
               rinn:    0.0000    
                rcs:    0.0000      0.0000    
            lambdas:    1.0000      1.0000    
-------------------------------------------------------------------------------
L=0  Nkbl=1  erefs: 0.17977+309
L=1  Nkbl=1  erefs: 0.17977+309
L=2  Nkbl=1  erefs: 0.17977+309
L=3  Nkbl=1  erefs: 0.17977+309
===============================================================================
</basis_specs>

atom: Called for N                     (Z =   7)

read_vps: Pseudopotential generation method:
read_vps: ATM3      Troullier-Martins                       
Total valence charge:    5.00000

read_vps: Pseudopotential includes a core correction:
read_vps: Pseudo-core for xc-correction

xc_check: Exchange-correlation functional:
xc_check: GGA Perdew, Burke & Ernzerhof 1996
V l=0 = -2*Zval/r beyond r=  1.4606
V l=1 = -2*Zval/r beyond r=  1.4606
V l=2 = -2*Zval/r beyond r=  1.4606
V l=3 = -2*Zval/r beyond r=  1.4606
All V_l potentials equal beyond r=  1.4606
This should be close to max(r_c) in ps generation
All pots = -2*Zval/r beyond r=  1.4606

VLOCAL1: 99.0% of the norm of Vloc inside     20.347 Ry
VLOCAL1: 99.9% of the norm of Vloc inside     46.372 Ry
atom: Maximum radius for 4*pi*r*r*local-pseudopot. charge    1.76189
atom: Maximum radius for r*vlocal+2*Zval:    1.53550
GHOST: No ghost state for L =  0
GHOST: No ghost state for L =  1
GHOST: No ghost state for L =  2
GHOST: No ghost state for L =  3

KBgen: Kleinman-Bylander projectors: 
   l= 0   rc=  1.634559   el= -1.363963   Ekb=  5.296955   kbcos=  0.335621
   l= 1   rc=  1.614250   el= -0.521451   Ekb= -5.259161   kbcos= -0.433408
   l= 2   rc=  1.718383   el=  0.001991   Ekb= -1.271464   kbcos= -0.007566
   l= 3   rc=  1.761893   el=  0.003093   Ekb= -0.494769   kbcos= -0.001015

KBgen: Total number of  Kleinman-Bylander projectors:   16
atom: -------------------------------------------------------------------------

atom: SANKEY-TYPE ORBITALS:
atom: Selected multiple-zeta basis: split     

SPLIT: Orbitals with angular momentum L= 0

SPLIT: Basis orbitals for state 2s

SPLIT: PAO cut-off radius determined from an
SPLIT: energy shift=  0.007350 Ry

   izeta = 1
                 lambda =    1.000000
                     rc =    4.071465
                 energy =   -1.356470
                kinetic =    1.176977
    potential(screened) =   -2.533447
       potential(ionic) =   -8.057990

   izeta = 2
                 rmatch =    2.905100
              splitnorm =    0.150000
                 energy =   -1.158343
                kinetic =    1.813009
    potential(screened) =   -2.971352
       potential(ionic) =   -8.901931

SPLIT: Orbitals with angular momentum L= 1

SPLIT: Basis orbitals for state 2p

SPLIT: PAO cut-off radius determined from an
SPLIT: energy shift=  0.007350 Ry

   izeta = 1
                 lambda =    1.000000
                     rc =    4.972977
                 energy =   -0.513884
                kinetic =    3.441732
    potential(screened) =   -3.955616
       potential(ionic) =   -9.287901

   izeta = 2
                 rmatch =    3.054066
              splitnorm =    0.150000
                 energy =   -0.318226
                kinetic =    5.125348
    potential(screened) =   -5.443573
       potential(ionic) =  -11.380999

POLgen: Perturbative polarization orbital with L=  2

POLgen: Polarization orbital for state 2p

   izeta = 1
                     rc =    4.972977
                 energy =    1.607437
                kinetic =    3.268125
    potential(screened) =   -1.660688
       potential(ionic) =   -5.973652
atom: Total number of Sankey-type orbitals: 13

atm_pop: Valence configuration (for local Pseudopot. screening):
 2s( 2.00)                                                            
 2p( 3.00)                                                            
Vna: chval, zval:    5.00000   5.00000

Vna:  Cut-off radius for the neutral-atom potential:   4.972977
comcore: Pseudo-core radius Rcore=  1.554824

atom: _________________________________________________________________________

<basis_specs>
===============================================================================
C                    Z=   6    Mass=  12.010        Charge= 0.17977+309
Lmxo=1 Lmxkb= 3    BasisType=split      Semic=F
L=0  Nsemic=0  Cnfigmx=2
          n=1  nzeta=2  polorb=0
            splnorm:   0.15000    
               vcte:    0.0000    
               rinn:    0.0000    
                rcs:    0.0000      0.0000    
            lambdas:    1.0000      1.0000    
L=1  Nsemic=0  Cnfigmx=2
          n=1  nzeta=2  polorb=1
            splnorm:   0.15000    
               vcte:    0.0000    
               rinn:    0.0000    
                rcs:    0.0000      0.0000    
            lambdas:    1.0000      1.0000    
-------------------------------------------------------------------------------
L=0  Nkbl=1  erefs: 0.17977+309
L=1  Nkbl=1  erefs: 0.17977+309
L=2  Nkbl=1  erefs: 0.17977+309
L=3  Nkbl=1  erefs: 0.17977+309
===============================================================================
</basis_specs>

atom: Called for C                     (Z =   6)

read_vps: Pseudopotential generation method:
read_vps: ATM3      Troullier-Martins                       
Total valence charge:    4.00000

read_vps: Pseudopotential includes a core correction:
read_vps: Pseudo-core for xc-correction

xc_check: Exchange-correlation functional:
xc_check: GGA Perdew, Burke & Ernzerhof 1996
V l=0 = -2*Zval/r beyond r=  1.5227
V l=1 = -2*Zval/r beyond r=  1.5227
V l=2 = -2*Zval/r beyond r=  1.5227
V l=3 = -2*Zval/r beyond r=  1.5038
All V_l potentials equal beyond r=  1.5227
This should be close to max(r_c) in ps generation
All pots = -2*Zval/r beyond r=  1.5227

VLOCAL1: 99.0% of the norm of Vloc inside     18.722 Ry
VLOCAL1: 99.9% of the norm of Vloc inside     42.668 Ry
atom: Maximum radius for 4*pi*r*r*local-pseudopot. charge    1.83678
atom: Maximum radius for r*vlocal+2*Zval:    1.58088
GHOST: No ghost state for L =  0
GHOST: No ghost state for L =  1
GHOST: No ghost state for L =  2
GHOST: No ghost state for L =  3

KBgen: Kleinman-Bylander projectors: 
   l= 0   rc=  1.704034   el= -1.009801   Ekb=  5.335044   kbcos=  0.316824
   l= 1   rc=  1.704034   el= -0.388707   Ekb= -3.785862   kbcos= -0.366464
   l= 2   rc=  1.791422   el=  0.001971   Ekb= -0.970471   kbcos= -0.009212
   l= 3   rc=  1.859892   el=  0.003065   Ekb= -0.399525   kbcos= -0.001223

KBgen: Total number of  Kleinman-Bylander projectors:   16
atom: -------------------------------------------------------------------------

atom: SANKEY-TYPE ORBITALS:
atom: Selected multiple-zeta basis: split     

SPLIT: Orbitals with angular momentum L= 0

SPLIT: Basis orbitals for state 2s

SPLIT: PAO cut-off radius determined from an
SPLIT: energy shift=  0.007350 Ry

   izeta = 1
                 lambda =    1.000000
                     rc =    4.632753
                 energy =   -1.002270
                kinetic =    0.855760
    potential(screened) =   -1.858031
       potential(ionic) =   -5.417575

   izeta = 2
                 rmatch =    3.431921
              splitnorm =    0.150000
                 energy =   -0.867111
                kinetic =    1.300804
    potential(screened) =   -2.167915
       potential(ionic) =   -5.962684

SPLIT: Orbitals with angular momentum L= 1

SPLIT: Basis orbitals for state 2p

SPLIT: PAO cut-off radius determined from an
SPLIT: energy shift=  0.007350 Ry

   izeta = 1
                 lambda =    1.000000
                     rc =    5.658549
                 energy =   -0.381140
                kinetic =    2.399701
    potential(screened) =   -2.780841
       potential(ionic) =   -6.206085

   izeta = 2
                 rmatch =    3.653288
              splitnorm =    0.150000
                 energy =   -0.249149
                kinetic =    3.542762
    potential(screened) =   -3.791911
       potential(ionic) =   -7.581078

POLgen: Perturbative polarization orbital with L=  2

POLgen: Polarization orbital for state 2p

   izeta = 1
                     rc =    5.658549
                 energy =    1.109913
                kinetic =    2.304789
    potential(screened) =   -1.194876
       potential(ionic) =   -4.013592
atom: Total number of Sankey-type orbitals: 13

atm_pop: Valence configuration (for local Pseudopot. screening):
 2s( 2.00)                                                            
 2p( 2.00)                                                            
Vna: chval, zval:    4.00000   4.00000

Vna:  Cut-off radius for the neutral-atom potential:   5.658549
comcore: Pseudo-core radius Rcore=  1.791422

atom: _________________________________________________________________________

prinput: Basis input ----------------------------------------------------------

PAO.BasisType split     

%block ChemicalSpeciesLabel
    1    7 N                       # Species index, atomic number, species label
    2    6 C                       # Species index, atomic number, species label
%endblock ChemicalSpeciesLabel

%block PAO.Basis                 # Define Basis set
N                     2                    # Species label, number of l-shells
 n=2   0   2                         # n, l, Nzeta 
   4.071      2.905   
   1.000      1.000   
 n=2   1   2 P   1                   # n, l, Nzeta, Polarization, NzetaPol
   4.973      3.054   
   1.000      1.000   
C                     2                    # Species label, number of l-shells
 n=2   0   2                         # n, l, Nzeta 
   4.633      3.432   
   1.000      1.000   
 n=2   1   2 P   1                   # n, l, Nzeta, Polarization, NzetaPol
   5.659      3.653   
   1.000      1.000   
%endblock PAO.Basis

prinput: ----------------------------------------------------------------------

coor:   Atomic-coordinates input format  =     Cartesian coordinates
coor:                                          (in Angstroms)

siesta: Atomic coordinates (Bohr) and species
siesta:      2.23554   1.32097   0.00000  1        1
siesta:     32.50328  21.48508   0.00000  1        2
siesta:     34.83116  17.45226   0.00000  1        3
siesta:     30.17465   9.38661   0.00000  1        4
siesta:      6.89168   1.32097   0.00000  1        5
siesta:     11.54782   1.32097   0.00000  1        6
siesta:     16.20396   1.32097   0.00000  1        7
siesta:     20.86199   1.32097   0.00000  1        8
siesta:     25.51813   1.32097   0.00000  1        9
siesta:      4.56380   5.35379   0.00000  1       10
siesta:     13.87608   5.35379   0.00000  1       11
siesta:     23.19025   5.35379   0.00000  1       12
siesta:      6.89205   9.38661   0.00000  1       13
siesta:     11.54820   9.38661   0.00000  1       14
siesta:     16.20434   9.38661   0.00000  1       15
siesta:     20.86237   9.38661   0.00000  1       16
siesta:      9.22031  13.41944   0.00000  1       17
siesta:     18.53448  13.41944   0.00000  1       18
siesta:     11.54857  17.45226   0.00000  1       19
siesta:     16.20471  17.45226   0.00000  1       20
siesta:     13.87683  21.48508   0.00000  1       21
siesta:     25.51851   9.38661   0.00000  1       22
siesta:     20.86274  17.45226   0.00000  1       23
siesta:     27.84677  13.41944   0.00000  1       24
siesta:     25.51888  17.45226   0.00000  1       25
siesta:     23.19100  21.48508   0.00000  1       26
siesta:     30.17503  17.45226   0.00000  1       27
siesta:      4.56367   2.66461   0.00000  2       28
siesta:     34.83141  22.82873   0.00000  2       29
siesta:     37.15930  18.79590   0.00000  2       30
siesta:     32.50291  13.41944   0.00000  2       31
siesta:     34.83104  14.76308   0.00000  2       32
siesta:     32.50278  10.73026   0.00000  2       33
siesta:     27.84639   5.35379   0.00000  2       34
siesta:     30.17453   6.69743   0.00000  2       35
siesta:     27.84714  21.48508   0.00000  2       36
siesta:     30.17527  22.82873   0.00000  2       37
siesta:      9.21981   2.66461   0.00000  2       38
siesta:     13.87595   2.66461   0.00000  2       39
siesta:     18.53210   2.66461   0.00000  2       40
siesta:     23.19013   2.66461   0.00000  2       41
siesta:     27.84627   2.66461   0.00000  2       42
siesta:      6.89193   6.69743   0.00000  2       43
siesta:      9.21994   5.35379   0.00000  2       44
siesta:     11.54807   6.69743   0.00000  2       45
siesta:     16.20421   6.69743   0.00000  2       46
siesta:     18.53411   5.35379   0.00000  2       47
siesta:     20.86224   6.69743   0.00000  2       48
siesta:     25.51838   6.69743   0.00000  2       49
siesta:      9.22019  10.73026   0.00000  2       50
siesta:     13.87633  10.73026   0.00000  2       51
siesta:     18.53247  10.73026   0.00000  2       52
siesta:     23.19050  10.73026   0.00000  2       53
siesta:     11.54845  14.76308   0.00000  2       54
siesta:     13.87645  13.41944   0.00000  2       55
siesta:     16.20459  14.76308   0.00000  2       56
siesta:     20.86262  14.76308   0.00000  2       57
siesta:     13.87670  18.79590   0.00000  2       58
siesta:     18.53284  18.79590   0.00000  2       59
siesta:     16.20496  22.82873   0.00000  2       60
siesta:     18.53486  21.48508   0.00000  2       61
siesta:     20.86299  22.82873   0.00000  2       62
siesta:     27.84664  10.73026   0.00000  2       63
siesta:     23.19063  13.41944   0.00000  2       64
siesta:     25.51876  14.76308   0.00000  2       65
siesta:     23.19088  18.79590   0.00000  2       66
siesta:     30.17490  14.76308   0.00000  2       67
siesta:     27.84702  18.79590   0.00000  2       68
siesta:     25.51913  22.82873   0.00000  2       69
siesta:     32.50316  18.79590   0.00000  2       70
siesta:     37.16131  21.48508   0.00000  2       71
siesta:     39.48945  22.82873   0.00000  2       72

siesta: System type = slab      

initatomlists: Number of atoms, orbitals, and projectors:     72   936  1152

siesta: ******************** Simulation parameters ****************************
siesta:
siesta: The following are some of the parameters of the simulation.
siesta: A complete list of the parameters used, including default values,
siesta: can be found in file out.fdf
siesta:
redata: Non-Collinear-spin run           =     F
redata: SpinPolarized (Up/Down) run      =     F
redata: Number of spin components        =     1
redata: Long output                      =     F
redata: Number of Atomic Species         =        2
redata: Charge density info will appear in .RHO file
redata: Write Mulliken Pop.              =     NO
redata: Mesh Cutoff                      =   200.0000  Ry
redata: Net charge of the system         =     0.0000 |e|
redata: Max. number of SCF Iter          =      500
redata: SCF convergence failure will abort job
redata: Performing Pulay mixing using    =    10 iterations
redata: Mix DM in first SCF step ?       =     F
redata: Write Pulay info on disk?        =     F
redata: Discard 1st Pulay DM after  kick =     F
redata: New DM Mixing Weight             =     0.0500
redata: New DM Occupancy tolerance       = 0.000000000001
redata: No kicks to SCF
redata: DM Mixing Weight for Kicks       =     0.5000
redata: DM Tolerance for SCF             =     0.000100
redata: Require Energy convergence for SCF =     F
redata: DM Energy tolerance for SCF      =     0.000100 eV
redata: Require Harris convergence for SCF =     F
redata: DM Harris energy tolerance for SCF =     0.000100 eV
redata: Using Saved Data (generic)   =     F
redata: Use continuation files for DM    =     T
redata: Neglect nonoverlap interactions  =     F
redata: Method of Calculation            =     Diagonalization
redata: Divide and Conquer               =     T
redata: Electronic Temperature           =     0.0019  Ry
redata: Fix the spin of the system       =     F
redata: Dynamics option                  =     Verlet MD run
redata: Initial MD time step             =        1
redata:   Final MD time step             =        1
redata: Length of MD time step           =     1.0000  fs
redata: Initial Temperature of MD run    =     0.0000  K
redata: Perform a MD quench              =     F
redata: ***********************************************************************
Total number of electrons:   315.000000
Total ionic charge:   315.000000

* ProcessorY, Blocksize:    3  24

k-point displ. along   1 input, could be:     0.50    0.00
k-point displ. along   2 input, could be:     0.50    0.00
 Kpoints in:          231 . Kpoints trimmed:          231

siesta: k-grid: Number of k-points =   231
siesta: k-grid: Cutoff (effective) =     5.000 Ang
siesta: k-grid: Supercell and displacements
siesta: k-grid:   21   0   0      0.500
siesta: k-grid:    0  21   0      0.500
siesta: k-grid:    0   0   1      0.000
Naive supercell factors:     2    2    2

superc: Internal auxiliary supercell:     2 x     2 x     2  =       8
superc: Number of atoms, orbitals, and projectors:    576   7488   9216

* Maximum dynamic memory allocated =     4 MB

siesta:                 ==============================
                            Begin MD step =      1
                        ==============================

superc: Internal auxiliary supercell:     2 x     2 x     2  =       8
superc: Number of atoms, orbitals, and projectors:    576   7488   9216

outcell: Unit cell vectors (Ang):
       14.785000    0.000000    0.000000
        7.393000   12.805052    0.000000
        0.000000    0.000000   10.000000

outcell: Cell vector modules (Ang)   :   14.785000   14.786000   10.000000
outcell: Cell angles (23,13,12) (deg):     90.0000     90.0000     60.0000
outcell: Cell volume (Ang**3)        :   1893.2269
New_DM. Step:     1
Initializing Density Matrix...

iodm: Reading Density Matrix from files

InitMesh: MESH =   120 x   120 x    90 =     1296000
InitMesh: Mesh cutoff (required, used) =   200.000   223.865 Ry

* Maximum dynamic memory allocated =   126 MB

stepf: Fermi-Dirac step function

siesta: Program's energy decomposition (eV):
siesta: Ebs     =     -4671.889514
siesta: Eions   =     22743.175864
siesta: Ena     =      4239.824409
siesta: Ekin    =     10100.677028
siesta: Enl     =     -1604.470081
siesta: DEna    =      -172.325247
siesta: DUscf   =        19.220464
siesta: DUext   =         0.000000
siesta: Exc     =     -4674.589333
siesta: eta*DQ  =         0.000000
siesta: Emadel  =         0.000000
siesta: Emeta   =         0.000000
siesta: Emolmec =         0.000000
siesta: Ekinion =         0.000000
siesta: Eharris =    -14834.836410
siesta: Etot    =    -14834.838624
siesta: FreeEng =    -14834.838624

siesta: iscf   Eharris(eV)      E_KS(eV)   FreeEng(eV)   dDmax  Ef(eV)
siesta:    1   -14834.8364   -14834.8386   -14834.8386  0.0001 -2.7752
timer: Routine,Calls,Time,% = IterSCF        1    1218.902  98.91
elaps: Routine,Calls,Wall,% = IterSCF        1     101.824  98.90

siesta: E_KS(eV) =           -14834.8364

siesta: E_KS - E_eggbox =    -14834.8364

siesta: Atomic forces (eV/Ang):
----------------------------------------
   Tot    0.151346   -0.434634    0.000000
----------------------------------------
   Max    0.601165
   Res    0.232939    sqrt( Sum f_i^2 / 3N )
----------------------------------------
   Max    0.601165    constrained

Stress-tensor-Voigt (kbar):       71.78       71.97        0.38       -0.23        0.00        0.00
(Free)E + p*V (eV/cell)   -14891.6305
Target enthalpy (eV/cell)   -14834.8617

siesta: Stress tensor (static) (eV/Ang**3):
         0.044799   -0.000140    0.000000
        -0.000140    0.044918    0.000000
         0.000000    0.000000    0.000239

siesta: Pressure (static):        -48.04213822  kBar

siesta: Stress tensor (total) (eV/Ang**3):
         0.044799   -0.000140    0.000000
        -0.000140    0.044918    0.000000
         0.000000    0.000000    0.000239

siesta: Pressure (total):        -48.04213822  kBar

siesta: Temp_ion =       0.000 K

* Maximum dynamic memory allocated =   217 MB

siesta: Program's energy decomposition (eV):
siesta: Ebs     =     -4671.889514
siesta: Eions   =     22743.175864
siesta: Ena     =      4239.824409
siesta: Ekin    =     10100.712226
siesta: Enl     =     -1604.488292
siesta: DEna    =      -172.336065
siesta: DUscf   =        19.221125
siesta: DUext   =         0.000000
siesta: Exc     =     -4674.593949
siesta: eta*DQ  =         0.000000
siesta: Emadel  =         0.000000
siesta: Emeta   =         0.000000
siesta: Emolmec =         0.000000
siesta: Ekinion =         0.000000
siesta: Eharris =    -14834.836410
siesta: Etot    =    -14834.836409
siesta: FreeEng =    -14834.861692

siesta: Final energy (eV):
siesta:  Band Struct. =   -4671.889514
siesta:       Kinetic =   10100.712226
siesta:       Hartree =   28260.622003
siesta:    Ext. field =       0.000000
siesta:   Exch.-corr. =   -4674.593949
siesta:  Ion-electron =  -66012.141167
siesta:       Ion-ion =   17490.564478
siesta:       Ekinion =       0.000000
siesta:         Total =  -14834.836409

siesta: Atomic forces (eV/Ang):
siesta:      1   -0.545113   -0.344548    0.000000
siesta:      2    0.009994    0.598305    0.000000
siesta:      3    0.544055   -0.327709    0.000000
siesta:      4    0.542843   -0.332701    0.000000
siesta:      5    0.544552   -0.347654    0.000000
siesta:      6   -0.524618   -0.347813    0.000000
siesta:      7    0.548399   -0.345147    0.000000
siesta:      8   -0.556345   -0.344707    0.000000
siesta:      9    0.545001   -0.347868    0.000000
siesta:     10   -0.007046    0.593858    0.000000
siesta:     11    0.009301    0.592254    0.000000
siesta:     12    0.004054    0.589869    0.000000
siesta:     13   -0.536384   -0.327109    0.000000
siesta:     14    0.540168   -0.331133    0.000000
siesta:     15   -0.523160   -0.328966    0.000000
siesta:     16    0.517766   -0.328157    0.000000
siesta:     17   -0.005064    0.596557    0.000000
siesta:     18   -0.028657    0.601165    0.000000
siesta:     19   -0.538636   -0.330834    0.000000
siesta:     20    0.544445   -0.328572    0.000000
siesta:     21    0.022954    0.594559    0.000000
siesta:     22   -0.529452   -0.331156    0.000000
siesta:     23   -0.548816   -0.327274    0.000000
siesta:     24    0.003710    0.594367    0.000000
siesta:     25    0.540233   -0.330127    0.000000
siesta:     26    0.005888    0.594711    0.000000
siesta:     27   -0.526673   -0.329028    0.000000
siesta:     28   -0.002678    0.002567    0.000000
siesta:     29   -0.158233    0.126532    0.000000
siesta:     30    0.020998   -0.210828    0.000000
siesta:     31    0.008494   -0.013189    0.000000
siesta:     32    0.194915    0.112011    0.000000
siesta:     33    0.011311   -0.211986    0.000000
siesta:     34    0.007621   -0.014010    0.000000
siesta:     35    0.194206    0.112105    0.000000
siesta:     36    0.006062   -0.008284    0.000000
siesta:     37    0.179533    0.131315    0.000000
siesta:     38    0.001179   -0.212163    0.000000
siesta:     39    0.001064    0.005307    0.000000
siesta:     40    0.032409   -0.213675    0.000000
siesta:     41   -0.003275    0.002969    0.000000
siesta:     42    0.013144   -0.210811    0.000000
siesta:     43   -0.195758    0.117862    0.000000
siesta:     44    0.006529   -0.011981    0.000000
siesta:     45    0.183754    0.115262    0.000000
siesta:     46   -0.165271    0.110264    0.000000
siesta:     47   -0.028369   -0.001792    0.000000
siesta:     48    0.178743    0.114205    0.000000
siesta:     49   -0.193778    0.118223    0.000000
siesta:     50   -0.000392    0.008757    0.000000
siesta:     51    0.001913   -0.207793    0.000000
siesta:     52    0.033727    0.000434    0.000000
siesta:     53   -0.002105   -0.208639    0.000000
siesta:     54   -0.195475    0.120229    0.000000
siesta:     55    0.010113   -0.014374    0.000000
siesta:     56    0.207871    0.110716    0.000000
siesta:     57   -0.198630    0.116713    0.000000
siesta:     58    0.000756    0.008478    0.000000
siesta:     59    0.031654   -0.214046    0.000000
siesta:     60   -0.156708    0.126411    0.000000
siesta:     61   -0.030232   -0.001165    0.000000
siesta:     62    0.174282    0.129141    0.000000
siesta:     63    0.001295    0.007912    0.000000
siesta:     64    0.007055   -0.012571    0.000000
siesta:     65    0.183804    0.115576    0.000000
siesta:     66   -0.002648    0.008992    0.000000
siesta:     67   -0.194059    0.119284    0.000000
siesta:     68    0.001640   -0.208779    0.000000
siesta:     69   -0.197361    0.134815    0.000000
siesta:     70   -0.000101    0.007791    0.000000
siesta:     71   -0.033064   -0.000304    0.000000
siesta:     72    0.162011    0.132741    0.000000
siesta: ----------------------------------------
siesta:    Tot    0.151346   -0.434634    0.000000

siesta: Stress tensor (static) (eV/Ang**3):
siesta:     0.044799   -0.000140    0.000000
siesta:    -0.000140    0.044918    0.000000
siesta:     0.000000    0.000000    0.000239

siesta: Cell volume =       1893.226895 Ang**3

siesta: Pressure (static):
siesta:                Solid            Molecule  Units
siesta:          -0.00032658         -0.00039149  Ry/Bohr**3
siesta:          -0.02998522         -0.03594570  eV/Ang**3
siesta:         -48.04213822        -57.59198132  kBar
(Free)E+ p_basis*V_orbitals  =      -14807.984091
(Free)Eharris+ p_basis*V_orbitals  =      -14807.981877

siesta: Electric dipole (a.u.)  =    0.000000    0.000000    0.000000
siesta: Electric dipole (Debye) =    0.000000    0.000000    0.000000

* Maximum dynamic memory allocated : Node    0 =   217 MB
* Maximum dynamic memory allocated : Node    1 =   138 MB
* Maximum dynamic memory allocated : Node    2 =   139 MB
* Maximum dynamic memory allocated : Node    3 =   207 MB
* Maximum dynamic memory allocated : Node    4 =   213 MB
* Maximum dynamic memory allocated : Node    5 =   134 MB
* Maximum dynamic memory allocated : Node    6 =   136 MB
* Maximum dynamic memory allocated : Node    7 =   207 MB
* Maximum dynamic memory allocated : Node    8 =   213 MB
* Maximum dynamic memory allocated : Node    9 =   134 MB
* Maximum dynamic memory allocated : Node   10 =   136 MB
* Maximum dynamic memory allocated : Node   11 =   207 MB

* Maximum memory occured during cdiag                         

timer: CPU execution times:
timer:  Routine       Calls   Time/call    Tot.time        %
timer:  siesta            1    1331.157    1331.157   100.00
timer:  Setup             1       3.413       3.413     0.26
timer:  bands             1       0.016       0.016     0.00
timer:  writewave         1       0.024       0.024     0.00
timer:  KSV_init          1       0.003       0.003     0.00
timer:  IterMD            1    1321.393    1321.393    99.27
timer:  hsparse           1       0.185       0.185     0.01
timer:  overlap           1       8.315       8.315     0.62
timer:  IterSCF           1    1218.902    1218.902    91.57
timer:  kinefsm           2       4.191       8.382     0.63
timer:  nlefsm            2      17.860      35.721     2.68
timer:  DHSCF             2      68.934     137.867    10.36
timer:  DHSCF1            1       0.903       0.903     0.07
timer:  DHSCF2            1      22.772      22.772     1.71
timer:  REORD            18       0.002       0.041     0.00
timer:  POISON            3       0.476       1.429     0.11
timer:  DHSCF3            2      47.854      95.708     7.19
timer:  rhoofd            2       9.729      19.458     1.46
timer:  cellXC            2       2.465       4.930     0.37
timer:  vmat              2      23.198      46.396     3.49
timer:  MolMec            2       0.000       0.000     0.00
timer:  diagon            1    1108.734    1108.734    83.29
timer:  cdiag            40      18.065     695.362    52.24
timer:  cdiag1           40       0.871      33.545     2.52
timer:  cdiag2           40       3.009     115.836     8.70
timer:  cdiag3           40      13.965     537.522    40.38
timer:  cdiag4           40       0.216       8.332     0.63
timer:  DHSCF4            1      18.431      18.431     1.38
timer:  dfscf             1      17.051      17.051     1.28
timer:  overfsm           1       0.251       0.251     0.02
timer:  optical           1       5.813       5.813     0.44
  

elaps: ELAPSED times:
elaps:  Routine       Calls   Time/call    Tot.time        %
elaps:  siesta            1     111.209     111.209   100.00
elaps:  Setup             1       0.285       0.285     0.26
elaps:  bands             1       0.001       0.001     0.00
elaps:  writewave         1       0.002       0.002     0.00
elaps:  KSV_init          1       0.000       0.000     0.00
elaps:  IterMD            1     110.393     110.393    99.27
elaps:  hsparse           1       0.017       0.017     0.02
elaps:  overlap           1       0.704       0.704     0.63
elaps:  IterSCF           1     101.824     101.824    91.56
elaps:  kinefsm           2       0.357       0.714     0.64
elaps:  nlefsm            2       1.517       3.034     2.73
elaps:  DHSCF             2       6.418      12.837    11.54
elaps:  DHSCF1            1       0.077       0.077     0.07
elaps:  DHSCF2            1       1.901       1.901     1.71
elaps:  REORD            18       0.000       0.005     0.00
elaps:  POISON            3       0.040       0.121     0.11
elaps:  DHSCF3            2       3.997       7.995     7.19
elaps:  rhoofd            2       1.465       2.931     2.64
elaps:  cellXC            2       0.206       0.411     0.37
elaps:  vmat              2       1.938       3.876     3.49
elaps:  MolMec            2       0.000       0.000     0.00
elaps:  diagon            1      92.621      92.621    83.28
elaps:  cdiag            40       1.460      58.393    52.51
elaps:  cdiag1           40       0.072       2.873     2.58
elaps:  cdiag2           40       0.248       9.900     8.90
elaps:  cdiag3           40       1.120      44.818    40.30
elaps:  cdiag4           40       0.020       0.792     0.71
elaps:  DHSCF4            1       2.859       2.859     2.57
elaps:  dfscf             1       2.681       2.681     2.41
elaps:  overfsm           1       0.025       0.025     0.02
elaps:  optical           1       0.000       0.000     0.00
  
>> End of run:   6-APR-2016  14:59:58
