Siesta Version:                                        siesta-3.2-pl-3
Architecture  : x86_64-unknown-linux-gnu--unknown
Compiler flags: mpiifort -g -O2 -fPIC -xSSE4.1 -fp-model source -shared-intel 
PARALLEL version

* Running on    8 nodes in parallel
>> Start of run:   1-MAY-2016   0:50:09

                           ***********************       
                           *  WELCOME TO SIESTA  *       
                           ***********************       

reinit: Reading from standard input
************************** Dump of input data file ****************************
#(1) General system descriptors
SystemName            GRP_doping    # Descriptive name of the system
SystemLabel           GRP_doping    # Short name for naming files
%include STRUCT.fdf
%include KPT.fdf
%include BASIS.fdf
#%include TS.fdf # for transiesta calculation
#(4) DFT, Grid, SCF
XC.functional         GGA           # LDA or GGA (default = LDA)
XC.authors            PBE           # CA (Ceperley-Aldr) = PZ
                                    #    (Perdew-Zunger) - LDA - Default
                                    # PW92 (Perdew-Wang-92) - LDA
                                    # PBE (Perdew-Burke-Ernzerhof) - GGA
MeshCutoff            200.000000    Ry      # Default: 50.0 Ry ~ 0.444 Bohr
                                    #         100.0 Ry ~ 0.314 Bohr
MaxSCFIterations      500           # Default: 50
DM.MixingWeight       0.05          # Default: 0.25
DM.NumberPulay        10            # Default: 0
DM.PulayOnFile        F             # SystemLabel.P1, SystemLabel.P2
DM.Tolerance          1.d-4         # Default: 1.d-4
DM.UseSaveDM          .true.        # because of the bug
SCFMustConverge       .true.
NeglNonOverlapInt     F             # Default: F
#(5) Eigenvalue problem: order-N or diagonalization
SolutionMethod        Diagon        # or Transiesta
ElectronicTemperature 300.0 K       # Default: 300.0 K
#(6) Molecular dynamics and relaxations
#MD.TypeOfRun          CG            # Type of dynamics:
#MD.VariableCell       F
#MD.NumCGsteps         0           # 0 for single-point / 100 for gopt
#MD.MaxCGDispl         0.2 Bohr      # Default: 0.2 Bohr
#MD.MaxForceTol        0.02 eV/Ang   # Default: 0.04 eV/Ang
#MD.MaxStressTol       1.0 GPa       # Default: 1.0 GPa
# Geometry Constraints
#%block GeometryConstraints
#	position from 1 to 44
#%endblock GeometryConstraints
BandLinesScale   pi/a
%block BandLines
 1   0.00000000  0.00000000  0.00000000
50   0.00000000  0.07809418  0.00000000
50   0.04509075  0.07809242  0.00000000
20   0.00000000  0.00000000  0.00000000
%endblock BandLines
************************** End of input data file *****************************

reinit: -----------------------------------------------------------------------
reinit: System Name: GRP_doping
reinit: -----------------------------------------------------------------------
reinit: System Label: GRP_doping                                                  
reinit: -----------------------------------------------------------------------

initatom: Reading input for the pseudopotentials and atomic orbitals ----------
 Species number:            1  Label: B Atomic number:           5
 Species number:            2  Label: C Atomic number:           6
Ground state valence configuration:   2s02  2p01
Reading pseudopotential information in formatted form from B.psf

Valence configuration for pseudopotential generation:
2s( 2.00) rc: 1.74
2p( 1.00) rc: 1.74
3d( 0.00) rc: 1.74
4f( 0.00) rc: 1.74
Ground state valence configuration:   2s02  2p02
Reading pseudopotential information in formatted form from C.psf

Valence configuration for pseudopotential generation:
2s( 2.00) rc: 1.54
2p( 2.00) rc: 1.54
3d( 0.00) rc: 1.54
4f( 0.00) rc: 1.54
For B, standard SIESTA heuristics set lmxkb to 3
 (one more than the basis l, including polarization orbitals).
Use PS.lmax or PS.KBprojectors blocks to override.
For C, standard SIESTA heuristics set lmxkb to 3
 (one more than the basis l, including polarization orbitals).
Use PS.lmax or PS.KBprojectors blocks to override.

<basis_specs>
===============================================================================
B                    Z=   5    Mass=  10.810        Charge= 0.17977+309
Lmxo=1 Lmxkb= 3    BasisType=split      Semic=F
L=0  Nsemic=0  Cnfigmx=2
          n=1  nzeta=2  polorb=0
            splnorm:   0.15000    
               vcte:    0.0000    
               rinn:    0.0000    
                rcs:    0.0000      0.0000    
            lambdas:    1.0000      1.0000    
L=1  Nsemic=0  Cnfigmx=2
          n=1  nzeta=2  polorb=1
            splnorm:   0.15000    
               vcte:    0.0000    
               rinn:    0.0000    
                rcs:    0.0000      0.0000    
            lambdas:    1.0000      1.0000    
-------------------------------------------------------------------------------
L=0  Nkbl=1  erefs: 0.17977+309
L=1  Nkbl=1  erefs: 0.17977+309
L=2  Nkbl=1  erefs: 0.17977+309
L=3  Nkbl=1  erefs: 0.17977+309
===============================================================================
</basis_specs>

atom: Called for B                     (Z =   5)

read_vps: Pseudopotential generation method:
read_vps: ATM3      Troullier-Martins                       
Total valence charge:    3.00000

read_vps: Pseudopotential includes a core correction:
read_vps: Pseudo-core for xc-correction

xc_check: Exchange-correlation functional:
xc_check: GGA Perdew, Burke & Ernzerhof 1996
V l=0 = -2*Zval/r beyond r=  1.7165
V l=1 = -2*Zval/r beyond r=  1.7165
V l=2 = -2*Zval/r beyond r=  1.7165
V l=3 = -2*Zval/r beyond r=  1.6951
All V_l potentials equal beyond r=  1.7165
This should be close to max(r_c) in ps generation
All pots = -2*Zval/r beyond r=  1.7165

VLOCAL1: 99.0% of the norm of Vloc inside     14.733 Ry
VLOCAL1: 99.9% of the norm of Vloc inside     33.577 Ry
atom: Maximum radius for 4*pi*r*r*local-pseudopot. charge    2.04484
atom: Maximum radius for r*vlocal+2*Zval:    1.75994
GHOST: No ghost state for L =  0
GHOST: No ghost state for L =  1
GHOST: No ghost state for L =  2
GHOST: No ghost state for L =  3

KBgen: Kleinman-Bylander projectors: 
   l= 0   rc=  1.897051   el= -0.693730   Ekb=  4.595746   kbcos=  0.286105
   l= 1   rc=  1.920920   el= -0.265236   Ekb= -2.350715   kbcos= -0.315747
   l= 2   rc=  2.044840   el=  0.002055   Ekb= -0.690767   kbcos= -0.013822
   l= 3   rc=  2.149707   el=  0.003188   Ekb= -0.315358   kbcos= -0.002055

KBgen: Total number of  Kleinman-Bylander projectors:   16
atom: -------------------------------------------------------------------------

atom: SANKEY-TYPE ORBITALS:
atom: Selected multiple-zeta basis: split     

SPLIT: Orbitals with angular momentum L= 0

SPLIT: Basis orbitals for state 2s

SPLIT: PAO cut-off radius determined from an
SPLIT: energy shift=  0.007350 Ry

   izeta = 1
                 lambda =    1.000000
                     rc =    5.422032
                 energy =   -0.686029
                kinetic =    0.576707
    potential(screened) =   -1.262736
       potential(ionic) =   -3.271094

   izeta = 2
                 rmatch =    4.222573
              splitnorm =    0.150000
                 energy =   -0.602132
                kinetic =    0.858975
    potential(screened) =   -1.461107
       potential(ionic) =   -3.582536

SPLIT: Orbitals with angular momentum L= 1

SPLIT: Basis orbitals for state 2p

SPLIT: PAO cut-off radius determined from an
SPLIT: energy shift=  0.007350 Ry

   izeta = 1
                 lambda =    1.000000
                     rc =    6.790259
                 energy =   -0.258578
                kinetic =    1.481412
    potential(screened) =   -1.739989
       potential(ionic) =   -3.657461

   izeta = 2
                 rmatch =    4.608740
              splitnorm =    0.150000
                 energy =   -0.173757
                kinetic =    2.186690
    potential(screened) =   -2.360447
       potential(ionic) =   -4.464260

POLgen: Perturbative polarization orbital with L=  2

POLgen: Polarization orbital for state 2p

   izeta = 1
                     rc =    6.790259
                 energy =    0.684082
                kinetic =    1.471481
    potential(screened) =   -0.787399
       potential(ionic) =   -2.406985
atom: Total number of Sankey-type orbitals: 13

atm_pop: Valence configuration (for local Pseudopot. screening):
 2s( 2.00)                                                            
 2p( 1.00)                                                            
Vna: chval, zval:    3.00000   3.00000

Vna:  Cut-off radius for the neutral-atom potential:   6.790259
comcore: Pseudo-core radius Rcore=  2.122997

atom: _________________________________________________________________________

<basis_specs>
===============================================================================
C                    Z=   6    Mass=  12.010        Charge= 0.17977+309
Lmxo=1 Lmxkb= 3    BasisType=split      Semic=F
L=0  Nsemic=0  Cnfigmx=2
          n=1  nzeta=2  polorb=0
            splnorm:   0.15000    
               vcte:    0.0000    
               rinn:    0.0000    
                rcs:    0.0000      0.0000    
            lambdas:    1.0000      1.0000    
L=1  Nsemic=0  Cnfigmx=2
          n=1  nzeta=2  polorb=1
            splnorm:   0.15000    
               vcte:    0.0000    
               rinn:    0.0000    
                rcs:    0.0000      0.0000    
            lambdas:    1.0000      1.0000    
-------------------------------------------------------------------------------
L=0  Nkbl=1  erefs: 0.17977+309
L=1  Nkbl=1  erefs: 0.17977+309
L=2  Nkbl=1  erefs: 0.17977+309
L=3  Nkbl=1  erefs: 0.17977+309
===============================================================================
</basis_specs>

atom: Called for C                     (Z =   6)

read_vps: Pseudopotential generation method:
read_vps: ATM3      Troullier-Martins                       
Total valence charge:    4.00000

read_vps: Pseudopotential includes a core correction:
read_vps: Pseudo-core for xc-correction

xc_check: Exchange-correlation functional:
xc_check: GGA Perdew, Burke & Ernzerhof 1996
V l=0 = -2*Zval/r beyond r=  1.5227
V l=1 = -2*Zval/r beyond r=  1.5227
V l=2 = -2*Zval/r beyond r=  1.5227
V l=3 = -2*Zval/r beyond r=  1.5038
All V_l potentials equal beyond r=  1.5227
This should be close to max(r_c) in ps generation
All pots = -2*Zval/r beyond r=  1.5227

VLOCAL1: 99.0% of the norm of Vloc inside     18.722 Ry
VLOCAL1: 99.9% of the norm of Vloc inside     42.668 Ry
atom: Maximum radius for 4*pi*r*r*local-pseudopot. charge    1.83678
atom: Maximum radius for r*vlocal+2*Zval:    1.58088
GHOST: No ghost state for L =  0
GHOST: No ghost state for L =  1
GHOST: No ghost state for L =  2
GHOST: No ghost state for L =  3

KBgen: Kleinman-Bylander projectors: 
   l= 0   rc=  1.704034   el= -1.009801   Ekb=  5.335044   kbcos=  0.316824
   l= 1   rc=  1.704034   el= -0.388707   Ekb= -3.785862   kbcos= -0.366464
   l= 2   rc=  1.791422   el=  0.001971   Ekb= -0.970471   kbcos= -0.009212
   l= 3   rc=  1.859892   el=  0.003065   Ekb= -0.399525   kbcos= -0.001223

KBgen: Total number of  Kleinman-Bylander projectors:   16
atom: -------------------------------------------------------------------------

atom: SANKEY-TYPE ORBITALS:
atom: Selected multiple-zeta basis: split     

SPLIT: Orbitals with angular momentum L= 0

SPLIT: Basis orbitals for state 2s

SPLIT: PAO cut-off radius determined from an
SPLIT: energy shift=  0.007350 Ry

   izeta = 1
                 lambda =    1.000000
                     rc =    4.632753
                 energy =   -1.002270
                kinetic =    0.855760
    potential(screened) =   -1.858031
       potential(ionic) =   -5.417575

   izeta = 2
                 rmatch =    3.431921
              splitnorm =    0.150000
                 energy =   -0.867111
                kinetic =    1.300804
    potential(screened) =   -2.167915
       potential(ionic) =   -5.962684

SPLIT: Orbitals with angular momentum L= 1

SPLIT: Basis orbitals for state 2p

SPLIT: PAO cut-off radius determined from an
SPLIT: energy shift=  0.007350 Ry

   izeta = 1
                 lambda =    1.000000
                     rc =    5.658549
                 energy =   -0.381140
                kinetic =    2.399701
    potential(screened) =   -2.780841
       potential(ionic) =   -6.206085

   izeta = 2
                 rmatch =    3.653288
              splitnorm =    0.150000
                 energy =   -0.249149
                kinetic =    3.542762
    potential(screened) =   -3.791911
       potential(ionic) =   -7.581078

POLgen: Perturbative polarization orbital with L=  2

POLgen: Polarization orbital for state 2p

   izeta = 1
                     rc =    5.658549
                 energy =    1.109913
                kinetic =    2.304789
    potential(screened) =   -1.194876
       potential(ionic) =   -4.013592
atom: Total number of Sankey-type orbitals: 13

atm_pop: Valence configuration (for local Pseudopot. screening):
 2s( 2.00)                                                            
 2p( 2.00)                                                            
Vna: chval, zval:    4.00000   4.00000

Vna:  Cut-off radius for the neutral-atom potential:   5.658549
comcore: Pseudo-core radius Rcore=  1.791422

atom: _________________________________________________________________________

prinput: Basis input ----------------------------------------------------------

PAO.BasisType split     

%block ChemicalSpeciesLabel
    1    5 B                       # Species index, atomic number, species label
    2    6 C                       # Species index, atomic number, species label
%endblock ChemicalSpeciesLabel

%block PAO.Basis                 # Define Basis set
B                     2                    # Species label, number of l-shells
 n=2   0   2                         # n, l, Nzeta 
   5.422      4.223   
   1.000      1.000   
 n=2   1   2 P   1                   # n, l, Nzeta, Polarization, NzetaPol
   6.790      4.609   
   1.000      1.000   
C                     2                    # Species label, number of l-shells
 n=2   0   2                         # n, l, Nzeta 
   4.633      3.432   
   1.000      1.000   
 n=2   1   2 P   1                   # n, l, Nzeta, Polarization, NzetaPol
   5.659      3.653   
   1.000      1.000   
%endblock PAO.Basis

prinput: ----------------------------------------------------------------------

coor:   Atomic-coordinates input format  =     Fractional

siesta: Atomic coordinates (Bohr) and species
siesta:      2.30256  38.89134   0.00000  1        1
siesta:      2.30256   6.62836   0.00000  1        2
siesta:      4.63094  10.66124   0.00000  1        3
siesta:      6.95932  17.38257   0.00000  1        4
siesta:      9.28770  21.41544   0.00000  1        5
siesta:     -4.68258  13.34970   0.00000  1        6
siesta:     -0.02582  21.41544   0.00000  1        7
siesta:      2.30256  25.44831   0.00000  1        8
siesta:     -7.01096  17.38257   0.00000  1        9
siesta:     -9.33934  18.72698   0.00000  1       10
siesta:      4.63094  29.48119   0.00000  1       11
siesta:     -0.02582  26.79272   0.00000  1       12
siesta:     -0.02582  29.48119   0.00000  1       13
siesta:     -4.68258  26.79272   0.00000  1       14
siesta:      2.30256  30.82560   0.00000  1       15
siesta:     -2.35420  30.82560   0.00000  1       16
siesta:     -0.02582  34.85847   0.00000  1       17
siesta:     -0.02582   2.59549   0.00000  2       18
siesta:     -0.02582   5.28395   0.00000  2       19
siesta:     -2.35420  38.89134   0.00000  2       20
siesta:     -2.35420  41.57980   0.00000  2       21
siesta:      2.30256  41.57980   0.00000  2       22
siesta:      4.63094  34.85847   0.00000  2       23
siesta:      4.63094  37.54693   0.00000  2       24
siesta:      6.95932  30.82560   0.00000  2       25
siesta:      6.95932  33.51406   0.00000  2       26
siesta:      9.28770  26.79272   0.00000  2       27
siesta:      9.28770  29.48119   0.00000  2       28
siesta:     -4.68258  34.85847   0.00000  2       29
siesta:     -4.68258  37.54693   0.00000  2       30
siesta:      2.30256   9.31683   0.00000  2       31
siesta:      4.63094  13.34970   0.00000  2       32
siesta:      6.95932  14.69411   0.00000  2       33
siesta:      9.28770  18.72698   0.00000  2       34
siesta:     11.61608  22.75985   0.00000  2       35
siesta:     11.61608  25.44831   0.00000  2       36
siesta:     -2.35420   6.62836   0.00000  2       37
siesta:     -2.35420   9.31683   0.00000  2       38
siesta:     -0.02582  10.66124   0.00000  2       39
siesta:     -0.02582  13.34970   0.00000  2       40
siesta:      2.30256  14.69411   0.00000  2       41
siesta:      2.30256  17.38257   0.00000  2       42
siesta:      4.63094  18.72698   0.00000  2       43
siesta:      4.63094  21.41544   0.00000  2       44
siesta:      6.95932  22.75985   0.00000  2       45
siesta:      6.95932  25.44831   0.00000  2       46
siesta:     -4.68258  10.66124   0.00000  2       47
siesta:     -2.35420  14.69411   0.00000  2       48
siesta:     -2.35420  17.38257   0.00000  2       49
siesta:     -0.02582  18.72698   0.00000  2       50
siesta:      2.30256  22.75985   0.00000  2       51
siesta:     -7.01096  14.69411   0.00000  2       52
siesta:     -4.68258  18.72698   0.00000  2       53
siesta:     -4.68258  21.41544   0.00000  2       54
siesta:     -2.35420  22.75985   0.00000  2       55
siesta:     -2.35420  25.44831   0.00000  2       56
siesta:     -9.33934  21.41544   0.00000  2       57
siesta:     -7.01096  22.75985   0.00000  2       58
siesta:     -7.01096  25.44831   0.00000  2       59
siesta:    -11.66772  22.75985   0.00000  2       60
siesta:    -11.66772  25.44831   0.00000  2       61
siesta:     -9.33934  26.79272   0.00000  2       62
siesta:     -9.33934  29.48119   0.00000  2       63
siesta:      4.63094  26.79272   0.00000  2       64
siesta:     -4.68258  29.48119   0.00000  2       65
siesta:      2.30256  33.51406   0.00000  2       66
siesta:     -2.35420  33.51406   0.00000  2       67
siesta:     -7.01096  30.82560   0.00000  2       68
siesta:     -7.01096  33.51406   0.00000  2       69
siesta:     -0.02582  37.54693   0.00000  2       70
siesta:     -0.02582  42.92421   0.00000  2       71
siesta:     -0.02582  45.61267   0.00000  2       72

siesta: System type = slab      

initatomlists: Number of atoms, orbitals, and projectors:     72   936  1152

siesta: ******************** Simulation parameters ****************************
siesta:
siesta: The following are some of the parameters of the simulation.
siesta: A complete list of the parameters used, including default values,
siesta: can be found in file out.fdf
siesta:
redata: Non-Collinear-spin run           =     F
redata: SpinPolarized (Up/Down) run      =     F
redata: Number of spin components        =     1
redata: Long output                      =     F
redata: Number of Atomic Species         =        2
redata: Charge density info will appear in .RHO file
redata: Write Mulliken Pop.              =     NO
redata: Mesh Cutoff                      =   200.0000  Ry
redata: Net charge of the system         =     0.0000 |e|
redata: Max. number of SCF Iter          =      500
redata: SCF convergence failure will abort job
redata: Performing Pulay mixing using    =    10 iterations
redata: Mix DM in first SCF step ?       =     F
redata: Write Pulay info on disk?        =     F
redata: Discard 1st Pulay DM after  kick =     F
redata: New DM Mixing Weight             =     0.0500
redata: New DM Occupancy tolerance       = 0.000000000001
redata: No kicks to SCF
redata: DM Mixing Weight for Kicks       =     0.5000
redata: DM Tolerance for SCF             =     0.000100
redata: Require Energy convergence for SCF =     F
redata: DM Energy tolerance for SCF      =     0.000100 eV
redata: Require Harris convergence for SCF =     F
redata: DM Harris energy tolerance for SCF =     0.000100 eV
redata: Using Saved Data (generic)   =     F
redata: Use continuation files for DM    =     T
redata: Neglect nonoverlap interactions  =     F
redata: Method of Calculation            =     Diagonalization
redata: Divide and Conquer               =     T
redata: Electronic Temperature           =     0.0019  Ry
redata: Fix the spin of the system       =     F
redata: Dynamics option                  =     Verlet MD run
redata: Initial MD time step             =        1
redata:   Final MD time step             =        1
redata: Length of MD time step           =     1.0000  fs
redata: Initial Temperature of MD run    =     0.0000  K
redata: Perform a MD quench              =     F
redata: ***********************************************************************
Total number of electrons:   271.000000
Total ionic charge:   271.000000

* ProcessorY, Blocksize:    2  24

k-point displ. along   1 input, could be:     0.50    0.00
k-point displ. along   2 input, could be:     0.50    0.00
 Kpoints in:          231 . Kpoints trimmed:          231

siesta: k-grid: Number of k-points =   231
siesta: k-grid: Cutoff (effective) =     5.000 Ang
siesta: k-grid: Supercell and displacements
siesta: k-grid:   21   0   0      0.500
siesta: k-grid:    0  21   0      0.500
siesta: k-grid:    0   0   1      0.000
Naive supercell factors:     2    2    2

superc: Internal auxiliary supercell:     2 x     2 x     2  =       8
superc: Number of atoms, orbitals, and projectors:    576   7488   9216

* Maximum dynamic memory allocated =     4 MB

siesta:                 ==============================
                            Begin MD step =      1
                        ==============================

superc: Internal auxiliary supercell:     2 x     2 x     2  =       8
superc: Number of atoms, orbitals, and projectors:    576   7488   9216

outcell: Unit cell vectors (Ang):
       12.804619    7.392750    0.000000
        0.000000   14.785500    0.000000
        0.000000    0.000000   10.000000

outcell: Cell vector modules (Ang)   :   14.785500   14.785500   10.000000
outcell: Cell angles (23,13,12) (deg):     90.0000     90.0000     60.0000
outcell: Cell volume (Ang**3)        :   1893.2269
New_DM. Step:     1
Initializing Density Matrix...

InitMesh: MESH =   120 x   120 x    90 =     1296000
InitMesh: Mesh cutoff (required, used) =   200.000   223.865 Ry

* Maximum dynamic memory allocated =   222 MB

stepf: Fermi-Dirac step function

siesta: Program's energy decomposition (eV):
siesta: Ebs     =     -5603.802894
siesta: Eions   =     16226.046981
siesta: Ena     =      4316.225990
siesta: Ekin    =      5481.631332
siesta: Enl     =       782.776718
siesta: DEna    =        -0.000009
siesta: DUscf   =         0.000000
siesta: DUext   =         0.000000
siesta: Exc     =     -4192.437521
siesta: eta*DQ  =         0.000000
siesta: Emadel  =         0.000000
siesta: Emeta   =         0.000000
siesta: Emolmec =         0.000000
siesta: Ekinion =         0.000000
siesta: Eharris =     -9601.932863
siesta: Etot    =     -9837.850471
siesta: FreeEng =     -9837.850471

siesta: iscf   Eharris(eV)      E_KS(eV)   FreeEng(eV)   dDmax  Ef(eV)
siesta:    1    -9601.9329    -9837.8505    -9837.8505  7.7773 -8.2717
timer: Routine,Calls,Time,% = IterSCF        1    3444.180  99.66
elaps: Routine,Calls,Wall,% = IterSCF        1     431.422  99.65
siesta:    2   -13764.3165    -8904.7610    -8904.8182 17.6378 -3.1623
siesta:    3    -9573.5118    -9666.6809    -9666.7059  2.7025 -6.4533
siesta:    4    -9525.3221    -9581.3913    -9581.4469  1.4701 -5.8731
siesta:    5    -9467.2863    -9474.8846    -9474.9232  1.1447 -5.0333
siesta:    6    -9458.2797    -9460.5264    -9460.5819  0.8675 -5.2497
siesta:    7    -9455.5212    -9457.8889    -9457.9394  0.9850 -5.0844
siesta:    8    -9450.0096    -9453.1575    -9453.2250  0.7107 -5.2698
siesta:    9    -9447.3398    -9442.9567    -9443.0117  0.6177 -5.3203
siesta:   10    -9445.8245    -9437.5650    -9437.6084  0.5203 -5.0952
siesta:   11    -9445.4899    -9430.1118    -9430.1619  0.3979 -5.0776
siesta:   12    -9445.1663    -9424.2730    -9424.3276  0.2376 -5.0687
siesta:   13    -9444.7745    -9423.5794    -9423.6373  0.1967 -5.0929
siesta:   14    -9444.3891    -9426.9708    -9427.0318  0.1608 -5.1313
siesta:   15    -9444.0826    -9432.2047    -9432.2637  0.1885 -5.1595
siesta:   16    -9443.9552    -9436.9365    -9436.9934  0.2064 -5.1822
siesta:   17    -9443.9007    -9438.7532    -9438.8020  0.1003 -5.1720
siesta:   18    -9443.8405    -9440.8652    -9440.9248  0.1664 -5.1743
siesta:   19    -9443.7900    -9443.2478    -9443.3044  0.1469 -5.1746
siesta:   20    -9443.7720    -9443.0064    -9443.0780  0.1084 -5.1770
siesta:   21    -9443.7688    -9444.2720    -9444.3338  0.0830 -5.1801
siesta:   22    -9443.7684    -9445.6439    -9445.7062  0.0985 -5.1750
siesta:   23    -9443.7631    -9445.8455    -9445.9071  0.0731 -5.1671
siesta:   24    -9443.7598    -9445.4312    -9445.4944  0.0535 -5.1593
siesta:   25    -9443.7557    -9445.0124    -9445.0764  0.0240 -5.1520
siesta:   26    -9443.7539    -9444.8145    -9444.8815  0.0541 -5.1453
siesta:   27    -9443.7546    -9444.3716    -9444.4393  0.0089 -5.1462
siesta:   28    -9443.7536    -9444.3269    -9444.3931  0.0242 -5.1464
siesta:   29    -9443.7539    -9444.2479    -9444.3150  0.0119 -5.1477
siesta:   30    -9443.7545    -9444.0646    -9444.1313  0.0034 -5.1487
siesta:   31    -9443.7545    -9443.8645    -9443.9306  0.0030 -5.1501
siesta:   32    -9443.7545    -9443.7435    -9443.8096  0.0038 -5.1500
siesta:   33    -9443.7544    -9443.7545    -9443.8205  0.0023 -5.1502
siesta:   34    -9443.7543    -9443.7740    -9443.8401  0.0013 -5.1502
siesta:   35    -9443.7542    -9443.8010    -9443.8671  0.0004 -5.1502
siesta:   36    -9443.7543    -9443.7780    -9443.8442  0.0004 -5.1501
siesta:   37    -9443.7543    -9443.7624    -9443.8286  0.0002 -5.1502
siesta:   38    -9443.7543    -9443.7568    -9443.8230  0.0002 -5.1503
siesta:   39    -9443.7543    -9443.7581    -9443.8242  0.0001 -5.1503

siesta: E_KS(eV) =            -9443.7580

siesta: E_KS - E_eggbox =     -9443.7580

siesta: Atomic forces (eV/Ang):
----------------------------------------
   Tot   -0.060043   -0.069127    0.000000
----------------------------------------
   Max  560.944656
   Res  148.425891    sqrt( Sum f_i^2 / 3N )
----------------------------------------
   Max  560.944656    constrained

Stress-tensor-Voigt (kbar):     -752.50    -2687.87       -0.58       30.96        0.00        0.00
(Free)E + p*V (eV/cell)    -8088.4982
Target enthalpy (eV/cell)    -9443.8241

siesta: Stress tensor (static) (eV/Ang**3):
        -0.469667    0.019327    0.000000
         0.019326   -1.677617    0.000000
         0.000000    0.000000   -0.000361

siesta: Pressure (static):       1146.98083163  kBar

siesta: Stress tensor (total) (eV/Ang**3):
        -0.469667    0.019327    0.000000
         0.019326   -1.677617    0.000000
         0.000000    0.000000   -0.000361

siesta: Pressure (total):       1146.98083163  kBar

siesta: Temp_ion =       0.000 K

* Maximum dynamic memory allocated =   238 MB
Computing bands...

siesta: Program's energy decomposition (eV):
siesta: Ebs     =     -4208.093959
siesta: Eions   =     16226.046981
siesta: Ena     =      4316.225990
siesta: Ekin    =      8370.108497
siesta: Enl     =      -850.238119
siesta: DEna    =      -795.385707
siesta: DUscf   =       108.039104
siesta: DUext   =         0.000000
siesta: Exc     =     -4366.460740
siesta: eta*DQ  =         0.000000
siesta: Emadel  =         0.000000
siesta: Emeta   =         0.000000
siesta: Emolmec =         0.000000
siesta: Ekinion =         0.000000
siesta: Eharris =     -9443.754251
siesta: Etot    =     -9443.757954
siesta: FreeEng =     -9443.824136

siesta: Final energy (eV):
siesta:  Band Struct. =   -4208.093959
siesta:       Kinetic =    8370.108497
siesta:       Hartree =   27028.894102
siesta:    Ext. field =       0.000000
siesta:   Exch.-corr. =   -4366.460740
siesta:  Ion-electron =  -62114.526427
siesta:       Ion-ion =   21638.226614
siesta:       Ekinion =       0.000000
siesta:         Total =   -9443.757954

siesta: Atomic forces (eV/Ang):
siesta:      1   -8.038395  110.037988    0.000000
siesta:      2   10.451086  405.071010    0.000000
siesta:      3   26.701610  399.538883    0.000000
siesta:      4    3.746614   -1.105089    0.000000
siesta:      5    3.532495   -2.125940    0.000000
siesta:      6  -21.709780   -1.828631    0.000000
siesta:      7    0.830057    1.110580    0.000000
siesta:      8    3.947871   -2.287391    0.000000
siesta:      9    1.221390   -4.810416    0.000000
siesta:     10   -4.585147    2.538679    0.000000
siesta:     11    1.852720   -2.248696    0.000000
siesta:     12   -4.022594   -1.016936    0.000000
siesta:     13   -0.190833 -412.357395    0.000000
siesta:     14    0.284167   -0.201864    0.000000
siesta:     15   16.469884    1.420299    0.000000
siesta:     16  -21.171088    0.622308    0.000000
siesta:     17   -7.037928  110.241170    0.000000
siesta:     18    0.042235  409.541697    0.000000
siesta:     19   12.234700 -121.569563    0.000000
siesta:     20   -0.111408  128.340846    0.000000
siesta:     21   -8.411176 -543.000076    0.000000
siesta:     22    9.998533 -545.579470    0.000000
siesta:     23   25.323799   -3.272328    0.000000
siesta:     24   27.111414 -401.416766    0.000000
siesta:     25    6.455911    3.014673    0.000000
siesta:     26   -3.196268    1.871496    0.000000
siesta:     27    1.961658    2.711325    0.000000
siesta:     28   -0.598616   -0.794024    0.000000
siesta:     29  -26.108031    3.334902    0.000000
siesta:     30  -35.046273 -553.694312    0.000000
siesta:     31   13.185542 -121.503266    0.000000
siesta:     32   25.208051   -1.129649    0.000000
siesta:     33   -3.935233   -6.808906    0.000000
siesta:     34    0.079238   -1.687398    0.000000
siesta:     35    3.158613    9.501723    0.000000
siesta:     36    0.708671   -6.857725    0.000000
siesta:     37  -23.919973  554.933460    0.000000
siesta:     38   -0.134328 -129.430103    0.000000
siesta:     39   -9.650379  552.881858    0.000000
siesta:     40    2.985560 -133.303293    0.000000
siesta:     41   28.850924  560.838107    0.000000
siesta:     42   21.575760   -4.630882    0.000000
siesta:     43   -3.805817    2.205128    0.000000
siesta:     44   -0.299696    1.110089    0.000000
siesta:     45   -3.006710    1.803742    0.000000
siesta:     46   -1.486740   -1.128418    0.000000
siesta:     47  -29.269040  547.292652    0.000000
siesta:     48  -32.197294  551.563120    0.000000
siesta:     49  -20.837759   -5.448342    0.000000
siesta:     50   -0.351389  560.944656    0.000000
siesta:     51    2.752710   -2.763917    0.000000
siesta:     52    0.938649   -3.303344    0.000000
siesta:     53    2.412568    3.341989    0.000000
siesta:     54    0.816420   -0.141165    0.000000
siesta:     55   -3.404754    1.954459    0.000000
siesta:     56    0.038749   -3.612217    0.000000
siesta:     57   -3.226752    1.068702    0.000000
siesta:     58   -0.530853    1.565972    0.000000
siesta:     59   -2.926377   -3.561297    0.000000
siesta:     60   -0.031005    6.243380    0.000000
siesta:     61    0.374442   -6.550355    0.000000
siesta:     62   -2.525785    1.651405    0.000000
siesta:     63    1.027796    1.132740    0.000000
siesta:     64    3.585155   -1.863804    0.000000
siesta:     65    0.134488    2.342753    0.000000
siesta:     66   24.256801 -405.187598    0.000000
siesta:     67  -15.707631 -548.353056    0.000000
siesta:     68   -3.058788    0.335299    0.000000
siesta:     69    2.502208    2.195904    0.000000
siesta:     70   11.674402 -535.750747    0.000000
siesta:     71    1.346309  127.870631    0.000000
siesta:     72    0.694593 -551.918373    0.000000
siesta: ----------------------------------------
siesta:    Tot   -0.060043   -0.069127    0.000000

siesta: Stress tensor (static) (eV/Ang**3):
siesta:    -0.469667    0.019327    0.000000
siesta:     0.019326   -1.677617    0.000000
siesta:     0.000000    0.000000   -0.000361

siesta: Cell volume =       1893.226884 Ang**3

siesta: Pressure (static):
siesta:                Solid            Molecule  Units
siesta:           0.00779686          0.11417277  Ry/Bohr**3
siesta:           0.71588139         10.48295554  eV/Ang**3
siesta:        1146.98083163      16795.72796816  kBar
(Free)E+ p_basis*V_orbitals  =       -9407.715310
(Free)Eharris+ p_basis*V_orbitals  =       -9407.711489

siesta: Electric dipole (a.u.)  =    0.000000    0.000000    0.000000
siesta: Electric dipole (Debye) =    0.000000    0.000000    0.000000

* Maximum dynamic memory allocated : Node    0 =   238 MB
* Maximum dynamic memory allocated : Node    1 =    83 MB
* Maximum dynamic memory allocated : Node    2 =    85 MB
* Maximum dynamic memory allocated : Node    3 =   226 MB
* Maximum dynamic memory allocated : Node    4 =   222 MB
* Maximum dynamic memory allocated : Node    5 =    81 MB
* Maximum dynamic memory allocated : Node    6 =    83 MB
* Maximum dynamic memory allocated : Node    7 =   204 MB

* Maximum memory occured during matrixMtoO                    

timer: CPU execution times:
timer:  Routine       Calls   Time/call    Tot.time        %
timer:  siesta            1  132286.085  132286.085   100.00
timer:  Setup             1       3.888       3.888     0.00
timer:  bands             3     243.854     731.563     0.55
timer:  writewave         1       0.045       0.045     0.00
timer:  KSV_init          1       0.007       0.007     0.00
timer:  IterMD            1  131545.383  131545.383    99.44
timer:  hsparse           1       0.515       0.515     0.00
timer:  overlap           1       7.190       7.190     0.01
timer:  IterSCF          39    3367.690  131339.891    99.28
timer:  kinefsm           2       3.742       7.483     0.01
timer:  nlefsm            2      19.803      39.606     0.03
timer:  DHSCF            40     105.499    4219.973     3.19
timer:  DHSCF1            1       0.990       0.990     0.00
timer:  DHSCF2            1      41.985      41.985     0.03
timer:  REORD           322       0.005       1.586     0.00
timer:  POISON           41       0.886      36.308     0.03
timer:  DHSCF3           40     103.421    4136.829     3.13
timer:  rhoofd           40      22.767     910.664     0.69
timer:  cellXC           40       3.277     131.073     0.10
timer:  vmat             40      48.470    1938.800     1.47
timer:  MolMec            2       0.000       0.000     0.00
timer:  diagon           39    3261.152  127184.926    96.14
timer:  c-eigval       9130       6.033   55085.627    41.64
timer:  c-buildHS      9130       0.053     481.367     0.36
timer:  cdiag         18139       6.147  111501.697    84.29
timer:  cdiag1        18139       0.384    6974.263     5.27
timer:  cdiag2        18139       1.768   32062.969    24.24
timer:  cdiag3        18139       3.740   67848.877    51.29
timer:  cdiag4        18139       0.158    2873.980     2.17
timer:  c-eigvec       9009       6.360   57299.646    43.31
timer:  c-buildD       9009       1.719   15485.338    11.71
timer:  DHSCF4            1      39.373      39.373     0.03
timer:  dfscf             1      36.623      36.623     0.03
timer:  overfsm           1       0.451       0.451     0.00
timer:  optical           1       4.615       4.615     0.00
  

elaps: ELAPSED times:
elaps:  Routine       Calls   Time/call    Tot.time        %
elaps:  siesta            1   16567.121   16567.121   100.00
elaps:  Setup             1       0.505       0.505     0.00
elaps:  bands             3      30.559      91.676     0.55
elaps:  writewave         1       0.006       0.006     0.00
elaps:  KSV_init          1       0.001       0.001     0.00
elaps:  IterMD            1   16474.332   16474.332    99.44
elaps:  hsparse           1       0.069       0.069     0.00
elaps:  overlap           1       0.900       0.900     0.01
elaps:  IterSCF          39     421.762   16448.732    99.29
elaps:  kinefsm           2       0.470       0.940     0.01
elaps:  nlefsm            2       2.599       5.197     0.03
elaps:  DHSCF            40      13.339     533.562     3.22
elaps:  DHSCF1            1       0.126       0.126     0.00
elaps:  DHSCF2            1       5.256       5.256     0.03
elaps:  REORD           322       0.001       0.214     0.00
elaps:  POISON           41       0.111       4.564     0.03
elaps:  DHSCF3           40      12.952     518.095     3.13
elaps:  rhoofd           40       6.338     253.508     1.53
elaps:  cellXC           40       0.410      16.402     0.10
elaps:  vmat             40       6.071     242.821     1.47
elaps:  MolMec            2       0.000       0.000     0.00
elaps:  diagon           39     408.408   15927.894    96.14
elaps:  c-eigval       9130       0.756    6898.561    41.64
elaps:  c-buildHS      9130       0.007      62.543     0.38
elaps:  cdiag         18139       0.770   13962.870    84.28
elaps:  cdiag1        18139       0.048     873.173     5.27
elaps:  cdiag2        18139       0.221    4016.259    24.24
elaps:  cdiag3        18139       0.469    8508.598    51.36
elaps:  cdiag4        18139       0.020     357.529     2.16
elaps:  c-eigvec       9009       0.797    7177.456    43.32
elaps:  c-buildD       9009       0.215    1937.203    11.69
elaps:  DHSCF4            1       9.988       9.988     0.06
elaps:  dfscf             1       9.439       9.439     0.06
elaps:  overfsm           1       0.057       0.057     0.00
elaps:  optical           1       0.001       0.001     0.00
  
>> End of run:   1-MAY-2016   5:26:16
