Siesta Version:                                        siesta-3.2-pl-3
Architecture  : x86_64-unknown-linux-gnu--unknown
Compiler flags: mpiifort -g -O2 -fPIC -xSSE4.1 -fp-model source -shared-intel 
PARALLEL version

* Running on    8 nodes in parallel
>> Start of run:  30-APR-2016   0:14:29

                           ***********************       
                           *  WELCOME TO SIESTA  *       
                           ***********************       

reinit: Reading from standard input
************************** Dump of input data file ****************************
#(1) General system descriptors
SystemName            GRP_doping    # Descriptive name of the system
SystemLabel           GRP_doping    # Short name for naming files
%include STRUCT.fdf
%include KPT.fdf
%include BASIS.fdf
#%include TS.fdf # for transiesta calculation
#(4) DFT, Grid, SCF
XC.functional         GGA           # LDA or GGA (default = LDA)
XC.authors            PBE           # CA (Ceperley-Aldr) = PZ
                                    #    (Perdew-Zunger) - LDA - Default
                                    # PW92 (Perdew-Wang-92) - LDA
                                    # PBE (Perdew-Burke-Ernzerhof) - GGA
MeshCutoff            200.000000    Ry      # Default: 50.0 Ry ~ 0.444 Bohr
                                    #         100.0 Ry ~ 0.314 Bohr
MaxSCFIterations      500           # Default: 50
DM.MixingWeight       0.05          # Default: 0.25
DM.NumberPulay        10            # Default: 0
DM.PulayOnFile        F             # SystemLabel.P1, SystemLabel.P2
DM.Tolerance          1.d-4         # Default: 1.d-4
DM.UseSaveDM          .true.        # because of the bug
SCFMustConverge       .true.
NeglNonOverlapInt     F             # Default: F
#(5) Eigenvalue problem: order-N or diagonalization
SolutionMethod        Diagon        # or Transiesta
ElectronicTemperature 300.0 K       # Default: 300.0 K
#(6) Molecular dynamics and relaxations
#MD.TypeOfRun          CG            # Type of dynamics:
#MD.VariableCell       F
#MD.NumCGsteps         0           # 0 for single-point / 100 for gopt
#MD.MaxCGDispl         0.2 Bohr      # Default: 0.2 Bohr
#MD.MaxForceTol        0.02 eV/Ang   # Default: 0.04 eV/Ang
#MD.MaxStressTol       1.0 GPa       # Default: 1.0 GPa
# Geometry Constraints
#%block GeometryConstraints
#	position from 1 to 44
#%endblock GeometryConstraints
BandLinesScale   pi/a
%block BandLines
 1   0.00000000  0.00000000  0.00000000
50   0.00000000  0.07809418  0.00000000
50   0.04509075  0.07809242  0.00000000
20   0.00000000  0.00000000  0.00000000
%endblock BandLines
************************** End of input data file *****************************

reinit: -----------------------------------------------------------------------
reinit: System Name: GRP_doping
reinit: -----------------------------------------------------------------------
reinit: System Label: GRP_doping                                                  
reinit: -----------------------------------------------------------------------

initatom: Reading input for the pseudopotentials and atomic orbitals ----------
 Species number:            1  Label: B Atomic number:           5
 Species number:            2  Label: C Atomic number:           6
Ground state valence configuration:   2s02  2p01
Reading pseudopotential information in formatted form from B.psf

Valence configuration for pseudopotential generation:
2s( 2.00) rc: 1.74
2p( 1.00) rc: 1.74
3d( 0.00) rc: 1.74
4f( 0.00) rc: 1.74
Ground state valence configuration:   2s02  2p02
Reading pseudopotential information in formatted form from C.psf

Valence configuration for pseudopotential generation:
2s( 2.00) rc: 1.54
2p( 2.00) rc: 1.54
3d( 0.00) rc: 1.54
4f( 0.00) rc: 1.54
For B, standard SIESTA heuristics set lmxkb to 3
 (one more than the basis l, including polarization orbitals).
Use PS.lmax or PS.KBprojectors blocks to override.
For C, standard SIESTA heuristics set lmxkb to 3
 (one more than the basis l, including polarization orbitals).
Use PS.lmax or PS.KBprojectors blocks to override.

<basis_specs>
===============================================================================
B                    Z=   5    Mass=  10.810        Charge= 0.17977+309
Lmxo=1 Lmxkb= 3    BasisType=split      Semic=F
L=0  Nsemic=0  Cnfigmx=2
          n=1  nzeta=2  polorb=0
            splnorm:   0.15000    
               vcte:    0.0000    
               rinn:    0.0000    
                rcs:    0.0000      0.0000    
            lambdas:    1.0000      1.0000    
L=1  Nsemic=0  Cnfigmx=2
          n=1  nzeta=2  polorb=1
            splnorm:   0.15000    
               vcte:    0.0000    
               rinn:    0.0000    
                rcs:    0.0000      0.0000    
            lambdas:    1.0000      1.0000    
-------------------------------------------------------------------------------
L=0  Nkbl=1  erefs: 0.17977+309
L=1  Nkbl=1  erefs: 0.17977+309
L=2  Nkbl=1  erefs: 0.17977+309
L=3  Nkbl=1  erefs: 0.17977+309
===============================================================================
</basis_specs>

atom: Called for B                     (Z =   5)

read_vps: Pseudopotential generation method:
read_vps: ATM3      Troullier-Martins                       
Total valence charge:    3.00000

read_vps: Pseudopotential includes a core correction:
read_vps: Pseudo-core for xc-correction

xc_check: Exchange-correlation functional:
xc_check: GGA Perdew, Burke & Ernzerhof 1996
V l=0 = -2*Zval/r beyond r=  1.7165
V l=1 = -2*Zval/r beyond r=  1.7165
V l=2 = -2*Zval/r beyond r=  1.7165
V l=3 = -2*Zval/r beyond r=  1.6951
All V_l potentials equal beyond r=  1.7165
This should be close to max(r_c) in ps generation
All pots = -2*Zval/r beyond r=  1.7165

VLOCAL1: 99.0% of the norm of Vloc inside     14.733 Ry
VLOCAL1: 99.9% of the norm of Vloc inside     33.577 Ry
atom: Maximum radius for 4*pi*r*r*local-pseudopot. charge    2.04484
atom: Maximum radius for r*vlocal+2*Zval:    1.75994
GHOST: No ghost state for L =  0
GHOST: No ghost state for L =  1
GHOST: No ghost state for L =  2
GHOST: No ghost state for L =  3

KBgen: Kleinman-Bylander projectors: 
   l= 0   rc=  1.897051   el= -0.693730   Ekb=  4.595746   kbcos=  0.286105
   l= 1   rc=  1.920920   el= -0.265236   Ekb= -2.350715   kbcos= -0.315747
   l= 2   rc=  2.044840   el=  0.002055   Ekb= -0.690767   kbcos= -0.013822
   l= 3   rc=  2.149707   el=  0.003188   Ekb= -0.315358   kbcos= -0.002055

KBgen: Total number of  Kleinman-Bylander projectors:   16
atom: -------------------------------------------------------------------------

atom: SANKEY-TYPE ORBITALS:
atom: Selected multiple-zeta basis: split     

SPLIT: Orbitals with angular momentum L= 0

SPLIT: Basis orbitals for state 2s

SPLIT: PAO cut-off radius determined from an
SPLIT: energy shift=  0.007350 Ry

   izeta = 1
                 lambda =    1.000000
                     rc =    5.422032
                 energy =   -0.686029
                kinetic =    0.576707
    potential(screened) =   -1.262736
       potential(ionic) =   -3.271094

   izeta = 2
                 rmatch =    4.222573
              splitnorm =    0.150000
                 energy =   -0.602132
                kinetic =    0.858975
    potential(screened) =   -1.461107
       potential(ionic) =   -3.582536

SPLIT: Orbitals with angular momentum L= 1

SPLIT: Basis orbitals for state 2p

SPLIT: PAO cut-off radius determined from an
SPLIT: energy shift=  0.007350 Ry

   izeta = 1
                 lambda =    1.000000
                     rc =    6.790259
                 energy =   -0.258578
                kinetic =    1.481412
    potential(screened) =   -1.739989
       potential(ionic) =   -3.657461

   izeta = 2
                 rmatch =    4.608740
              splitnorm =    0.150000
                 energy =   -0.173757
                kinetic =    2.186690
    potential(screened) =   -2.360447
       potential(ionic) =   -4.464260

POLgen: Perturbative polarization orbital with L=  2

POLgen: Polarization orbital for state 2p

   izeta = 1
                     rc =    6.790259
                 energy =    0.684082
                kinetic =    1.471481
    potential(screened) =   -0.787399
       potential(ionic) =   -2.406985
atom: Total number of Sankey-type orbitals: 13

atm_pop: Valence configuration (for local Pseudopot. screening):
 2s( 2.00)                                                            
 2p( 1.00)                                                            
Vna: chval, zval:    3.00000   3.00000

Vna:  Cut-off radius for the neutral-atom potential:   6.790259
comcore: Pseudo-core radius Rcore=  2.122997

atom: _________________________________________________________________________

<basis_specs>
===============================================================================
C                    Z=   6    Mass=  12.010        Charge= 0.17977+309
Lmxo=1 Lmxkb= 3    BasisType=split      Semic=F
L=0  Nsemic=0  Cnfigmx=2
          n=1  nzeta=2  polorb=0
            splnorm:   0.15000    
               vcte:    0.0000    
               rinn:    0.0000    
                rcs:    0.0000      0.0000    
            lambdas:    1.0000      1.0000    
L=1  Nsemic=0  Cnfigmx=2
          n=1  nzeta=2  polorb=1
            splnorm:   0.15000    
               vcte:    0.0000    
               rinn:    0.0000    
                rcs:    0.0000      0.0000    
            lambdas:    1.0000      1.0000    
-------------------------------------------------------------------------------
L=0  Nkbl=1  erefs: 0.17977+309
L=1  Nkbl=1  erefs: 0.17977+309
L=2  Nkbl=1  erefs: 0.17977+309
L=3  Nkbl=1  erefs: 0.17977+309
===============================================================================
</basis_specs>

atom: Called for C                     (Z =   6)

read_vps: Pseudopotential generation method:
read_vps: ATM3      Troullier-Martins                       
Total valence charge:    4.00000

read_vps: Pseudopotential includes a core correction:
read_vps: Pseudo-core for xc-correction

xc_check: Exchange-correlation functional:
xc_check: GGA Perdew, Burke & Ernzerhof 1996
V l=0 = -2*Zval/r beyond r=  1.5227
V l=1 = -2*Zval/r beyond r=  1.5227
V l=2 = -2*Zval/r beyond r=  1.5227
V l=3 = -2*Zval/r beyond r=  1.5038
All V_l potentials equal beyond r=  1.5227
This should be close to max(r_c) in ps generation
All pots = -2*Zval/r beyond r=  1.5227

VLOCAL1: 99.0% of the norm of Vloc inside     18.722 Ry
VLOCAL1: 99.9% of the norm of Vloc inside     42.668 Ry
atom: Maximum radius for 4*pi*r*r*local-pseudopot. charge    1.83678
atom: Maximum radius for r*vlocal+2*Zval:    1.58088
GHOST: No ghost state for L =  0
GHOST: No ghost state for L =  1
GHOST: No ghost state for L =  2
GHOST: No ghost state for L =  3

KBgen: Kleinman-Bylander projectors: 
   l= 0   rc=  1.704034   el= -1.009801   Ekb=  5.335044   kbcos=  0.316824
   l= 1   rc=  1.704034   el= -0.388707   Ekb= -3.785862   kbcos= -0.366464
   l= 2   rc=  1.791422   el=  0.001971   Ekb= -0.970471   kbcos= -0.009212
   l= 3   rc=  1.859892   el=  0.003065   Ekb= -0.399525   kbcos= -0.001223

KBgen: Total number of  Kleinman-Bylander projectors:   16
atom: -------------------------------------------------------------------------

atom: SANKEY-TYPE ORBITALS:
atom: Selected multiple-zeta basis: split     

SPLIT: Orbitals with angular momentum L= 0

SPLIT: Basis orbitals for state 2s

SPLIT: PAO cut-off radius determined from an
SPLIT: energy shift=  0.007350 Ry

   izeta = 1
                 lambda =    1.000000
                     rc =    4.632753
                 energy =   -1.002270
                kinetic =    0.855760
    potential(screened) =   -1.858031
       potential(ionic) =   -5.417575

   izeta = 2
                 rmatch =    3.431921
              splitnorm =    0.150000
                 energy =   -0.867111
                kinetic =    1.300804
    potential(screened) =   -2.167915
       potential(ionic) =   -5.962684

SPLIT: Orbitals with angular momentum L= 1

SPLIT: Basis orbitals for state 2p

SPLIT: PAO cut-off radius determined from an
SPLIT: energy shift=  0.007350 Ry

   izeta = 1
                 lambda =    1.000000
                     rc =    5.658549
                 energy =   -0.381140
                kinetic =    2.399701
    potential(screened) =   -2.780841
       potential(ionic) =   -6.206085

   izeta = 2
                 rmatch =    3.653288
              splitnorm =    0.150000
                 energy =   -0.249149
                kinetic =    3.542762
    potential(screened) =   -3.791911
       potential(ionic) =   -7.581078

POLgen: Perturbative polarization orbital with L=  2

POLgen: Polarization orbital for state 2p

   izeta = 1
                     rc =    5.658549
                 energy =    1.109913
                kinetic =    2.304789
    potential(screened) =   -1.194876
       potential(ionic) =   -4.013592
atom: Total number of Sankey-type orbitals: 13

atm_pop: Valence configuration (for local Pseudopot. screening):
 2s( 2.00)                                                            
 2p( 2.00)                                                            
Vna: chval, zval:    4.00000   4.00000

Vna:  Cut-off radius for the neutral-atom potential:   5.658549
comcore: Pseudo-core radius Rcore=  1.791422

atom: _________________________________________________________________________

prinput: Basis input ----------------------------------------------------------

PAO.BasisType split     

%block ChemicalSpeciesLabel
    1    5 B                       # Species index, atomic number, species label
    2    6 C                       # Species index, atomic number, species label
%endblock ChemicalSpeciesLabel

%block PAO.Basis                 # Define Basis set
B                     2                    # Species label, number of l-shells
 n=2   0   2                         # n, l, Nzeta 
   5.422      4.223   
   1.000      1.000   
 n=2   1   2 P   1                   # n, l, Nzeta, Polarization, NzetaPol
   6.790      4.609   
   1.000      1.000   
C                     2                    # Species label, number of l-shells
 n=2   0   2                         # n, l, Nzeta 
   4.633      3.432   
   1.000      1.000   
 n=2   1   2 P   1                   # n, l, Nzeta, Polarization, NzetaPol
   5.659      3.653   
   1.000      1.000   
%endblock PAO.Basis

prinput: ----------------------------------------------------------------------

coor:   Atomic-coordinates input format  =     Fractional

siesta: Atomic coordinates (Bohr) and species
siesta:      4.63094  34.85847   0.00000  1        1
siesta:      6.95932  30.82560   0.00000  1        2
siesta:      6.95932  33.51406   0.00000  1        3
siesta:     -0.02582  21.41544   0.00000  1        4
siesta:      2.30256  22.75985   0.00000  1        5
siesta:      2.30256  25.44831   0.00000  1        6
siesta:     -4.68258  21.41544   0.00000  1        7
siesta:     -2.35420  22.75985   0.00000  1        8
siesta:     -2.35420  25.44831   0.00000  1        9
siesta:     -9.33934  21.41544   0.00000  1       10
siesta:     -7.01096  22.75985   0.00000  1       11
siesta:     -7.01096  25.44831   0.00000  1       12
siesta:    -11.66772  22.75985   0.00000  1       13
siesta:      4.63094  26.79272   0.00000  1       14
siesta:      4.63094  29.48119   0.00000  1       15
siesta:     -0.02582  26.79272   0.00000  1       16
siesta:     -0.02582  29.48119   0.00000  1       17
siesta:      2.30256  30.82560   0.00000  1       18
siesta:      2.30256  33.51406   0.00000  1       19
siesta:     -0.02582   2.59549   0.00000  2       20
siesta:     -0.02582   5.28395   0.00000  2       21
siesta:     -2.35420  38.89134   0.00000  2       22
siesta:     -2.35420  41.57980   0.00000  2       23
siesta:      2.30256  38.89134   0.00000  2       24
siesta:      2.30256  41.57980   0.00000  2       25
siesta:      4.63094  37.54693   0.00000  2       26
siesta:      9.28770  26.79272   0.00000  2       27
siesta:      9.28770  29.48119   0.00000  2       28
siesta:     -4.68258  34.85847   0.00000  2       29
siesta:     -4.68258  37.54693   0.00000  2       30
siesta:      2.30256   6.62836   0.00000  2       31
siesta:      2.30256   9.31683   0.00000  2       32
siesta:      4.63094  10.66124   0.00000  2       33
siesta:      4.63094  13.34970   0.00000  2       34
siesta:      6.95932  14.69411   0.00000  2       35
siesta:      6.95932  17.38257   0.00000  2       36
siesta:      9.28770  18.72698   0.00000  2       37
siesta:      9.28770  21.41544   0.00000  2       38
siesta:     11.61608  22.75985   0.00000  2       39
siesta:     11.61608  25.44831   0.00000  2       40
siesta:     -2.35420   6.62836   0.00000  2       41
siesta:     -2.35420   9.31683   0.00000  2       42
siesta:     -0.02582  10.66124   0.00000  2       43
siesta:     -0.02582  13.34970   0.00000  2       44
siesta:      2.30256  14.69411   0.00000  2       45
siesta:      2.30256  17.38257   0.00000  2       46
siesta:      4.63094  18.72698   0.00000  2       47
siesta:      4.63094  21.41544   0.00000  2       48
siesta:      6.95932  22.75985   0.00000  2       49
siesta:      6.95932  25.44831   0.00000  2       50
siesta:     -4.68258  10.66124   0.00000  2       51
siesta:     -4.68258  13.34970   0.00000  2       52
siesta:     -2.35420  14.69411   0.00000  2       53
siesta:     -2.35420  17.38257   0.00000  2       54
siesta:     -0.02582  18.72698   0.00000  2       55
siesta:     -7.01096  14.69411   0.00000  2       56
siesta:     -7.01096  17.38257   0.00000  2       57
siesta:     -4.68258  18.72698   0.00000  2       58
siesta:     -9.33934  18.72698   0.00000  2       59
siesta:    -11.66772  25.44831   0.00000  2       60
siesta:     -9.33934  26.79272   0.00000  2       61
siesta:     -9.33934  29.48119   0.00000  2       62
siesta:     -4.68258  26.79272   0.00000  2       63
siesta:     -4.68258  29.48119   0.00000  2       64
siesta:     -2.35420  30.82560   0.00000  2       65
siesta:     -2.35420  33.51406   0.00000  2       66
siesta:     -7.01096  30.82560   0.00000  2       67
siesta:     -7.01096  33.51406   0.00000  2       68
siesta:     -0.02582  34.85847   0.00000  2       69
siesta:     -0.02582  37.54693   0.00000  2       70
siesta:     -0.02582  42.92421   0.00000  2       71
siesta:     -0.02582  45.61267   0.00000  2       72

siesta: System type = slab      

initatomlists: Number of atoms, orbitals, and projectors:     72   936  1152

siesta: ******************** Simulation parameters ****************************
siesta:
siesta: The following are some of the parameters of the simulation.
siesta: A complete list of the parameters used, including default values,
siesta: can be found in file out.fdf
siesta:
redata: Non-Collinear-spin run           =     F
redata: SpinPolarized (Up/Down) run      =     F
redata: Number of spin components        =     1
redata: Long output                      =     F
redata: Number of Atomic Species         =        2
redata: Charge density info will appear in .RHO file
redata: Write Mulliken Pop.              =     NO
redata: Mesh Cutoff                      =   200.0000  Ry
redata: Net charge of the system         =     0.0000 |e|
redata: Max. number of SCF Iter          =      500
redata: SCF convergence failure will abort job
redata: Performing Pulay mixing using    =    10 iterations
redata: Mix DM in first SCF step ?       =     F
redata: Write Pulay info on disk?        =     F
redata: Discard 1st Pulay DM after  kick =     F
redata: New DM Mixing Weight             =     0.0500
redata: New DM Occupancy tolerance       = 0.000000000001
redata: No kicks to SCF
redata: DM Mixing Weight for Kicks       =     0.5000
redata: DM Tolerance for SCF             =     0.000100
redata: Require Energy convergence for SCF =     F
redata: DM Energy tolerance for SCF      =     0.000100 eV
redata: Require Harris convergence for SCF =     F
redata: DM Harris energy tolerance for SCF =     0.000100 eV
redata: Using Saved Data (generic)   =     F
redata: Use continuation files for DM    =     T
redata: Neglect nonoverlap interactions  =     F
redata: Method of Calculation            =     Diagonalization
redata: Divide and Conquer               =     T
redata: Electronic Temperature           =     0.0019  Ry
redata: Fix the spin of the system       =     F
redata: Dynamics option                  =     Verlet MD run
redata: Initial MD time step             =        1
redata:   Final MD time step             =        1
redata: Length of MD time step           =     1.0000  fs
redata: Initial Temperature of MD run    =     0.0000  K
redata: Perform a MD quench              =     F
redata: ***********************************************************************
Total number of electrons:   269.000000
Total ionic charge:   269.000000

* ProcessorY, Blocksize:    2  24

k-point displ. along   1 input, could be:     0.50    0.00
k-point displ. along   2 input, could be:     0.50    0.00
 Kpoints in:          231 . Kpoints trimmed:          231

siesta: k-grid: Number of k-points =   231
siesta: k-grid: Cutoff (effective) =     5.000 Ang
siesta: k-grid: Supercell and displacements
siesta: k-grid:   21   0   0      0.500
siesta: k-grid:    0  21   0      0.500
siesta: k-grid:    0   0   1      0.000
Naive supercell factors:     2    2    2

superc: Internal auxiliary supercell:     2 x     2 x     2  =       8
superc: Number of atoms, orbitals, and projectors:    576   7488   9216

* Maximum dynamic memory allocated =     4 MB

siesta:                 ==============================
                            Begin MD step =      1
                        ==============================

superc: Internal auxiliary supercell:     2 x     2 x     2  =       8
superc: Number of atoms, orbitals, and projectors:    576   7488   9216

outcell: Unit cell vectors (Ang):
       12.804619    7.392750    0.000000
        0.000000   14.785500    0.000000
        0.000000    0.000000   10.000000

outcell: Cell vector modules (Ang)   :   14.785500   14.785500   10.000000
outcell: Cell angles (23,13,12) (deg):     90.0000     90.0000     60.0000
outcell: Cell volume (Ang**3)        :   1893.2269
New_DM. Step:     1
Initializing Density Matrix...

InitMesh: MESH =   120 x   120 x    90 =     1296000
InitMesh: Mesh cutoff (required, used) =   200.000   223.865 Ry

* Maximum dynamic memory allocated =   222 MB

stepf: Fermi-Dirac step function

siesta: Program's energy decomposition (eV):
siesta: Ebs     =     -5566.396094
siesta: Eions   =     15969.933558
siesta: Ena     =      4265.918622
siesta: Ekin    =      5376.155659
siesta: Enl     =       793.011209
siesta: DEna    =        -0.000009
siesta: DUscf   =         0.000000
siesta: DUext   =         0.000000
siesta: Exc     =     -4205.656039
siesta: eta*DQ  =         0.000000
siesta: Emadel  =         0.000000
siesta: Emeta   =         0.000000
siesta: Emolmec =         0.000000
siesta: Ekinion =         0.000000
siesta: Eharris =     -9444.974617
siesta: Etot    =     -9740.504117
siesta: FreeEng =     -9740.504117

siesta: iscf   Eharris(eV)      E_KS(eV)   FreeEng(eV)   dDmax  Ef(eV)
siesta:    1    -9444.9746    -9740.5041    -9740.5041  6.6765 -8.3627
timer: Routine,Calls,Time,% = IterSCF        1    3489.348  99.70
elaps: Routine,Calls,Wall,% = IterSCF        1     437.008  99.69
siesta:    2   -13899.2759    -8728.7342    -8728.7762 20.2353 -2.9979
siesta:    3    -9382.6047    -9593.5607    -9593.6058  3.5347 -6.5555
siesta:    4    -9357.1868    -9458.0534    -9458.0949  1.5729 -5.5740
siesta:    5    -9312.3741    -9384.5555    -9384.5871  0.8885 -5.4499
siesta:    6    -9298.8801    -9341.0087    -9341.0402  0.7464 -5.1652
siesta:    7    -9292.2050    -9326.9260    -9326.9617  0.6710 -5.1803
siesta:    8    -9288.7108    -9315.4531    -9315.4987  0.6751 -5.2209
siesta:    9    -9287.9153    -9298.2406    -9298.2912  0.5543 -5.1964
siesta:   10    -9287.0788    -9290.9916    -9291.0455  0.5072 -5.1778
siesta:   11    -9286.6513    -9273.9393    -9273.9954  0.2389 -5.0917
siesta:   12    -9286.8392    -9264.8260    -9264.8993  0.1649 -5.0428
siesta:   13    -9286.6742    -9262.2267    -9262.2974  0.1563 -5.0399
siesta:   14    -9286.2397    -9264.6473    -9264.7080  0.1131 -5.0402
siesta:   15    -9285.8363    -9266.8687    -9266.9278  0.0976 -5.0538
siesta:   16    -9285.6145    -9271.7988    -9271.8576  0.0869 -5.0830
siesta:   17    -9285.5572    -9275.3143    -9275.3723  0.0673 -5.0998
siesta:   18    -9285.5120    -9279.4069    -9279.4682  0.0315 -5.1187
siesta:   19    -9285.5078    -9282.5470    -9282.6070  0.0306 -5.1285
siesta:   20    -9285.4960    -9285.4327    -9285.4930  0.0338 -5.1346
siesta:   21    -9285.4895    -9285.2795    -9285.3411  0.0314 -5.1306
siesta:   22    -9285.4889    -9285.9964    -9286.0588  0.0272 -5.1254
siesta:   23    -9285.4867    -9286.2105    -9286.2733  0.0069 -5.1122
siesta:   24    -9285.4865    -9286.3065    -9286.3694  0.0055 -5.1095
siesta:   25    -9285.4861    -9286.2067    -9286.2690  0.0058 -5.1087
siesta:   26    -9285.4859    -9286.1224    -9286.1846  0.0052 -5.1090
siesta:   27    -9285.4856    -9286.0682    -9286.1303  0.0035 -5.1100
siesta:   28    -9285.4857    -9285.9230    -9285.9852  0.0028 -5.1103
siesta:   29    -9285.4856    -9285.7354    -9285.7976  0.0019 -5.1103
siesta:   30    -9285.4857    -9285.5850    -9285.6472  0.0010 -5.1102
siesta:   31    -9285.4857    -9285.5647    -9285.6267  0.0007 -5.1103
siesta:   32    -9285.4857    -9285.5494    -9285.6115  0.0004 -5.1104
siesta:   33    -9285.4857    -9285.5304    -9285.5924  0.0003 -5.1104
siesta:   34    -9285.4856    -9285.5233    -9285.5854  0.0001 -5.1105
siesta:   35    -9285.4856    -9285.5135    -9285.5757  0.0001 -5.1105

siesta: E_KS(eV) =            -9285.5003

siesta: E_KS - E_eggbox =     -9285.5003

siesta: Atomic forces (eV/Ang):
----------------------------------------
   Tot   -0.235489   -0.101611    0.000000
----------------------------------------
   Max  562.297393
   Res  153.113551    sqrt( Sum f_i^2 / 3N )
----------------------------------------
   Max  562.297393    constrained

Stress-tensor-Voigt (kbar):     -819.15    -2804.01       -0.66        6.72        0.00        0.00
(Free)E + p*V (eV/cell)    -7858.2058
Target enthalpy (eV/cell)    -9285.5624

siesta: Stress tensor (static) (eV/Ang**3):
        -0.511269    0.004194    0.000000
         0.004194   -1.750105    0.000000
         0.000000    0.000000   -0.000410

siesta: Pressure (static):       1207.93872739  kBar

siesta: Stress tensor (total) (eV/Ang**3):
        -0.511269    0.004194    0.000000
         0.004194   -1.750105    0.000000
         0.000000    0.000000   -0.000410

siesta: Pressure (total):       1207.93872739  kBar

siesta: Temp_ion =       0.000 K

* Maximum dynamic memory allocated =   238 MB
Computing bands...

siesta: Program's energy decomposition (eV):
siesta: Ebs     =     -4201.075328
siesta: Eions   =     15969.933558
siesta: Ena     =      4265.918622
siesta: Ekin    =      8306.116990
siesta: Enl     =      -811.960008
siesta: DEna    =      -804.277867
siesta: DUscf   =       107.435163
siesta: DUext   =         0.000000
siesta: Exc     =     -4378.799639
siesta: eta*DQ  =         0.000000
siesta: Emadel  =         0.000000
siesta: Emeta   =         0.000000
siesta: Emolmec =         0.000000
siesta: Ekinion =         0.000000
siesta: Eharris =     -9285.485642
siesta: Etot    =     -9285.500298
siesta: FreeEng =     -9285.562413

siesta: Final energy (eV):
siesta:  Band Struct. =   -4201.075328
siesta:       Kinetic =    8306.116990
siesta:       Hartree =   27476.786819
siesta:    Ext. field =       0.000000
siesta:   Exch.-corr. =   -4378.799639
siesta:  Ion-electron =  -62973.642434
siesta:       Ion-ion =   22284.037967
siesta:       Ekinion =       0.000000
siesta:         Total =   -9285.500298

siesta: Atomic forces (eV/Ang):
siesta:      1   16.569196    3.407689    0.000000
siesta:      2    9.075965   -0.007136    0.000000
siesta:      3    3.220317    3.484792    0.000000
siesta:      4   -1.261654   -4.023638    0.000000
siesta:      5    4.762218   -2.358189    0.000000
siesta:      6   -3.127007    2.284985    0.000000
siesta:      7    0.125936   -4.527892    0.000000
siesta:      8    1.418963   -0.067061    0.000000
siesta:      9   -5.581407    2.291535    0.000000
siesta:     10   -4.703367   -6.750064    0.000000
siesta:     11    0.899788   -0.429628    0.000000
siesta:     12    1.389215    4.346835    0.000000
siesta:     13   -6.093883    3.675758    0.000000
siesta:     14    5.175567   -3.084148    0.000000
siesta:     15   -2.284428    1.770943    0.000000
siesta:     16    2.028658    0.369474    0.000000
siesta:     17   -0.336595 -408.396636    0.000000
siesta:     18   14.734459    1.001499    0.000000
siesta:     19   20.148810 -401.402411    0.000000
siesta:     20   -3.275400  404.280371    0.000000
siesta:     21    5.462386 -126.544718    0.000000
siesta:     22    1.914377  127.143790    0.000000
siesta:     23  -16.166598 -547.481834    0.000000
siesta:     24    1.001168  125.611419    0.000000
siesta:     25   17.638273 -549.998126    0.000000
siesta:     26   26.088139 -548.530395    0.000000
siesta:     27    3.628820    2.402401    0.000000
siesta:     28    0.279553   -3.168790    0.000000
siesta:     29  -25.633929    4.125553    0.000000
siesta:     30  -31.507383 -549.049443    0.000000
siesta:     31   16.791778  406.087127    0.000000
siesta:     32    3.849159 -124.980889    0.000000
siesta:     33   37.606566  555.052134    0.000000
siesta:     34   26.995708   -6.925873    0.000000
siesta:     35   -2.459027   -1.474413    0.000000
siesta:     36    2.116538   -0.644478    0.000000
siesta:     37   -1.091255   -0.272487    0.000000
siesta:     38    2.839045   -2.177245    0.000000
siesta:     39   -0.158854    7.347198    0.000000
siesta:     40    0.077125   -7.465005    0.000000
siesta:     41  -18.305634  550.808701    0.000000
siesta:     42    0.039240 -127.056328    0.000000
siesta:     43   -6.530207  546.639541    0.000000
siesta:     44   -0.490626 -128.164279    0.000000
siesta:     45   20.120476  557.207937    0.000000
siesta:     46   21.741576   -5.781838    0.000000
siesta:     47   -0.853541    2.498522    0.000000
siesta:     48    2.619152   -2.423177    0.000000
siesta:     49    0.248649    0.562650    0.000000
siesta:     50    1.682745   -2.599031    0.000000
siesta:     51  -34.639024  549.940899    0.000000
siesta:     52  -26.306479   -5.634804    0.000000
siesta:     53  -22.570279  557.288846    0.000000
siesta:     54  -22.434819   -6.004970    0.000000
siesta:     55   -0.273971  562.297393    0.000000
siesta:     56    2.672641   -1.772317    0.000000
siesta:     57   -2.463875   -1.763933    0.000000
siesta:     58    1.498077   -2.058950    0.000000
siesta:     59    2.837928   -2.350771    0.000000
siesta:     60    1.308612    0.960785    0.000000
siesta:     61   -8.189477    3.425581    0.000000
siesta:     62    1.436394    0.146670    0.000000
siesta:     63    0.366580    3.735374    0.000000
siesta:     64    1.554991   -1.852966    0.000000
siesta:     65  -23.072499    3.183231    0.000000
siesta:     66  -24.927903 -559.097798    0.000000
siesta:     67   -2.584095    1.313708    0.000000
siesta:     68    2.506719    1.789259    0.000000
siesta:     69    6.617836  116.772640    0.000000
siesta:     70    2.974562 -545.496568    0.000000
siesta:     71    0.055537  129.571232    0.000000
siesta:     72    0.968289 -551.109852    0.000000
siesta: ----------------------------------------
siesta:    Tot   -0.235489   -0.101611    0.000000

siesta: Stress tensor (static) (eV/Ang**3):
siesta:    -0.511269    0.004194    0.000000
siesta:     0.004194   -1.750105    0.000000
siesta:     0.000000    0.000000   -0.000410

siesta: Cell volume =       1893.226884 Ang**3

siesta: Pressure (static):
siesta:                Solid            Molecule  Units
siesta:           0.00821124          0.11799178  Ry/Bohr**3
siesta:           0.75392790         10.83360403  eV/Ang**3
siesta:        1207.93872739      17357.53485001  kBar
(Free)E+ p_basis*V_orbitals  =       -9248.821681
(Free)Eharris+ p_basis*V_orbitals  =       -9248.793789

siesta: Electric dipole (a.u.)  =    0.000000    0.000000    0.000000
siesta: Electric dipole (Debye) =    0.000000    0.000000    0.000000

* Maximum dynamic memory allocated : Node    0 =   238 MB
* Maximum dynamic memory allocated : Node    1 =    83 MB
* Maximum dynamic memory allocated : Node    2 =    85 MB
* Maximum dynamic memory allocated : Node    3 =   225 MB
* Maximum dynamic memory allocated : Node    4 =   226 MB
* Maximum dynamic memory allocated : Node    5 =    82 MB
* Maximum dynamic memory allocated : Node    6 =    84 MB
* Maximum dynamic memory allocated : Node    7 =   210 MB

* Maximum memory occured during matrixMtoO                    

timer: CPU execution times:
timer:  Routine       Calls   Time/call    Tot.time        %
timer:  siesta            1  119695.162  119695.162   100.00
timer:  Setup             1       2.667       2.667     0.00
timer:  bands             3     243.604     730.813     0.61
timer:  writewave         1       0.016       0.016     0.00
timer:  KSV_init          1       0.000       0.000     0.00
timer:  IterMD            1  118956.442  118956.442    99.38
timer:  hsparse           1       0.515       0.515     0.00
timer:  overlap           1       7.200       7.200     0.01
timer:  IterSCF          35    3392.918  118752.127    99.21
timer:  kinefsm           2       3.748       7.497     0.01
timer:  nlefsm            2      20.073      40.146     0.03
timer:  DHSCF            36     105.487    3797.525     3.17
timer:  DHSCF1            1       0.990       0.990     0.00
timer:  DHSCF2            1      41.933      41.933     0.04
timer:  REORD           290       0.005       1.499     0.00
timer:  POISON           37       0.873      32.299     0.03
timer:  DHSCF3           36     103.148    3713.319     3.10
timer:  rhoofd           36      23.572     848.583     0.71
timer:  cellXC           36       3.277     117.981     0.10
timer:  vmat             36      48.765    1755.538     1.47
timer:  MolMec            2       0.000       0.000     0.00
timer:  diagon           35    3286.830  115039.041    96.11
timer:  c-eigval       8206       6.026   49448.929    41.31
timer:  c-buildHS      8206       0.051     421.850     0.35
timer:  cdiag         16291       6.159  100333.258    83.82
timer:  cdiag1        16291       0.384    6259.394     5.23
timer:  cdiag2        16291       1.766   28772.603    24.04
timer:  cdiag3        16291       3.732   60805.784    50.80
timer:  cdiag4        16291       0.158    2573.050     2.15
timer:  c-eigvec       8085       6.390   51663.629    43.16
timer:  c-buildD       8085       1.808   14616.353    12.21
timer:  DHSCF4            1      40.609      40.609     0.03
timer:  dfscf             1      37.844      37.844     0.03
timer:  overfsm           1       0.462       0.462     0.00
timer:  optical           1       4.576       4.576     0.00
  

elaps: ELAPSED times:
elaps:  Routine       Calls   Time/call    Tot.time        %
elaps:  siesta            1   14990.245   14990.245   100.00
elaps:  Setup             1       0.335       0.335     0.00
elaps:  bands             3      30.525      91.576     0.61
elaps:  writewave         1       0.002       0.002     0.00
elaps:  KSV_init          1       0.000       0.000     0.00
elaps:  IterMD            1   14897.729   14897.729    99.38
elaps:  hsparse           1       0.065       0.065     0.00
elaps:  overlap           1       0.906       0.906     0.01
elaps:  IterSCF          35     424.918   14872.143    99.21
elaps:  kinefsm           2       0.473       0.945     0.01
elaps:  nlefsm            2       2.531       5.061     0.03
elaps:  DHSCF            36      13.348     480.528     3.21
elaps:  DHSCF1            1       0.126       0.126     0.00
elaps:  DHSCF2            1       5.250       5.250     0.04
elaps:  REORD           290       0.001       0.204     0.00
elaps:  POISON           37       0.110       4.057     0.03
elaps:  DHSCF3           36      12.919     465.080     3.10
elaps:  rhoofd           36       6.268     225.648     1.51
elaps:  cellXC           36       0.410      14.767     0.10
elaps:  vmat             36       6.108     219.873     1.47
elaps:  MolMec            2       0.000       0.000     0.00
elaps:  diagon           35     411.636   14407.266    96.11
elaps:  c-eigval       8206       0.755    6192.781    41.31
elaps:  c-buildHS      8206       0.007      58.000     0.39
elaps:  cdiag         16291       0.769   12527.081    83.57
elaps:  cdiag1        16291       0.048     781.714     5.21
elaps:  cdiag2        16291       0.221    3604.100    24.04
elaps:  cdiag3        16291       0.468    7625.120    50.87
elaps:  cdiag4        16291       0.020     322.124     2.15
elaps:  c-eigvec       8085       0.796    6438.673    42.95
elaps:  c-buildD       8085       0.230    1861.780    12.42
elaps:  DHSCF4            1       9.990       9.990     0.07
elaps:  dfscf             1       9.442       9.442     0.06
elaps:  overfsm           1       0.060       0.060     0.00
elaps:  optical           1       0.000       0.000     0.00
  
>> End of run:  30-APR-2016   4:24:19
