Siesta Version:                                        siesta-3.2-pl-3
Architecture  : x86_64-unknown-linux-gnu--unknown
Compiler flags: mpiifort -g -O2 -fPIC -xSSE4.1 -fp-model source -shared-intel 
PARALLEL version

* Running on    8 nodes in parallel
>> Start of run:  14-APR-2016  15:00:29

                           ***********************       
                           *  WELCOME TO SIESTA  *       
                           ***********************       

reinit: Reading from standard input
************************** Dump of input data file ****************************
#(1) General system descriptors
SystemName            GRP_doping    # Descriptive name of the system
SystemLabel           GRP_doping    # Short name for naming files
%include STRUCT.fdf
%include KPT.fdf
%include BASIS.fdf
#%include TS.fdf # for transiesta calculation
#(4) DFT, Grid, SCF
XC.functional         GGA           # LDA or GGA (default = LDA)
XC.authors            PBE           # CA (Ceperley-Aldr) = PZ
                                    #    (Perdew-Zunger) - LDA - Default
                                    # PW92 (Perdew-Wang-92) - LDA
                                    # PBE (Perdew-Burke-Ernzerhof) - GGA
MeshCutoff            200.000000    Ry      # Default: 50.0 Ry ~ 0.444 Bohr
                                    #         100.0 Ry ~ 0.314 Bohr
MaxSCFIterations      500           # Default: 50
DM.MixingWeight       0.05          # Default: 0.25
DM.NumberPulay        10            # Default: 0
DM.PulayOnFile        F             # SystemLabel.P1, SystemLabel.P2
DM.Tolerance          1.d-4         # Default: 1.d-4
DM.UseSaveDM          .true.        # because of the bug
SCFMustConverge       .true.
NeglNonOverlapInt     F             # Default: F
#(5) Eigenvalue problem: order-N or diagonalization
SolutionMethod        Diagon        # or Transiesta
ElectronicTemperature 300.0 K       # Default: 300.0 K
#(6) Molecular dynamics and relaxations
#MD.TypeOfRun          CG            # Type of dynamics:
#MD.VariableCell       F
#MD.NumCGsteps         0           # 0 for single-point / 100 for gopt
#MD.MaxCGDispl         0.2 Bohr      # Default: 0.2 Bohr
#MD.MaxForceTol        0.02 eV/Ang   # Default: 0.04 eV/Ang
#MD.MaxStressTol       1.0 GPa       # Default: 1.0 GPa
# Geometry Constraints
#%block GeometryConstraints
#	position from 1 to 44
#%endblock GeometryConstraints
BandLinesScale   pi/a
%block BandLines
 1   0.00000000  0.00000000  0.00000000
50   0.00000000  0.07809418  0.00000000
50   0.04509075  0.07809242  0.00000000
20   0.00000000  0.00000000  0.00000000
%endblock BandLines
************************** End of input data file *****************************

reinit: -----------------------------------------------------------------------
reinit: System Name: GRP_doping
reinit: -----------------------------------------------------------------------
reinit: System Label: GRP_doping                                                  
reinit: -----------------------------------------------------------------------

initatom: Reading input for the pseudopotentials and atomic orbitals ----------
 Species number:            1  Label: N Atomic number:           7
 Species number:            2  Label: C Atomic number:           6
Ground state valence configuration:   2s02  2p03
Reading pseudopotential information in formatted form from N.psf

Valence configuration for pseudopotential generation:
2s( 2.00) rc: 1.48
2p( 3.00) rc: 1.48
3d( 0.00) rc: 1.48
4f( 0.00) rc: 1.48
Ground state valence configuration:   2s02  2p02
Reading pseudopotential information in formatted form from C.psf

Valence configuration for pseudopotential generation:
2s( 2.00) rc: 1.54
2p( 2.00) rc: 1.54
3d( 0.00) rc: 1.54
4f( 0.00) rc: 1.54
For N, standard SIESTA heuristics set lmxkb to 3
 (one more than the basis l, including polarization orbitals).
Use PS.lmax or PS.KBprojectors blocks to override.
For C, standard SIESTA heuristics set lmxkb to 3
 (one more than the basis l, including polarization orbitals).
Use PS.lmax or PS.KBprojectors blocks to override.

<basis_specs>
===============================================================================
N                    Z=   7    Mass=  14.010        Charge= 0.17977+309
Lmxo=1 Lmxkb= 3    BasisType=split      Semic=F
L=0  Nsemic=0  Cnfigmx=2
          n=1  nzeta=2  polorb=0
            splnorm:   0.15000    
               vcte:    0.0000    
               rinn:    0.0000    
                rcs:    0.0000      0.0000    
            lambdas:    1.0000      1.0000    
L=1  Nsemic=0  Cnfigmx=2
          n=1  nzeta=2  polorb=1
            splnorm:   0.15000    
               vcte:    0.0000    
               rinn:    0.0000    
                rcs:    0.0000      0.0000    
            lambdas:    1.0000      1.0000    
-------------------------------------------------------------------------------
L=0  Nkbl=1  erefs: 0.17977+309
L=1  Nkbl=1  erefs: 0.17977+309
L=2  Nkbl=1  erefs: 0.17977+309
L=3  Nkbl=1  erefs: 0.17977+309
===============================================================================
</basis_specs>

atom: Called for N                     (Z =   7)

read_vps: Pseudopotential generation method:
read_vps: ATM3      Troullier-Martins                       
Total valence charge:    5.00000

read_vps: Pseudopotential includes a core correction:
read_vps: Pseudo-core for xc-correction

xc_check: Exchange-correlation functional:
xc_check: GGA Perdew, Burke & Ernzerhof 1996
V l=0 = -2*Zval/r beyond r=  1.4606
V l=1 = -2*Zval/r beyond r=  1.4606
V l=2 = -2*Zval/r beyond r=  1.4606
V l=3 = -2*Zval/r beyond r=  1.4606
All V_l potentials equal beyond r=  1.4606
This should be close to max(r_c) in ps generation
All pots = -2*Zval/r beyond r=  1.4606

VLOCAL1: 99.0% of the norm of Vloc inside     20.347 Ry
VLOCAL1: 99.9% of the norm of Vloc inside     46.372 Ry
atom: Maximum radius for 4*pi*r*r*local-pseudopot. charge    1.76189
atom: Maximum radius for r*vlocal+2*Zval:    1.53550
GHOST: No ghost state for L =  0
GHOST: No ghost state for L =  1
GHOST: No ghost state for L =  2
GHOST: No ghost state for L =  3

KBgen: Kleinman-Bylander projectors: 
   l= 0   rc=  1.634559   el= -1.363963   Ekb=  5.296955   kbcos=  0.335621
   l= 1   rc=  1.614250   el= -0.521451   Ekb= -5.259161   kbcos= -0.433408
   l= 2   rc=  1.718383   el=  0.001991   Ekb= -1.271464   kbcos= -0.007566
   l= 3   rc=  1.761893   el=  0.003093   Ekb= -0.494769   kbcos= -0.001015

KBgen: Total number of  Kleinman-Bylander projectors:   16
atom: -------------------------------------------------------------------------

atom: SANKEY-TYPE ORBITALS:
atom: Selected multiple-zeta basis: split     

SPLIT: Orbitals with angular momentum L= 0

SPLIT: Basis orbitals for state 2s

SPLIT: PAO cut-off radius determined from an
SPLIT: energy shift=  0.007350 Ry

   izeta = 1
                 lambda =    1.000000
                     rc =    4.071465
                 energy =   -1.356470
                kinetic =    1.176977
    potential(screened) =   -2.533447
       potential(ionic) =   -8.057990

   izeta = 2
                 rmatch =    2.905100
              splitnorm =    0.150000
                 energy =   -1.158343
                kinetic =    1.813009
    potential(screened) =   -2.971352
       potential(ionic) =   -8.901931

SPLIT: Orbitals with angular momentum L= 1

SPLIT: Basis orbitals for state 2p

SPLIT: PAO cut-off radius determined from an
SPLIT: energy shift=  0.007350 Ry

   izeta = 1
                 lambda =    1.000000
                     rc =    4.972977
                 energy =   -0.513884
                kinetic =    3.441732
    potential(screened) =   -3.955616
       potential(ionic) =   -9.287901

   izeta = 2
                 rmatch =    3.054066
              splitnorm =    0.150000
                 energy =   -0.318226
                kinetic =    5.125348
    potential(screened) =   -5.443573
       potential(ionic) =  -11.380999

POLgen: Perturbative polarization orbital with L=  2

POLgen: Polarization orbital for state 2p

   izeta = 1
                     rc =    4.972977
                 energy =    1.607437
                kinetic =    3.268125
    potential(screened) =   -1.660688
       potential(ionic) =   -5.973652
atom: Total number of Sankey-type orbitals: 13

atm_pop: Valence configuration (for local Pseudopot. screening):
 2s( 2.00)                                                            
 2p( 3.00)                                                            
Vna: chval, zval:    5.00000   5.00000

Vna:  Cut-off radius for the neutral-atom potential:   4.972977
comcore: Pseudo-core radius Rcore=  1.554824

atom: _________________________________________________________________________

<basis_specs>
===============================================================================
C                    Z=   6    Mass=  12.010        Charge= 0.17977+309
Lmxo=1 Lmxkb= 3    BasisType=split      Semic=F
L=0  Nsemic=0  Cnfigmx=2
          n=1  nzeta=2  polorb=0
            splnorm:   0.15000    
               vcte:    0.0000    
               rinn:    0.0000    
                rcs:    0.0000      0.0000    
            lambdas:    1.0000      1.0000    
L=1  Nsemic=0  Cnfigmx=2
          n=1  nzeta=2  polorb=1
            splnorm:   0.15000    
               vcte:    0.0000    
               rinn:    0.0000    
                rcs:    0.0000      0.0000    
            lambdas:    1.0000      1.0000    
-------------------------------------------------------------------------------
L=0  Nkbl=1  erefs: 0.17977+309
L=1  Nkbl=1  erefs: 0.17977+309
L=2  Nkbl=1  erefs: 0.17977+309
L=3  Nkbl=1  erefs: 0.17977+309
===============================================================================
</basis_specs>

atom: Called for C                     (Z =   6)

read_vps: Pseudopotential generation method:
read_vps: ATM3      Troullier-Martins                       
Total valence charge:    4.00000

read_vps: Pseudopotential includes a core correction:
read_vps: Pseudo-core for xc-correction

xc_check: Exchange-correlation functional:
xc_check: GGA Perdew, Burke & Ernzerhof 1996
V l=0 = -2*Zval/r beyond r=  1.5227
V l=1 = -2*Zval/r beyond r=  1.5227
V l=2 = -2*Zval/r beyond r=  1.5227
V l=3 = -2*Zval/r beyond r=  1.5038
All V_l potentials equal beyond r=  1.5227
This should be close to max(r_c) in ps generation
All pots = -2*Zval/r beyond r=  1.5227

VLOCAL1: 99.0% of the norm of Vloc inside     18.722 Ry
VLOCAL1: 99.9% of the norm of Vloc inside     42.668 Ry
atom: Maximum radius for 4*pi*r*r*local-pseudopot. charge    1.83678
atom: Maximum radius for r*vlocal+2*Zval:    1.58088
GHOST: No ghost state for L =  0
GHOST: No ghost state for L =  1
GHOST: No ghost state for L =  2
GHOST: No ghost state for L =  3

KBgen: Kleinman-Bylander projectors: 
   l= 0   rc=  1.704034   el= -1.009801   Ekb=  5.335044   kbcos=  0.316824
   l= 1   rc=  1.704034   el= -0.388707   Ekb= -3.785862   kbcos= -0.366464
   l= 2   rc=  1.791422   el=  0.001971   Ekb= -0.970471   kbcos= -0.009212
   l= 3   rc=  1.859892   el=  0.003065   Ekb= -0.399525   kbcos= -0.001223

KBgen: Total number of  Kleinman-Bylander projectors:   16
atom: -------------------------------------------------------------------------

atom: SANKEY-TYPE ORBITALS:
atom: Selected multiple-zeta basis: split     

SPLIT: Orbitals with angular momentum L= 0

SPLIT: Basis orbitals for state 2s

SPLIT: PAO cut-off radius determined from an
SPLIT: energy shift=  0.007350 Ry

   izeta = 1
                 lambda =    1.000000
                     rc =    4.632753
                 energy =   -1.002270
                kinetic =    0.855760
    potential(screened) =   -1.858031
       potential(ionic) =   -5.417575

   izeta = 2
                 rmatch =    3.431921
              splitnorm =    0.150000
                 energy =   -0.867111
                kinetic =    1.300804
    potential(screened) =   -2.167915
       potential(ionic) =   -5.962684

SPLIT: Orbitals with angular momentum L= 1

SPLIT: Basis orbitals for state 2p

SPLIT: PAO cut-off radius determined from an
SPLIT: energy shift=  0.007350 Ry

   izeta = 1
                 lambda =    1.000000
                     rc =    5.658549
                 energy =   -0.381140
                kinetic =    2.399701
    potential(screened) =   -2.780841
       potential(ionic) =   -6.206085

   izeta = 2
                 rmatch =    3.653288
              splitnorm =    0.150000
                 energy =   -0.249149
                kinetic =    3.542762
    potential(screened) =   -3.791911
       potential(ionic) =   -7.581078

POLgen: Perturbative polarization orbital with L=  2

POLgen: Polarization orbital for state 2p

   izeta = 1
                     rc =    5.658549
                 energy =    1.109913
                kinetic =    2.304789
    potential(screened) =   -1.194876
       potential(ionic) =   -4.013592
atom: Total number of Sankey-type orbitals: 13

atm_pop: Valence configuration (for local Pseudopot. screening):
 2s( 2.00)                                                            
 2p( 2.00)                                                            
Vna: chval, zval:    4.00000   4.00000

Vna:  Cut-off radius for the neutral-atom potential:   5.658549
comcore: Pseudo-core radius Rcore=  1.791422

atom: _________________________________________________________________________

prinput: Basis input ----------------------------------------------------------

PAO.BasisType split     

%block ChemicalSpeciesLabel
    1    7 N                       # Species index, atomic number, species label
    2    6 C                       # Species index, atomic number, species label
%endblock ChemicalSpeciesLabel

%block PAO.Basis                 # Define Basis set
N                     2                    # Species label, number of l-shells
 n=2   0   2                         # n, l, Nzeta 
   4.071      2.905   
   1.000      1.000   
 n=2   1   2 P   1                   # n, l, Nzeta, Polarization, NzetaPol
   4.973      3.054   
   1.000      1.000   
C                     2                    # Species label, number of l-shells
 n=2   0   2                         # n, l, Nzeta 
   4.633      3.432   
   1.000      1.000   
 n=2   1   2 P   1                   # n, l, Nzeta, Polarization, NzetaPol
   5.659      3.653   
   1.000      1.000   
%endblock PAO.Basis

prinput: ----------------------------------------------------------------------

coor:   Atomic-coordinates input format  =     Fractional

siesta: Atomic coordinates (Bohr) and species
siesta:     -0.02582   2.59549   0.00000  1        1
siesta:      9.28770  18.72698   0.00000  1        2
siesta:     -4.68258  10.66124   0.00000  1        3
siesta:     -9.33934  18.72698   0.00000  1        4
siesta:      4.63094  29.48119   0.00000  1        5
siesta:     -0.02582  29.48119   0.00000  1        6
siesta:     -0.02582  34.85847   0.00000  1        7
siesta:     -0.02582   5.28395   0.00000  2        8
siesta:     -2.35420  38.89134   0.00000  2        9
siesta:     -2.35420  41.57980   0.00000  2       10
siesta:      2.30256  38.89134   0.00000  2       11
siesta:      2.30256  41.57980   0.00000  2       12
siesta:      4.63094  34.85847   0.00000  2       13
siesta:      4.63094  37.54693   0.00000  2       14
siesta:      6.95932  30.82560   0.00000  2       15
siesta:      6.95932  33.51406   0.00000  2       16
siesta:      9.28770  26.79272   0.00000  2       17
siesta:      9.28770  29.48119   0.00000  2       18
siesta:     -4.68258  34.85847   0.00000  2       19
siesta:     -4.68258  37.54693   0.00000  2       20
siesta:      2.30256   6.62836   0.00000  2       21
siesta:      2.30256   9.31683   0.00000  2       22
siesta:      4.63094  10.66124   0.00000  2       23
siesta:      4.63094  13.34970   0.00000  2       24
siesta:      6.95932  14.69411   0.00000  2       25
siesta:      6.95932  17.38257   0.00000  2       26
siesta:      9.28770  21.41544   0.00000  2       27
siesta:     11.61608  22.75985   0.00000  2       28
siesta:     11.61608  25.44831   0.00000  2       29
siesta:     -2.35420   6.62836   0.00000  2       30
siesta:     -2.35420   9.31683   0.00000  2       31
siesta:     -0.02582  10.66124   0.00000  2       32
siesta:     -0.02582  13.34970   0.00000  2       33
siesta:      2.30256  14.69411   0.00000  2       34
siesta:      2.30256  17.38257   0.00000  2       35
siesta:      4.63094  18.72698   0.00000  2       36
siesta:      4.63094  21.41544   0.00000  2       37
siesta:      6.95932  22.75985   0.00000  2       38
siesta:      6.95932  25.44831   0.00000  2       39
siesta:     -4.68258  13.34970   0.00000  2       40
siesta:     -2.35420  14.69411   0.00000  2       41
siesta:     -2.35420  17.38257   0.00000  2       42
siesta:     -0.02582  18.72698   0.00000  2       43
siesta:     -0.02582  21.41544   0.00000  2       44
siesta:      2.30256  22.75985   0.00000  2       45
siesta:      2.30256  25.44831   0.00000  2       46
siesta:     -7.01096  14.69411   0.00000  2       47
siesta:     -7.01096  17.38257   0.00000  2       48
siesta:     -4.68258  18.72698   0.00000  2       49
siesta:     -4.68258  21.41544   0.00000  2       50
siesta:     -2.35420  22.75985   0.00000  2       51
siesta:     -2.35420  25.44831   0.00000  2       52
siesta:     -9.33934  21.41544   0.00000  2       53
siesta:     -7.01096  22.75985   0.00000  2       54
siesta:     -7.01096  25.44831   0.00000  2       55
siesta:    -11.66772  22.75985   0.00000  2       56
siesta:    -11.66772  25.44831   0.00000  2       57
siesta:     -9.33934  26.79272   0.00000  2       58
siesta:     -9.33934  29.48119   0.00000  2       59
siesta:      4.63094  26.79272   0.00000  2       60
siesta:     -0.02582  26.79272   0.00000  2       61
siesta:     -4.68258  26.79272   0.00000  2       62
siesta:     -4.68258  29.48119   0.00000  2       63
siesta:      2.30256  30.82560   0.00000  2       64
siesta:      2.30256  33.51406   0.00000  2       65
siesta:     -2.35420  30.82560   0.00000  2       66
siesta:     -2.35420  33.51406   0.00000  2       67
siesta:     -7.01096  30.82560   0.00000  2       68
siesta:     -7.01096  33.51406   0.00000  2       69
siesta:     -0.02582  37.54693   0.00000  2       70
siesta:     -0.02582  42.92421   0.00000  2       71
siesta:     -0.02582  45.61267   0.00000  2       72

siesta: System type = slab      

initatomlists: Number of atoms, orbitals, and projectors:     72   936  1152

siesta: ******************** Simulation parameters ****************************
siesta:
siesta: The following are some of the parameters of the simulation.
siesta: A complete list of the parameters used, including default values,
siesta: can be found in file out.fdf
siesta:
redata: Non-Collinear-spin run           =     F
redata: SpinPolarized (Up/Down) run      =     F
redata: Number of spin components        =     1
redata: Long output                      =     F
redata: Number of Atomic Species         =        2
redata: Charge density info will appear in .RHO file
redata: Write Mulliken Pop.              =     NO
redata: Mesh Cutoff                      =   200.0000  Ry
redata: Net charge of the system         =     0.0000 |e|
redata: Max. number of SCF Iter          =      500
redata: SCF convergence failure will abort job
redata: Performing Pulay mixing using    =    10 iterations
redata: Mix DM in first SCF step ?       =     F
redata: Write Pulay info on disk?        =     F
redata: Discard 1st Pulay DM after  kick =     F
redata: New DM Mixing Weight             =     0.0500
redata: New DM Occupancy tolerance       = 0.000000000001
redata: No kicks to SCF
redata: DM Mixing Weight for Kicks       =     0.5000
redata: DM Tolerance for SCF             =     0.000100
redata: Require Energy convergence for SCF =     F
redata: DM Energy tolerance for SCF      =     0.000100 eV
redata: Require Harris convergence for SCF =     F
redata: DM Harris energy tolerance for SCF =     0.000100 eV
redata: Using Saved Data (generic)   =     F
redata: Use continuation files for DM    =     T
redata: Neglect nonoverlap interactions  =     F
redata: Method of Calculation            =     Diagonalization
redata: Divide and Conquer               =     T
redata: Electronic Temperature           =     0.0019  Ry
redata: Fix the spin of the system       =     F
redata: Dynamics option                  =     Verlet MD run
redata: Initial MD time step             =        1
redata:   Final MD time step             =        1
redata: Length of MD time step           =     1.0000  fs
redata: Initial Temperature of MD run    =     0.0000  K
redata: Perform a MD quench              =     F
redata: ***********************************************************************
Total number of electrons:   295.000000
Total ionic charge:   295.000000

* ProcessorY, Blocksize:    2  24

k-point displ. along   1 input, could be:     0.50    0.00
k-point displ. along   2 input, could be:     0.50    0.00
 Kpoints in:          231 . Kpoints trimmed:          231

siesta: k-grid: Number of k-points =   231
siesta: k-grid: Cutoff (effective) =     5.000 Ang
siesta: k-grid: Supercell and displacements
siesta: k-grid:   21   0   0      0.500
siesta: k-grid:    0  21   0      0.500
siesta: k-grid:    0   0   1      0.000
Naive supercell factors:     2    2    2

superc: Internal auxiliary supercell:     2 x     2 x     2  =       8
superc: Number of atoms, orbitals, and projectors:    576   7488   9216

* Maximum dynamic memory allocated =     4 MB

siesta:                 ==============================
                            Begin MD step =      1
                        ==============================

superc: Internal auxiliary supercell:     2 x     2 x     2  =       8
superc: Number of atoms, orbitals, and projectors:    576   7488   9216

outcell: Unit cell vectors (Ang):
       12.804619    7.392750    0.000000
        0.000000   14.785500    0.000000
        0.000000    0.000000   10.000000

outcell: Cell vector modules (Ang)   :   14.785500   14.785500   10.000000
outcell: Cell angles (23,13,12) (deg):     90.0000     90.0000     60.0000
outcell: Cell volume (Ang**3)        :   1893.2269
New_DM. Step:     1
Initializing Density Matrix...

iodm: Reading Density Matrix from files

InitMesh: MESH =   120 x   120 x    90 =     1296000
InitMesh: Mesh cutoff (required, used) =   200.000   223.865 Ry

* Maximum dynamic memory allocated =   194 MB

stepf: Fermi-Dirac step function

siesta: Program's energy decomposition (eV):
siesta: Ebs     =     -4723.735043
siesta: Eions   =     19528.238980
siesta: Ena     =      4799.102994
siesta: Ekin    =      9340.988052
siesta: Enl     =      -728.161117
siesta: DEna    =      -774.719197
siesta: DUscf   =        91.014970
siesta: DUext   =         0.000000
siesta: Exc     =     -4505.676806
siesta: eta*DQ  =         0.000000
siesta: Emadel  =         0.000000
siesta: Emeta   =         0.000000
siesta: Emolmec =         0.000000
siesta: Ekinion =         0.000000
siesta: Eharris =    -11230.817465
siesta: Etot    =    -11305.690084
siesta: FreeEng =    -11305.690084

siesta: iscf   Eharris(eV)      E_KS(eV)   FreeEng(eV)   dDmax  Ef(eV)
siesta:    1   -11230.8175   -11305.6901   -11305.6901  1.0501 -4.1723
timer: Routine,Calls,Time,% = IterSCF        1    3412.147  99.65
elaps: Routine,Calls,Wall,% = IterSCF        1     427.397  99.64
siesta:    2   -13419.0879   -10993.8653   -10993.9153 16.9538 -6.9640
siesta:    3   -11210.2698   -11297.4742   -11297.5053  0.8745 -4.3447
siesta:    4   -11204.9023   -11290.3645   -11290.3857  0.7268 -4.4994
siesta:    5   -11203.6104   -11286.3275   -11286.3526  0.6971 -4.5310
siesta:    6   -11206.0247   -11244.5784   -11244.6320  0.5867 -4.3479
siesta:    7   -11203.4845   -11233.0296   -11233.0407  0.5582 -4.1884
siesta:    8   -11202.5679   -11215.3923   -11215.4183  0.4362 -4.1212
siesta:    9   -11202.0381   -11200.7345   -11200.7831  0.2603 -4.2367
siesta:   10   -11201.2682   -11197.0365   -11197.0650  0.1612 -4.3069
siesta:   11   -11200.5548   -11195.4834   -11195.5449  0.1923 -4.2971
siesta:   12   -11200.3481   -11193.3069   -11193.3610  0.2396 -4.3476
siesta:   13   -11200.1221   -11193.5543   -11193.5913  0.1611 -4.3401
siesta:   14   -11200.0675   -11194.2007   -11194.2718  0.2043 -4.3049
siesta:   15   -11200.0061   -11194.5577   -11194.6128  0.1191 -4.3202
siesta:   16   -11199.9668   -11195.0405   -11195.1064  0.0893 -4.3404
siesta:   17   -11199.9887   -11195.6575   -11195.7251  0.1981 -4.3663
siesta:   18   -11199.9385   -11196.8501   -11196.9168  0.1263 -4.3674
siesta:   19   -11199.9173   -11197.9399   -11198.0115  0.0387 -4.3632
siesta:   20   -11199.9126   -11198.7946   -11198.8701  0.0573 -4.3661
siesta:   21   -11199.9108   -11199.5371   -11199.6139  0.0132 -4.3621
siesta:   22   -11199.9108   -11199.8688   -11199.9437  0.0682 -4.3665
siesta:   23   -11199.9073   -11200.2204   -11200.2955  0.0086 -4.3594
siesta:   24   -11199.9069   -11200.1925   -11200.2683  0.0127 -4.3577
siesta:   25   -11199.9058   -11200.1625   -11200.2385  0.0136 -4.3567
siesta:   26   -11199.9060   -11200.1046   -11200.1812  0.0141 -4.3574
siesta:   27   -11199.9062   -11200.0996   -11200.1759  0.0056 -4.3559
siesta:   28   -11199.9061   -11200.0481   -11200.1241  0.0019 -4.3564
siesta:   29   -11199.9061   -11200.0381   -11200.1140  0.0027 -4.3563
siesta:   30   -11199.9061   -11199.9942   -11200.0702  0.0013 -4.3566
siesta:   31   -11199.9061   -11199.9193   -11199.9953  0.0006 -4.3570
siesta:   32   -11199.9061   -11199.9218   -11199.9978  0.0009 -4.3572
siesta:   33   -11199.9061   -11199.9204   -11199.9964  0.0003 -4.3571
siesta:   34   -11199.9062   -11199.9196   -11199.9955  0.0002 -4.3571
siesta:   35   -11199.9062   -11199.9155   -11199.9915  0.0001 -4.3571
siesta:   36   -11199.9061   -11199.9119   -11199.9879  0.0001 -4.3571
siesta:   37   -11199.9061   -11199.9051   -11199.9810  0.0001 -4.3571
siesta:   38   -11199.9061   -11199.9053   -11199.9813  0.0000 -4.3571

siesta: E_KS(eV) =           -11199.9053

siesta: E_KS - E_eggbox =    -11199.9053

siesta: Atomic forces (eV/Ang):
----------------------------------------
   Tot   -0.401479   -0.083507    0.000000
----------------------------------------
   Max  778.426153
   Res  172.459239    sqrt( Sum f_i^2 / 3N )
----------------------------------------
   Max  778.426153    constrained

Stress-tensor-Voigt (kbar):     -712.80    -3000.14       -0.17        0.21        0.00        0.00
(Free)E + p*V (eV/cell)    -9737.4538
Target enthalpy (eV/cell)   -11199.9812

siesta: Stress tensor (static) (eV/Ang**3):
        -0.444891    0.000131    0.000000
         0.000131   -1.872520    0.000000
         0.000000    0.000000   -0.000105

siesta: Pressure (static):       1237.70303653  kBar

siesta: Stress tensor (total) (eV/Ang**3):
        -0.444891    0.000131    0.000000
         0.000131   -1.872520    0.000000
         0.000000    0.000000   -0.000105

siesta: Pressure (total):       1237.70303653  kBar

siesta: Temp_ion =       0.000 K

* Maximum dynamic memory allocated =   210 MB
Computing bands...

siesta: Program's energy decomposition (eV):
siesta: Ebs     =     -4796.241219
siesta: Eions   =     19528.238980
siesta: Ena     =      4799.102994
siesta: Ekin    =     10015.299625
siesta: Enl     =     -1284.045678
siesta: DEna    =      -784.103662
siesta: DUscf   =       102.962331
siesta: DUext   =         0.000000
siesta: Exc     =     -4520.881941
siesta: eta*DQ  =         0.000000
siesta: Emadel  =         0.000000
siesta: Emeta   =         0.000000
siesta: Emolmec =         0.000000
siesta: Ekinion =         0.000000
siesta: Eharris =    -11199.906142
siesta: Etot    =    -11199.905312
siesta: FreeEng =    -11199.981248

siesta: Final energy (eV):
siesta:  Band Struct. =   -4796.241219
siesta:       Kinetic =   10015.299625
siesta:       Hartree =   32617.856708
siesta:    Ext. field =       0.000000
siesta:   Exch.-corr. =   -4520.881941
siesta:  Ion-electron =  -74914.842945
siesta:       Ion-ion =   25602.663242
siesta:       Ekinion =       0.000000
siesta:         Total =  -11199.905312

siesta: Atomic forces (eV/Ang):
siesta:      1   -1.598699  744.201491    0.000000
siesta:      2   -1.748431    0.601604    0.000000
siesta:      3  -39.208638  653.381664    0.000000
siesta:      4    1.516918    0.751798    0.000000
siesta:      5   -0.372915   -4.406954    0.000000
siesta:      6    0.120725 -778.426153    0.000000
siesta:      7   -0.276013  118.238065    0.000000
siesta:      8   -0.225317 -110.297098    0.000000
siesta:      9    3.341135  129.990579    0.000000
siesta:     10  -21.286093 -550.674256    0.000000
siesta:     11   -0.785582  127.676967    0.000000
siesta:     12   17.261570 -548.671186    0.000000
siesta:     13   26.658136    6.622254    0.000000
siesta:     14   33.669001 -549.272188    0.000000
siesta:     15    1.657242    0.274904    0.000000
siesta:     16   -2.907681    0.987806    0.000000
siesta:     17    1.792610    2.392268    0.000000
siesta:     18   -1.745126    0.237862    0.000000
siesta:     19  -26.299653    6.121237    0.000000
siesta:     20  -31.028568 -651.731382    0.000000
siesta:     21    7.800237  548.681108    0.000000
siesta:     22   -0.249021 -125.014240    0.000000
siesta:     23   34.261639  549.696316    0.000000
siesta:     24   26.719305   -6.278082    0.000000
siesta:     25   -2.143990   -1.777751    0.000000
siesta:     26    2.287845    1.995426    0.000000
siesta:     27    1.037990   -4.218881    0.000000
siesta:     28   -0.194659    7.041442    0.000000
siesta:     29   -0.143030   -8.000008    0.000000
siesta:     30   -7.383802  548.697387    0.000000
siesta:     31    6.148612 -129.679497    0.000000
siesta:     32   -2.987654  545.566535    0.000000
siesta:     33   -0.833602 -125.960946    0.000000
siesta:     34   21.695849  558.197457    0.000000
siesta:     35   22.383810   -6.466481    0.000000
siesta:     36   -0.787306    2.525753    0.000000
siesta:     37    0.971333   -0.379528    0.000000
siesta:     38   -0.529798    0.648371    0.000000
siesta:     39   -0.083509   -0.485981    0.000000
siesta:     40  -24.518616   -4.895401    0.000000
siesta:     41  -16.436261  560.825523    0.000000
siesta:     42  -22.813339   -5.866303    0.000000
siesta:     43   -0.629279  562.205867    0.000000
siesta:     44    0.471041    1.156223    0.000000
siesta:     45   -0.922284    0.052973    0.000000
siesta:     46    1.360259    0.821426    0.000000
siesta:     47    2.375982   -2.028199    0.000000
siesta:     48   -2.198816    1.553795    0.000000
siesta:     49    1.029808    2.488746    0.000000
siesta:     50   -0.880655   -0.143356    0.000000
siesta:     51    0.425476    0.646274    0.000000
siesta:     52   -0.963146   -0.113423    0.000000
siesta:     53   -1.181486   -4.531789    0.000000
siesta:     54    0.508929    0.854408    0.000000
siesta:     55    0.162839   -0.889718    0.000000
siesta:     56    0.260714    7.334442    0.000000
siesta:     57    0.112479   -8.232160    0.000000
siesta:     58   -1.922613    2.487466    0.000000
siesta:     59    1.354097   -0.361447    0.000000
siesta:     60    0.180215    0.915790    0.000000
siesta:     61   -0.190503   -0.603388    0.000000
siesta:     62   -0.435026    0.481820    0.000000
siesta:     63    0.652827   -3.818543    0.000000
siesta:     64   31.780444    8.867843    0.000000
siesta:     65   18.385194 -563.309232    0.000000
siesta:     66  -30.147350    9.199519    0.000000
siesta:     67  -18.899886 -564.668899    0.000000
siesta:     68   -1.544241    0.512444    0.000000
siesta:     69    2.935556    1.863856    0.000000
siesta:     70   -4.378672 -536.970426    0.000000
siesta:     71   -1.454689  129.237517    0.000000
siesta:     72    0.614652 -547.944840    0.000000
siesta: ----------------------------------------
siesta:    Tot   -0.401479   -0.083507    0.000000

siesta: Stress tensor (static) (eV/Ang**3):
siesta:    -0.444891    0.000131    0.000000
siesta:     0.000131   -1.872520    0.000000
siesta:     0.000000    0.000000   -0.000105

siesta: Cell volume =       1893.226884 Ang**3

siesta: Pressure (static):
siesta:                Solid            Molecule  Units
siesta:           0.00841357          0.13491186  Ry/Bohr**3
siesta:           0.77250512         12.38714830  eV/Ang**3
siesta:        1237.70303653      19846.61408520  kBar
(Free)E+ p_basis*V_orbitals  =      -11170.244374
(Free)Eharris+ p_basis*V_orbitals  =      -11170.245195

siesta: Electric dipole (a.u.)  =    0.000000    0.000000    0.000000
siesta: Electric dipole (Debye) =    0.000000    0.000000    0.000000

* Maximum dynamic memory allocated : Node    0 =   210 MB
* Maximum dynamic memory allocated : Node    1 =    73 MB
* Maximum dynamic memory allocated : Node    2 =    76 MB
* Maximum dynamic memory allocated : Node    3 =   200 MB
* Maximum dynamic memory allocated : Node    4 =   195 MB
* Maximum dynamic memory allocated : Node    5 =    73 MB
* Maximum dynamic memory allocated : Node    6 =    73 MB
* Maximum dynamic memory allocated : Node    7 =   180 MB

* Maximum memory occured during matrixMtoO                    

timer: CPU execution times:
timer:  Routine       Calls   Time/call    Tot.time        %
timer:  siesta            1  128043.273  128043.273   100.00
timer:  Setup             1       3.857       3.857     0.00
timer:  bands             3     244.222     732.665     0.57
timer:  writewave         1       0.045       0.045     0.00
timer:  KSV_init          1       0.007       0.007     0.00
timer:  IterMD            1  127301.544  127301.544    99.42
timer:  hsparse           1       0.284       0.284     0.00
timer:  overlap           1       5.488       5.488     0.00
timer:  IterSCF          38    3345.788  127139.950    99.29
timer:  kinefsm           2       2.855       5.710     0.00
timer:  nlefsm            2      18.019      36.039     0.03
timer:  DHSCF            39      80.759    3149.611     2.46
timer:  DHSCF1            1       0.744       0.744     0.00
timer:  DHSCF2            1      31.583      31.583     0.02
timer:  REORD           314       0.005       1.478     0.00
timer:  POISON           40       0.875      35.010     0.03
timer:  DHSCF3           39      79.129    3086.039     2.41
timer:  rhoofd           39      17.106     667.133     0.52
timer:  cellXC           39       3.324     129.621     0.10
timer:  vmat             39      36.524    1424.417     1.11
timer:  MolMec            2       0.000       0.000     0.00
timer:  diagon           38    3263.756  124022.736    96.86
timer:  c-eigval       8899       6.039   53739.590    41.97
timer:  c-buildHS      8899       0.048     426.629     0.33
timer:  cdiag         17677       6.172  109100.752    85.21
timer:  cdiag1        17677       0.386    6817.059     5.32
timer:  cdiag2        17677       1.770   31295.110    24.44
timer:  cdiag3        17677       3.739   66096.576    51.62
timer:  cdiag4        17677       0.151    2666.183     2.08
timer:  c-eigvec       8778       6.394   56128.915    43.84
timer:  c-buildD       8778       1.691   14842.368    11.59
timer:  DHSCF4            1      30.488      30.488     0.02
timer:  dfscf             1      28.559      28.559     0.02
timer:  overfsm           1       0.391       0.391     0.00
timer:  optical           1       4.584       4.584     0.00
  

elaps: ELAPSED times:
elaps:  Routine       Calls   Time/call    Tot.time        %
elaps:  siesta            1   16035.685   16035.685   100.00
elaps:  Setup             1       0.500       0.500     0.00
elaps:  bands             3      30.604      91.811     0.57
elaps:  writewave         1       0.006       0.006     0.00
elaps:  KSV_init          1       0.001       0.001     0.00
elaps:  IterMD            1   15942.772   15942.772    99.42
elaps:  hsparse           1       0.035       0.035     0.00
elaps:  overlap           1       0.898       0.898     0.01
elaps:  IterSCF          38     419.017   15922.649    99.30
elaps:  kinefsm           2       0.465       0.930     0.01
elaps:  nlefsm            2       2.243       4.486     0.03
elaps:  DHSCF            39      10.217     398.451     2.48
elaps:  DHSCF1            1       0.095       0.095     0.00
elaps:  DHSCF2            1       3.954       3.954     0.02
elaps:  REORD           314       0.001       0.210     0.00
elaps:  POISON           40       0.110       4.403     0.03
elaps:  DHSCF3           39       9.910     386.493     2.41
elaps:  rhoofd           39       4.729     184.430     1.15
elaps:  cellXC           39       0.416      16.221     0.10
elaps:  vmat             39       4.574     178.395     1.11
elaps:  MolMec            2       0.000       0.000     0.00
elaps:  diagon           38     408.737   15532.002    96.86
elaps:  c-eigval       8899       0.756    6729.933    41.97
elaps:  c-buildHS      8899       0.007      58.426     0.36
elaps:  cdiag         17677       0.769   13598.191    84.80
elaps:  cdiag1        17677       0.048     849.283     5.30
elaps:  cdiag2        17677       0.222    3919.894    24.44
elaps:  cdiag3        17677       0.469    8288.744    51.69
elaps:  cdiag4        17677       0.019     332.418     2.07
elaps:  c-eigvec       8778       0.794    6973.638    43.49
elaps:  c-buildD       8778       0.218    1914.122    11.94
elaps:  DHSCF4            1       7.814       7.814     0.05
elaps:  dfscf             1       7.400       7.400     0.05
elaps:  overfsm           1       0.050       0.050     0.00
elaps:  optical           1       0.001       0.001     0.00
  
>> End of run:  14-APR-2016  19:27:45
