Siesta Version:                                        siesta-3.2-pl-3
Architecture  : x86_64-unknown-linux-gnu--unknown
Compiler flags: mpiifort -g -O2 -fPIC -xSSE4.1 -fp-model source -shared-intel 
PARALLEL version

* Running on    8 nodes in parallel
>> Start of run:   1-MAY-2016   0:26:22

                           ***********************       
                           *  WELCOME TO SIESTA  *       
                           ***********************       

reinit: Reading from standard input
************************** Dump of input data file ****************************
#(1) General system descriptors
SystemName            GRP_doping    # Descriptive name of the system
SystemLabel           GRP_doping    # Short name for naming files
%include STRUCT.fdf
%include KPT.fdf
%include BASIS.fdf
#%include TS.fdf # for transiesta calculation
#(4) DFT, Grid, SCF
XC.functional         GGA           # LDA or GGA (default = LDA)
XC.authors            PBE           # CA (Ceperley-Aldr) = PZ
                                    #    (Perdew-Zunger) - LDA - Default
                                    # PW92 (Perdew-Wang-92) - LDA
                                    # PBE (Perdew-Burke-Ernzerhof) - GGA
MeshCutoff            200.000000    Ry      # Default: 50.0 Ry ~ 0.444 Bohr
                                    #         100.0 Ry ~ 0.314 Bohr
MaxSCFIterations      500           # Default: 50
DM.MixingWeight       0.05          # Default: 0.25
DM.NumberPulay        10            # Default: 0
DM.PulayOnFile        F             # SystemLabel.P1, SystemLabel.P2
DM.Tolerance          1.d-4         # Default: 1.d-4
DM.UseSaveDM          .true.        # because of the bug
SCFMustConverge       .true.
NeglNonOverlapInt     F             # Default: F
#(5) Eigenvalue problem: order-N or diagonalization
SolutionMethod        Diagon        # or Transiesta
ElectronicTemperature 300.0 K       # Default: 300.0 K
#(6) Molecular dynamics and relaxations
#MD.TypeOfRun          CG            # Type of dynamics:
#MD.VariableCell       F
#MD.NumCGsteps         0           # 0 for single-point / 100 for gopt
#MD.MaxCGDispl         0.2 Bohr      # Default: 0.2 Bohr
#MD.MaxForceTol        0.02 eV/Ang   # Default: 0.04 eV/Ang
#MD.MaxStressTol       1.0 GPa       # Default: 1.0 GPa
# Geometry Constraints
#%block GeometryConstraints
#	position from 1 to 44
#%endblock GeometryConstraints
BandLinesScale   pi/a
%block BandLines
 1   0.00000000  0.00000000  0.00000000
50   0.00000000  0.07809418  0.00000000
50   0.04509075  0.07809242  0.00000000
20   0.00000000  0.00000000  0.00000000
%endblock BandLines
************************** End of input data file *****************************

reinit: -----------------------------------------------------------------------
reinit: System Name: GRP_doping
reinit: -----------------------------------------------------------------------
reinit: System Label: GRP_doping                                                  
reinit: -----------------------------------------------------------------------

initatom: Reading input for the pseudopotentials and atomic orbitals ----------
 Species number:            1  Label: N Atomic number:           7
 Species number:            2  Label: C Atomic number:           6
Ground state valence configuration:   2s02  2p03
Reading pseudopotential information in formatted form from N.psf

Valence configuration for pseudopotential generation:
2s( 2.00) rc: 1.48
2p( 3.00) rc: 1.48
3d( 0.00) rc: 1.48
4f( 0.00) rc: 1.48
Ground state valence configuration:   2s02  2p02
Reading pseudopotential information in formatted form from C.psf

Valence configuration for pseudopotential generation:
2s( 2.00) rc: 1.54
2p( 2.00) rc: 1.54
3d( 0.00) rc: 1.54
4f( 0.00) rc: 1.54
For N, standard SIESTA heuristics set lmxkb to 3
 (one more than the basis l, including polarization orbitals).
Use PS.lmax or PS.KBprojectors blocks to override.
For C, standard SIESTA heuristics set lmxkb to 3
 (one more than the basis l, including polarization orbitals).
Use PS.lmax or PS.KBprojectors blocks to override.

<basis_specs>
===============================================================================
N                    Z=   7    Mass=  14.010        Charge= 0.17977+309
Lmxo=1 Lmxkb= 3    BasisType=split      Semic=F
L=0  Nsemic=0  Cnfigmx=2
          n=1  nzeta=2  polorb=0
            splnorm:   0.15000    
               vcte:    0.0000    
               rinn:    0.0000    
                rcs:    0.0000      0.0000    
            lambdas:    1.0000      1.0000    
L=1  Nsemic=0  Cnfigmx=2
          n=1  nzeta=2  polorb=1
            splnorm:   0.15000    
               vcte:    0.0000    
               rinn:    0.0000    
                rcs:    0.0000      0.0000    
            lambdas:    1.0000      1.0000    
-------------------------------------------------------------------------------
L=0  Nkbl=1  erefs: 0.17977+309
L=1  Nkbl=1  erefs: 0.17977+309
L=2  Nkbl=1  erefs: 0.17977+309
L=3  Nkbl=1  erefs: 0.17977+309
===============================================================================
</basis_specs>

atom: Called for N                     (Z =   7)

read_vps: Pseudopotential generation method:
read_vps: ATM3      Troullier-Martins                       
Total valence charge:    5.00000

read_vps: Pseudopotential includes a core correction:
read_vps: Pseudo-core for xc-correction

xc_check: Exchange-correlation functional:
xc_check: GGA Perdew, Burke & Ernzerhof 1996
V l=0 = -2*Zval/r beyond r=  1.4606
V l=1 = -2*Zval/r beyond r=  1.4606
V l=2 = -2*Zval/r beyond r=  1.4606
V l=3 = -2*Zval/r beyond r=  1.4606
All V_l potentials equal beyond r=  1.4606
This should be close to max(r_c) in ps generation
All pots = -2*Zval/r beyond r=  1.4606

VLOCAL1: 99.0% of the norm of Vloc inside     20.347 Ry
VLOCAL1: 99.9% of the norm of Vloc inside     46.372 Ry
atom: Maximum radius for 4*pi*r*r*local-pseudopot. charge    1.76189
atom: Maximum radius for r*vlocal+2*Zval:    1.53550
GHOST: No ghost state for L =  0
GHOST: No ghost state for L =  1
GHOST: No ghost state for L =  2
GHOST: No ghost state for L =  3

KBgen: Kleinman-Bylander projectors: 
   l= 0   rc=  1.634559   el= -1.363963   Ekb=  5.296955   kbcos=  0.335621
   l= 1   rc=  1.614250   el= -0.521451   Ekb= -5.259161   kbcos= -0.433408
   l= 2   rc=  1.718383   el=  0.001991   Ekb= -1.271464   kbcos= -0.007566
   l= 3   rc=  1.761893   el=  0.003093   Ekb= -0.494769   kbcos= -0.001015

KBgen: Total number of  Kleinman-Bylander projectors:   16
atom: -------------------------------------------------------------------------

atom: SANKEY-TYPE ORBITALS:
atom: Selected multiple-zeta basis: split     

SPLIT: Orbitals with angular momentum L= 0

SPLIT: Basis orbitals for state 2s

SPLIT: PAO cut-off radius determined from an
SPLIT: energy shift=  0.007350 Ry

   izeta = 1
                 lambda =    1.000000
                     rc =    4.071465
                 energy =   -1.356470
                kinetic =    1.176977
    potential(screened) =   -2.533447
       potential(ionic) =   -8.057990

   izeta = 2
                 rmatch =    2.905100
              splitnorm =    0.150000
                 energy =   -1.158343
                kinetic =    1.813009
    potential(screened) =   -2.971352
       potential(ionic) =   -8.901931

SPLIT: Orbitals with angular momentum L= 1

SPLIT: Basis orbitals for state 2p

SPLIT: PAO cut-off radius determined from an
SPLIT: energy shift=  0.007350 Ry

   izeta = 1
                 lambda =    1.000000
                     rc =    4.972977
                 energy =   -0.513884
                kinetic =    3.441732
    potential(screened) =   -3.955616
       potential(ionic) =   -9.287901

   izeta = 2
                 rmatch =    3.054066
              splitnorm =    0.150000
                 energy =   -0.318226
                kinetic =    5.125348
    potential(screened) =   -5.443573
       potential(ionic) =  -11.380999

POLgen: Perturbative polarization orbital with L=  2

POLgen: Polarization orbital for state 2p

   izeta = 1
                     rc =    4.972977
                 energy =    1.607437
                kinetic =    3.268125
    potential(screened) =   -1.660688
       potential(ionic) =   -5.973652
atom: Total number of Sankey-type orbitals: 13

atm_pop: Valence configuration (for local Pseudopot. screening):
 2s( 2.00)                                                            
 2p( 3.00)                                                            
Vna: chval, zval:    5.00000   5.00000

Vna:  Cut-off radius for the neutral-atom potential:   4.972977
comcore: Pseudo-core radius Rcore=  1.554824

atom: _________________________________________________________________________

<basis_specs>
===============================================================================
C                    Z=   6    Mass=  12.010        Charge= 0.17977+309
Lmxo=1 Lmxkb= 3    BasisType=split      Semic=F
L=0  Nsemic=0  Cnfigmx=2
          n=1  nzeta=2  polorb=0
            splnorm:   0.15000    
               vcte:    0.0000    
               rinn:    0.0000    
                rcs:    0.0000      0.0000    
            lambdas:    1.0000      1.0000    
L=1  Nsemic=0  Cnfigmx=2
          n=1  nzeta=2  polorb=1
            splnorm:   0.15000    
               vcte:    0.0000    
               rinn:    0.0000    
                rcs:    0.0000      0.0000    
            lambdas:    1.0000      1.0000    
-------------------------------------------------------------------------------
L=0  Nkbl=1  erefs: 0.17977+309
L=1  Nkbl=1  erefs: 0.17977+309
L=2  Nkbl=1  erefs: 0.17977+309
L=3  Nkbl=1  erefs: 0.17977+309
===============================================================================
</basis_specs>

atom: Called for C                     (Z =   6)

read_vps: Pseudopotential generation method:
read_vps: ATM3      Troullier-Martins                       
Total valence charge:    4.00000

read_vps: Pseudopotential includes a core correction:
read_vps: Pseudo-core for xc-correction

xc_check: Exchange-correlation functional:
xc_check: GGA Perdew, Burke & Ernzerhof 1996
V l=0 = -2*Zval/r beyond r=  1.5227
V l=1 = -2*Zval/r beyond r=  1.5227
V l=2 = -2*Zval/r beyond r=  1.5227
V l=3 = -2*Zval/r beyond r=  1.5038
All V_l potentials equal beyond r=  1.5227
This should be close to max(r_c) in ps generation
All pots = -2*Zval/r beyond r=  1.5227

VLOCAL1: 99.0% of the norm of Vloc inside     18.722 Ry
VLOCAL1: 99.9% of the norm of Vloc inside     42.668 Ry
atom: Maximum radius for 4*pi*r*r*local-pseudopot. charge    1.83678
atom: Maximum radius for r*vlocal+2*Zval:    1.58088
GHOST: No ghost state for L =  0
GHOST: No ghost state for L =  1
GHOST: No ghost state for L =  2
GHOST: No ghost state for L =  3

KBgen: Kleinman-Bylander projectors: 
   l= 0   rc=  1.704034   el= -1.009801   Ekb=  5.335044   kbcos=  0.316824
   l= 1   rc=  1.704034   el= -0.388707   Ekb= -3.785862   kbcos= -0.366464
   l= 2   rc=  1.791422   el=  0.001971   Ekb= -0.970471   kbcos= -0.009212
   l= 3   rc=  1.859892   el=  0.003065   Ekb= -0.399525   kbcos= -0.001223

KBgen: Total number of  Kleinman-Bylander projectors:   16
atom: -------------------------------------------------------------------------

atom: SANKEY-TYPE ORBITALS:
atom: Selected multiple-zeta basis: split     

SPLIT: Orbitals with angular momentum L= 0

SPLIT: Basis orbitals for state 2s

SPLIT: PAO cut-off radius determined from an
SPLIT: energy shift=  0.007350 Ry

   izeta = 1
                 lambda =    1.000000
                     rc =    4.632753
                 energy =   -1.002270
                kinetic =    0.855760
    potential(screened) =   -1.858031
       potential(ionic) =   -5.417575

   izeta = 2
                 rmatch =    3.431921
              splitnorm =    0.150000
                 energy =   -0.867111
                kinetic =    1.300804
    potential(screened) =   -2.167915
       potential(ionic) =   -5.962684

SPLIT: Orbitals with angular momentum L= 1

SPLIT: Basis orbitals for state 2p

SPLIT: PAO cut-off radius determined from an
SPLIT: energy shift=  0.007350 Ry

   izeta = 1
                 lambda =    1.000000
                     rc =    5.658549
                 energy =   -0.381140
                kinetic =    2.399701
    potential(screened) =   -2.780841
       potential(ionic) =   -6.206085

   izeta = 2
                 rmatch =    3.653288
              splitnorm =    0.150000
                 energy =   -0.249149
                kinetic =    3.542762
    potential(screened) =   -3.791911
       potential(ionic) =   -7.581078

POLgen: Perturbative polarization orbital with L=  2

POLgen: Polarization orbital for state 2p

   izeta = 1
                     rc =    5.658549
                 energy =    1.109913
                kinetic =    2.304789
    potential(screened) =   -1.194876
       potential(ionic) =   -4.013592
atom: Total number of Sankey-type orbitals: 13

atm_pop: Valence configuration (for local Pseudopot. screening):
 2s( 2.00)                                                            
 2p( 2.00)                                                            
Vna: chval, zval:    4.00000   4.00000

Vna:  Cut-off radius for the neutral-atom potential:   5.658549
comcore: Pseudo-core radius Rcore=  1.791422

atom: _________________________________________________________________________

prinput: Basis input ----------------------------------------------------------

PAO.BasisType split     

%block ChemicalSpeciesLabel
    1    7 N                       # Species index, atomic number, species label
    2    6 C                       # Species index, atomic number, species label
%endblock ChemicalSpeciesLabel

%block PAO.Basis                 # Define Basis set
N                     2                    # Species label, number of l-shells
 n=2   0   2                         # n, l, Nzeta 
   4.071      2.905   
   1.000      1.000   
 n=2   1   2 P   1                   # n, l, Nzeta, Polarization, NzetaPol
   4.973      3.054   
   1.000      1.000   
C                     2                    # Species label, number of l-shells
 n=2   0   2                         # n, l, Nzeta 
   4.633      3.432   
   1.000      1.000   
 n=2   1   2 P   1                   # n, l, Nzeta, Polarization, NzetaPol
   5.659      3.653   
   1.000      1.000   
%endblock PAO.Basis

prinput: ----------------------------------------------------------------------

coor:   Atomic-coordinates input format  =     Fractional

siesta: Atomic coordinates (Bohr) and species
siesta:      6.95932  30.82560   0.00000  1        1
siesta:      9.28770  26.79272   0.00000  1        2
siesta:      9.28770  29.48119   0.00000  1        3
siesta:     11.61608  25.44831   0.00000  1        4
siesta:     -0.02582  21.41544   0.00000  1        5
siesta:      2.30256  22.75985   0.00000  1        6
siesta:      2.30256  25.44831   0.00000  1        7
siesta:     -4.68258  21.41544   0.00000  1        8
siesta:     -2.35420  22.75985   0.00000  1        9
siesta:     -2.35420  25.44831   0.00000  1       10
siesta:     -9.33934  21.41544   0.00000  1       11
siesta:     -7.01096  22.75985   0.00000  1       12
siesta:     -7.01096  25.44831   0.00000  1       13
siesta:    -11.66772  22.75985   0.00000  1       14
siesta:      4.63094  26.79272   0.00000  1       15
siesta:      4.63094  29.48119   0.00000  1       16
siesta:     -0.02582  26.79272   0.00000  1       17
siesta:     -0.02582  29.48119   0.00000  1       18
siesta:      2.30256  30.82560   0.00000  1       19
siesta:     -0.02582   2.59549   0.00000  2       20
siesta:     -0.02582   5.28395   0.00000  2       21
siesta:     -2.35420  38.89134   0.00000  2       22
siesta:     -2.35420  41.57980   0.00000  2       23
siesta:      2.30256  38.89134   0.00000  2       24
siesta:      2.30256  41.57980   0.00000  2       25
siesta:      4.63094  34.85847   0.00000  2       26
siesta:      4.63094  37.54693   0.00000  2       27
siesta:      6.95932  33.51406   0.00000  2       28
siesta:     -4.68258  34.85847   0.00000  2       29
siesta:     -4.68258  37.54693   0.00000  2       30
siesta:      2.30256   6.62836   0.00000  2       31
siesta:      2.30256   9.31683   0.00000  2       32
siesta:      4.63094  10.66124   0.00000  2       33
siesta:      4.63094  13.34970   0.00000  2       34
siesta:      6.95932  14.69411   0.00000  2       35
siesta:      6.95932  17.38257   0.00000  2       36
siesta:      9.28770  18.72698   0.00000  2       37
siesta:      9.28770  21.41544   0.00000  2       38
siesta:     11.61608  22.75985   0.00000  2       39
siesta:     -2.35420   6.62836   0.00000  2       40
siesta:     -2.35420   9.31683   0.00000  2       41
siesta:     -0.02582  10.66124   0.00000  2       42
siesta:     -0.02582  13.34970   0.00000  2       43
siesta:      2.30256  14.69411   0.00000  2       44
siesta:      2.30256  17.38257   0.00000  2       45
siesta:      4.63094  18.72698   0.00000  2       46
siesta:      4.63094  21.41544   0.00000  2       47
siesta:      6.95932  22.75985   0.00000  2       48
siesta:      6.95932  25.44831   0.00000  2       49
siesta:     -4.68258  10.66124   0.00000  2       50
siesta:     -4.68258  13.34970   0.00000  2       51
siesta:     -2.35420  14.69411   0.00000  2       52
siesta:     -2.35420  17.38257   0.00000  2       53
siesta:     -0.02582  18.72698   0.00000  2       54
siesta:     -7.01096  14.69411   0.00000  2       55
siesta:     -7.01096  17.38257   0.00000  2       56
siesta:     -4.68258  18.72698   0.00000  2       57
siesta:     -9.33934  18.72698   0.00000  2       58
siesta:    -11.66772  25.44831   0.00000  2       59
siesta:     -9.33934  26.79272   0.00000  2       60
siesta:     -9.33934  29.48119   0.00000  2       61
siesta:     -4.68258  26.79272   0.00000  2       62
siesta:     -4.68258  29.48119   0.00000  2       63
siesta:      2.30256  33.51406   0.00000  2       64
siesta:     -2.35420  30.82560   0.00000  2       65
siesta:     -2.35420  33.51406   0.00000  2       66
siesta:     -7.01096  30.82560   0.00000  2       67
siesta:     -7.01096  33.51406   0.00000  2       68
siesta:     -0.02582  34.85847   0.00000  2       69
siesta:     -0.02582  37.54693   0.00000  2       70
siesta:     -0.02582  42.92421   0.00000  2       71
siesta:     -0.02582  45.61267   0.00000  2       72

siesta: System type = slab      

initatomlists: Number of atoms, orbitals, and projectors:     72   936  1152

siesta: ******************** Simulation parameters ****************************
siesta:
siesta: The following are some of the parameters of the simulation.
siesta: A complete list of the parameters used, including default values,
siesta: can be found in file out.fdf
siesta:
redata: Non-Collinear-spin run           =     F
redata: SpinPolarized (Up/Down) run      =     F
redata: Number of spin components        =     1
redata: Long output                      =     F
redata: Number of Atomic Species         =        2
redata: Charge density info will appear in .RHO file
redata: Write Mulliken Pop.              =     NO
redata: Mesh Cutoff                      =   200.0000  Ry
redata: Net charge of the system         =     0.0000 |e|
redata: Max. number of SCF Iter          =      500
redata: SCF convergence failure will abort job
redata: Performing Pulay mixing using    =    10 iterations
redata: Mix DM in first SCF step ?       =     F
redata: Write Pulay info on disk?        =     F
redata: Discard 1st Pulay DM after  kick =     F
redata: New DM Mixing Weight             =     0.0500
redata: New DM Occupancy tolerance       = 0.000000000001
redata: No kicks to SCF
redata: DM Mixing Weight for Kicks       =     0.5000
redata: DM Tolerance for SCF             =     0.000100
redata: Require Energy convergence for SCF =     F
redata: DM Energy tolerance for SCF      =     0.000100 eV
redata: Require Harris convergence for SCF =     F
redata: DM Harris energy tolerance for SCF =     0.000100 eV
redata: Using Saved Data (generic)   =     F
redata: Use continuation files for DM    =     T
redata: Neglect nonoverlap interactions  =     F
redata: Method of Calculation            =     Diagonalization
redata: Divide and Conquer               =     T
redata: Electronic Temperature           =     0.0019  Ry
redata: Fix the spin of the system       =     F
redata: Dynamics option                  =     Verlet MD run
redata: Initial MD time step             =        1
redata:   Final MD time step             =        1
redata: Length of MD time step           =     1.0000  fs
redata: Initial Temperature of MD run    =     0.0000  K
redata: Perform a MD quench              =     F
redata: ***********************************************************************
Total number of electrons:   307.000000
Total ionic charge:   307.000000

* ProcessorY, Blocksize:    2  24

k-point displ. along   1 input, could be:     0.50    0.00
k-point displ. along   2 input, could be:     0.50    0.00
 Kpoints in:          231 . Kpoints trimmed:          231

siesta: k-grid: Number of k-points =   231
siesta: k-grid: Cutoff (effective) =     5.000 Ang
siesta: k-grid: Supercell and displacements
siesta: k-grid:   21   0   0      0.500
siesta: k-grid:    0  21   0      0.500
siesta: k-grid:    0   0   1      0.000
Naive supercell factors:     2    2    2

superc: Internal auxiliary supercell:     2 x     2 x     2  =       8
superc: Number of atoms, orbitals, and projectors:    576   7488   9216

* Maximum dynamic memory allocated =     4 MB

siesta:                 ==============================
                            Begin MD step =      1
                        ==============================

superc: Internal auxiliary supercell:     2 x     2 x     2  =       8
superc: Number of atoms, orbitals, and projectors:    576   7488   9216

outcell: Unit cell vectors (Ang):
       12.804619    7.392750    0.000000
        0.000000   14.785500    0.000000
        0.000000    0.000000   10.000000

outcell: Cell vector modules (Ang)   :   14.785500   14.785500   10.000000
outcell: Cell angles (23,13,12) (deg):     90.0000     90.0000     60.0000
outcell: Cell volume (Ang**3)        :   1893.2269
New_DM. Step:     1
Initializing Density Matrix...

InitMesh: MESH =   120 x   120 x    90 =     1296000
InitMesh: Mesh cutoff (required, used) =   200.000   223.865 Ry

* Maximum dynamic memory allocated =   187 MB

stepf: Fermi-Dirac step function

siesta: Program's energy decomposition (eV):
siesta: Ebs     =     -6174.586078
siesta: Eions   =     21457.201110
siesta: Ena     =      4906.506042
siesta: Ekin    =      7972.707975
siesta: Enl     =       101.179915
siesta: DEna    =        -0.000015
siesta: DUscf   =         0.000000
siesta: DUext   =         0.000000
siesta: Exc     =     -4636.616226
siesta: eta*DQ  =         0.000000
siesta: Emadel  =         0.000000
siesta: Emeta   =         0.000000
siesta: Emolmec =         0.000000
siesta: Ekinion =         0.000000
siesta: Eharris =    -12777.652448
siesta: Etot    =    -13113.423418
siesta: FreeEng =    -13113.423418

siesta: iscf   Eharris(eV)      E_KS(eV)   FreeEng(eV)   dDmax  Ef(eV)
siesta:    1   -12777.6524   -13113.4234   -13113.4234  6.3051 -6.8869
timer: Routine,Calls,Time,% = IterSCF        1    4129.896  99.73
elaps: Routine,Calls,Wall,% = IterSCF        1     516.826  99.73
siesta:    2   -20291.1554   -11796.0961   -11796.1413 15.9640 -9.3689
siesta:    3   -12744.1745   -12927.1915   -12927.2275  2.7716 -4.9850
siesta:    4   -12677.6579   -12805.0556   -12805.1045  1.3227 -4.6030
siesta:    5   -12633.9183   -12700.0168   -12700.0897  0.8267 -4.2134
siesta:    6   -12617.7557   -12657.0137   -12657.0282  0.7663 -3.7981
siesta:    7   -12608.2932   -12645.6409   -12645.6812  0.6627 -3.8589
siesta:    8   -12599.9490   -12627.8602   -12627.8989  0.6644 -3.8725
siesta:    9   -12598.8113   -12616.0940   -12616.1499  0.5035 -3.8868
siesta:   10   -12599.0659   -12597.0226   -12597.0729  0.3367 -3.9792
siesta:   11   -12598.2190   -12591.2702   -12591.3292  0.2550 -3.9108
siesta:   12   -12598.5341   -12585.6007   -12585.6926  0.2268 -3.8910
siesta:   13   -12597.7103   -12583.0745   -12583.1601  0.1907 -3.8719
siesta:   14   -12597.1723   -12585.3951   -12585.4537  0.1572 -3.8748
siesta:   15   -12596.7566   -12589.2199   -12589.2841  0.2070 -3.8603
siesta:   16   -12596.6235   -12590.7222   -12590.7981  0.2027 -3.8716
siesta:   17   -12596.5447   -12593.4910   -12593.5580  0.0969 -3.8893
siesta:   18   -12596.5295   -12594.5098   -12594.5840  0.1131 -3.8961
siesta:   19   -12596.4903   -12595.8932   -12595.9634  0.0539 -3.8964
siesta:   20   -12596.4790   -12596.9692   -12597.0398  0.0552 -3.8870
siesta:   21   -12596.4665   -12598.1913   -12598.2607  0.0495 -3.8837
siesta:   22   -12596.4628   -12599.4840   -12599.5553  0.0470 -3.8804
siesta:   23   -12596.4594   -12599.8476   -12599.9189  0.0399 -3.8751
siesta:   24   -12596.4554   -12597.8619   -12597.9331  0.0124 -3.8613
siesta:   25   -12596.4539   -12597.5227   -12597.5936  0.0061 -3.8600
siesta:   26   -12596.4529   -12597.3296   -12597.4005  0.0058 -3.8600
siesta:   27   -12596.4524   -12597.0035   -12597.0747  0.0038 -3.8608
siesta:   28   -12596.4522   -12596.9618   -12597.0331  0.0044 -3.8603
siesta:   29   -12596.4520   -12596.7742   -12596.8456  0.0021 -3.8616
siesta:   30   -12596.4522   -12596.6788   -12596.7503  0.0017 -3.8621
siesta:   31   -12596.4523   -12596.5278   -12596.5992  0.0008 -3.8628
siesta:   32   -12596.4523   -12596.4828   -12596.5540  0.0006 -3.8627
siesta:   33   -12596.4522   -12596.4504   -12596.5216  0.0003 -3.8627
siesta:   34   -12596.4522   -12596.4401   -12596.5114  0.0003 -3.8627
siesta:   35   -12596.4522   -12596.4422   -12596.5135  0.0002 -3.8626
siesta:   36   -12596.4522   -12596.4419   -12596.5132  0.0001 -3.8626
siesta:   37   -12596.4522   -12596.4442   -12596.5155  0.0001 -3.8626

siesta: E_KS(eV) =           -12596.4449

siesta: E_KS - E_eggbox =    -12596.4449

siesta: Atomic forces (eV/Ang):
----------------------------------------
   Tot   -0.073904   -0.328387    0.000000
----------------------------------------
   Max  685.528357
   Res  165.298614    sqrt( Sum f_i^2 / 3N )
----------------------------------------
   Max  685.528357    constrained

Stress-tensor-Voigt (kbar):     -728.71    -2871.75       -0.06      -18.74        0.00        0.00
(Free)E + p*V (eV/cell)   -11178.3350
Target enthalpy (eV/cell)   -12596.5163

siesta: Stress tensor (static) (eV/Ang**3):
        -0.454821   -0.011695    0.000000
        -0.011695   -1.792385    0.000000
         0.000000    0.000000   -0.000039

siesta: Pressure (static):       1200.17389177  kBar

siesta: Stress tensor (total) (eV/Ang**3):
        -0.454821   -0.011695    0.000000
        -0.011695   -1.792385    0.000000
         0.000000    0.000000   -0.000039

siesta: Pressure (total):       1200.17389177  kBar

siesta: Temp_ion =       0.000 K

* Maximum dynamic memory allocated =   204 MB
Computing bands...

siesta: Program's energy decomposition (eV):
siesta: Ebs     =     -5022.759473
siesta: Eions   =     21457.201110
siesta: Ena     =      4906.506042
siesta: Ekin    =     10915.527989
siesta: Enl     =     -1527.921246
siesta: DEna    =      -740.188947
siesta: DUscf   =       104.885747
siesta: DUext   =         0.000000
siesta: Exc     =     -4798.053407
siesta: eta*DQ  =         0.000000
siesta: Emadel  =         0.000000
siesta: Emeta   =         0.000000
siesta: Emolmec =         0.000000
siesta: Ekinion =         0.000000
siesta: Eharris =    -12596.452159
siesta: Etot    =    -12596.444932
siesta: FreeEng =    -12596.516255

siesta: Final energy (eV):
siesta:  Band Struct. =   -5022.759473
siesta:       Kinetic =   10915.527989
siesta:       Hartree =   34593.139956
siesta:    Ext. field =       0.000000
siesta:   Exch.-corr. =   -4798.053407
siesta:  Ion-electron =  -79671.984048
siesta:       Ion-ion =   26364.924578
siesta:       Ekinion =       0.000000
siesta:         Total =  -12596.444932

siesta: Atomic forces (eV/Ang):
siesta:      1    0.831433    1.751477    0.000000
siesta:      2   -3.118380    0.945085    0.000000
siesta:      3    1.157483   -0.945805    0.000000
siesta:      4   -0.151258   -2.700067    0.000000
siesta:      5    0.555900   -2.870034    0.000000
siesta:      6    0.676771   -1.473598    0.000000
siesta:      7    1.149972    0.012839    0.000000
siesta:      8   -0.101478   -1.633061    0.000000
siesta:      9   -0.827609   -0.486001    0.000000
siesta:     10   -1.534250    0.521987    0.000000
siesta:     11   -0.687836   -5.134428    0.000000
siesta:     12    0.967770    2.077433    0.000000
siesta:     13    2.154804    0.298137    0.000000
siesta:     14    0.301471    4.451402    0.000000
siesta:     15    1.416796   -0.123880    0.000000
siesta:     16    1.031041   -2.617189    0.000000
siesta:     17   -1.384596    5.741114    0.000000
siesta:     18  -16.982000 -685.528357    0.000000
siesta:     19   37.039244   18.207996    0.000000
siesta:     20    7.526447  642.212057    0.000000
siesta:     21    0.991415 -121.417154    0.000000
siesta:     22    0.865983  127.876496    0.000000
siesta:     23  -16.201322 -548.821477    0.000000
siesta:     24   -1.281738  127.369331    0.000000
siesta:     25   15.644812 -548.471466    0.000000
siesta:     26   25.481135    6.995066    0.000000
siesta:     27   33.858211 -550.696580    0.000000
siesta:     28   -1.416274   -2.602739    0.000000
siesta:     29  -26.575060    6.126494    0.000000
siesta:     30  -32.992961 -550.226439    0.000000
siesta:     31   21.171890  552.473030    0.000000
siesta:     32   -0.635633 -127.281620    0.000000
siesta:     33   33.897923  550.554442    0.000000
siesta:     34   26.431508   -6.436467    0.000000
siesta:     35   -3.099886   -1.332618    0.000000
siesta:     36    2.512145   -0.403962    0.000000
siesta:     37   -1.223040    0.285112    0.000000
siesta:     38    1.240901   -2.102068    0.000000
siesta:     39    0.275408    5.417530    0.000000
siesta:     40  -15.322454  547.601444    0.000000
siesta:     41    0.255166 -127.279195    0.000000
siesta:     42   -0.916491  543.822970    0.000000
siesta:     43   -0.265427 -127.081214    0.000000
siesta:     44   21.216191  557.306568    0.000000
siesta:     45   22.875314   -6.311091    0.000000
siesta:     46   -2.093820    3.347530    0.000000
siesta:     47   -0.905320   -0.807536    0.000000
siesta:     48   -0.315331    1.743735    0.000000
siesta:     49    0.913703   -0.222948    0.000000
siesta:     50  -33.994993  550.467322    0.000000
siesta:     51  -26.180786   -6.933652    0.000000
siesta:     52  -19.924110  557.663807    0.000000
siesta:     53  -23.267619   -4.854798    0.000000
siesta:     54    0.008350  566.308472    0.000000
siesta:     55    2.656138   -0.541051    0.000000
siesta:     56   -0.429671    0.063793    0.000000
siesta:     57    1.571919    2.542597    0.000000
siesta:     58   -1.363230    3.507990    0.000000
siesta:     59   -0.669083   -5.359768    0.000000
siesta:     60   -0.095436    1.748785    0.000000
siesta:     61    0.410141   -1.334579    0.000000
siesta:     62   -0.752954   -0.712300    0.000000
siesta:     63    1.213777   -2.895103    0.000000
siesta:     64   12.365554 -561.342113    0.000000
siesta:     65  -25.369124   10.987065    0.000000
siesta:     66  -23.500079 -557.190961    0.000000
siesta:     67   -1.748386    0.528650    0.000000
siesta:     68    3.102188    1.611720    0.000000
siesta:     69    0.903878  127.038905    0.000000
siesta:     70    1.011318 -545.603308    0.000000
siesta:     71   -0.427731  126.388055    0.000000
siesta:     72   -0.002638 -544.550197    0.000000
siesta: ----------------------------------------
siesta:    Tot   -0.073904   -0.328387    0.000000

siesta: Stress tensor (static) (eV/Ang**3):
siesta:    -0.454821   -0.011695    0.000000
siesta:    -0.011695   -1.792385    0.000000
siesta:     0.000000    0.000000   -0.000039

siesta: Cell volume =       1893.226884 Ang**3

siesta: Pressure (static):
siesta:                Solid            Molecule  Units
siesta:           0.00815845          0.12872822  Ry/Bohr**3
siesta:           0.74908153         11.81938769  eV/Ang**3
siesta:        1200.17389177      18936.95147510  kBar
(Free)E+ p_basis*V_orbitals  =      -12568.494945
(Free)Eharris+ p_basis*V_orbitals  =      -12568.502877

siesta: Electric dipole (a.u.)  =    0.000000    0.000000    0.000000
siesta: Electric dipole (Debye) =    0.000000    0.000000    0.000000

* Maximum dynamic memory allocated : Node    0 =   204 MB
* Maximum dynamic memory allocated : Node    1 =    71 MB
* Maximum dynamic memory allocated : Node    2 =    74 MB
* Maximum dynamic memory allocated : Node    3 =   195 MB
* Maximum dynamic memory allocated : Node    4 =   182 MB
* Maximum dynamic memory allocated : Node    5 =    70 MB
* Maximum dynamic memory allocated : Node    6 =    71 MB
* Maximum dynamic memory allocated : Node    7 =   167 MB

* Maximum memory occured during matrixMtoO                    

timer: CPU execution times:
timer:  Routine       Calls   Time/call    Tot.time        %
timer:  siesta            1  150307.278  150307.278   100.00
timer:  Setup             1       3.030       3.030     0.00
timer:  bands             3     268.565     805.695     0.54
timer:  writewave         1       0.017       0.017     0.00
timer:  KSV_init          1       0.002       0.002     0.00
timer:  IterMD            1  149492.693  149492.693    99.46
timer:  hsparse           1       0.234       0.234     0.00
timer:  overlap           1       7.705       7.705     0.01
timer:  IterSCF          37    4035.527  149314.507    99.34
timer:  kinefsm           2       3.956       7.912     0.01
timer:  nlefsm            2      18.579      37.157     0.02
timer:  DHSCF            38      89.182    3388.927     2.25
timer:  DHSCF1            1       0.761       0.761     0.00
timer:  DHSCF2            1      33.817      33.817     0.02
timer:  REORD           306       0.010       3.020     0.00
timer:  POISON           39       2.240      87.361     0.06
timer:  DHSCF3           38      87.429    3322.296     2.21
timer:  rhoofd           38      16.959     644.449     0.43
timer:  cellXC           38       3.441     130.745     0.09
timer:  vmat             38      42.274    1606.413     1.07
timer:  MolMec            2       0.001       0.002     0.00
timer:  diagon           37    3945.236  145973.739    97.12
timer:  c-eigval       8668       6.663   57757.172    38.43
timer:  c-buildHS      8668       0.111     961.178     0.64
timer:  cdiag         17215       6.870  118265.773    78.68
timer:  cdiag1        17215       0.426    7329.953     4.88
timer:  cdiag2        17215       1.909   32869.732    21.87
timer:  cdiag3        17215       3.945   67911.822    45.18
timer:  cdiag4        17215       0.203    3501.607     2.33
timer:  c-eigvec       8547       7.247   61936.459    41.21
timer:  c-buildD       8547       3.164   27038.941    17.99
timer:  DHSCF4            1      30.021      30.021     0.02
timer:  dfscf             1      28.227      28.227     0.02
timer:  overfsm           1       0.398       0.398     0.00
timer:  optical           1       5.117       5.117     0.00
  

elaps: ELAPSED times:
elaps:  Routine       Calls   Time/call    Tot.time        %
elaps:  siesta            1   18808.277   18808.277   100.00
elaps:  Setup             1       0.377       0.377     0.00
elaps:  bands             3      33.622     100.865     0.54
elaps:  writewave         1       0.002       0.002     0.00
elaps:  KSV_init          1       0.000       0.000     0.00
elaps:  IterMD            1   18706.360   18706.360    99.46
elaps:  hsparse           1       0.029       0.029     0.00
elaps:  overlap           1       0.966       0.966     0.01
elaps:  IterSCF          37     504.975   18684.072    99.34
elaps:  kinefsm           2       0.496       0.992     0.01
elaps:  nlefsm            2       2.231       4.462     0.02
elaps:  DHSCF            38      11.270     428.247     2.28
elaps:  DHSCF1            1       0.098       0.098     0.00
elaps:  DHSCF2            1       4.230       4.230     0.02
elaps:  REORD           306       0.001       0.391     0.00
elaps:  POISON           39       0.281      10.952     0.06
elaps:  DHSCF3           38      10.938     415.634     2.21
elaps:  rhoofd           38       4.885     185.644     0.99
elaps:  cellXC           38       0.430      16.330     0.09
elaps:  vmat             38       5.288     200.952     1.07
elaps:  MolMec            2       0.000       0.000     0.00
elaps:  diagon           37     493.674   18265.932    97.12
elaps:  c-eigval       8668       0.834    7226.473    38.42
elaps:  c-buildHS      8668       0.015     131.159     0.70
elaps:  cdiag         17215       0.862   14839.839    78.90
elaps:  cdiag1        17215       0.052     903.156     4.80
elaps:  cdiag2        17215       0.239    4112.842    21.87
elaps:  cdiag3        17215       0.494    8508.597    45.24
elaps:  cdiag4        17215       0.026     441.820     2.35
elaps:  c-eigvec       8547       0.915    7821.379    41.58
elaps:  c-buildD       8547       0.387    3311.853    17.61
elaps:  DHSCF4            1       8.011       8.011     0.04
elaps:  dfscf             1       7.617       7.617     0.04
elaps:  overfsm           1       0.048       0.048     0.00
elaps:  optical           1       0.000       0.000     0.00
  
>> End of run:   1-MAY-2016   5:39:50
