Siesta Version:                                        siesta-3.2-pl-3
Architecture  : x86_64-unknown-linux-gnu--unknown
Compiler flags: mpiifort -g -O2 -fPIC -xSSE4.1 -fp-model source -shared-intel 
PARALLEL version

* Running on    8 nodes in parallel
>> Start of run:  27-APR-2016   3:14:34

                           ***********************       
                           *  WELCOME TO SIESTA  *       
                           ***********************       

reinit: Reading from standard input
************************** Dump of input data file ****************************
#(1) General system descriptors
SystemName            GRP_doping    # Descriptive name of the system
SystemLabel           GRP_doping    # Short name for naming files
%include STRUCT.fdf
%include KPT.fdf
%include BASIS.fdf
#%include TS.fdf # for transiesta calculation
#(4) DFT, Grid, SCF
XC.functional         GGA           # LDA or GGA (default = LDA)
XC.authors            PBE           # CA (Ceperley-Aldr) = PZ
                                    #    (Perdew-Zunger) - LDA - Default
                                    # PW92 (Perdew-Wang-92) - LDA
                                    # PBE (Perdew-Burke-Ernzerhof) - GGA
MeshCutoff            200.000000    Ry      # Default: 50.0 Ry ~ 0.444 Bohr
                                    #         100.0 Ry ~ 0.314 Bohr
MaxSCFIterations      500           # Default: 50
DM.MixingWeight       0.05          # Default: 0.25
DM.NumberPulay        10            # Default: 0
DM.PulayOnFile        F             # SystemLabel.P1, SystemLabel.P2
DM.Tolerance          1.d-4         # Default: 1.d-4
DM.UseSaveDM          .true.        # because of the bug
SCFMustConverge       .true.
NeglNonOverlapInt     F             # Default: F
#(5) Eigenvalue problem: order-N or diagonalization
SolutionMethod        Diagon        # or Transiesta
ElectronicTemperature 300.0 K       # Default: 300.0 K
#(6) Molecular dynamics and relaxations
#MD.TypeOfRun          CG            # Type of dynamics:
#MD.VariableCell       F
#MD.NumCGsteps         0           # 0 for single-point / 100 for gopt
#MD.MaxCGDispl         0.2 Bohr      # Default: 0.2 Bohr
#MD.MaxForceTol        0.02 eV/Ang   # Default: 0.04 eV/Ang
#MD.MaxStressTol       1.0 GPa       # Default: 1.0 GPa
# Geometry Constraints
#%block GeometryConstraints
#	position from 1 to 44
#%endblock GeometryConstraints
BandLinesScale   pi/a
%block BandLines
 1   0.00000000  0.00000000  0.00000000
50   0.00000000  0.07809418  0.00000000
50   0.04509075  0.07809242  0.00000000
20   0.00000000  0.00000000  0.00000000
%endblock BandLines
************************** End of input data file *****************************

reinit: -----------------------------------------------------------------------
reinit: System Name: GRP_doping
reinit: -----------------------------------------------------------------------
reinit: System Label: GRP_doping                                                  
reinit: -----------------------------------------------------------------------

initatom: Reading input for the pseudopotentials and atomic orbitals ----------
 Species number:            1  Label: B Atomic number:           5
 Species number:            2  Label: C Atomic number:           6
Ground state valence configuration:   2s02  2p01
Reading pseudopotential information in formatted form from B.psf

Valence configuration for pseudopotential generation:
2s( 2.00) rc: 1.74
2p( 1.00) rc: 1.74
3d( 0.00) rc: 1.74
4f( 0.00) rc: 1.74
Ground state valence configuration:   2s02  2p02
Reading pseudopotential information in formatted form from C.psf

Valence configuration for pseudopotential generation:
2s( 2.00) rc: 1.54
2p( 2.00) rc: 1.54
3d( 0.00) rc: 1.54
4f( 0.00) rc: 1.54
For B, standard SIESTA heuristics set lmxkb to 3
 (one more than the basis l, including polarization orbitals).
Use PS.lmax or PS.KBprojectors blocks to override.
For C, standard SIESTA heuristics set lmxkb to 3
 (one more than the basis l, including polarization orbitals).
Use PS.lmax or PS.KBprojectors blocks to override.

<basis_specs>
===============================================================================
B                    Z=   5    Mass=  10.810        Charge= 0.17977+309
Lmxo=1 Lmxkb= 3    BasisType=split      Semic=F
L=0  Nsemic=0  Cnfigmx=2
          n=1  nzeta=2  polorb=0
            splnorm:   0.15000    
               vcte:    0.0000    
               rinn:    0.0000    
                rcs:    0.0000      0.0000    
            lambdas:    1.0000      1.0000    
L=1  Nsemic=0  Cnfigmx=2
          n=1  nzeta=2  polorb=1
            splnorm:   0.15000    
               vcte:    0.0000    
               rinn:    0.0000    
                rcs:    0.0000      0.0000    
            lambdas:    1.0000      1.0000    
-------------------------------------------------------------------------------
L=0  Nkbl=1  erefs: 0.17977+309
L=1  Nkbl=1  erefs: 0.17977+309
L=2  Nkbl=1  erefs: 0.17977+309
L=3  Nkbl=1  erefs: 0.17977+309
===============================================================================
</basis_specs>

atom: Called for B                     (Z =   5)

read_vps: Pseudopotential generation method:
read_vps: ATM3      Troullier-Martins                       
Total valence charge:    3.00000

read_vps: Pseudopotential includes a core correction:
read_vps: Pseudo-core for xc-correction

xc_check: Exchange-correlation functional:
xc_check: GGA Perdew, Burke & Ernzerhof 1996
V l=0 = -2*Zval/r beyond r=  1.7165
V l=1 = -2*Zval/r beyond r=  1.7165
V l=2 = -2*Zval/r beyond r=  1.7165
V l=3 = -2*Zval/r beyond r=  1.6951
All V_l potentials equal beyond r=  1.7165
This should be close to max(r_c) in ps generation
All pots = -2*Zval/r beyond r=  1.7165

VLOCAL1: 99.0% of the norm of Vloc inside     14.733 Ry
VLOCAL1: 99.9% of the norm of Vloc inside     33.577 Ry
atom: Maximum radius for 4*pi*r*r*local-pseudopot. charge    2.04484
atom: Maximum radius for r*vlocal+2*Zval:    1.75994
GHOST: No ghost state for L =  0
GHOST: No ghost state for L =  1
GHOST: No ghost state for L =  2
GHOST: No ghost state for L =  3

KBgen: Kleinman-Bylander projectors: 
   l= 0   rc=  1.897051   el= -0.693730   Ekb=  4.595746   kbcos=  0.286105
   l= 1   rc=  1.920920   el= -0.265236   Ekb= -2.350715   kbcos= -0.315747
   l= 2   rc=  2.044840   el=  0.002055   Ekb= -0.690767   kbcos= -0.013822
   l= 3   rc=  2.149707   el=  0.003188   Ekb= -0.315358   kbcos= -0.002055

KBgen: Total number of  Kleinman-Bylander projectors:   16
atom: -------------------------------------------------------------------------

atom: SANKEY-TYPE ORBITALS:
atom: Selected multiple-zeta basis: split     

SPLIT: Orbitals with angular momentum L= 0

SPLIT: Basis orbitals for state 2s

SPLIT: PAO cut-off radius determined from an
SPLIT: energy shift=  0.007350 Ry

   izeta = 1
                 lambda =    1.000000
                     rc =    5.422032
                 energy =   -0.686029
                kinetic =    0.576707
    potential(screened) =   -1.262736
       potential(ionic) =   -3.271094

   izeta = 2
                 rmatch =    4.222573
              splitnorm =    0.150000
                 energy =   -0.602132
                kinetic =    0.858975
    potential(screened) =   -1.461107
       potential(ionic) =   -3.582536

SPLIT: Orbitals with angular momentum L= 1

SPLIT: Basis orbitals for state 2p

SPLIT: PAO cut-off radius determined from an
SPLIT: energy shift=  0.007350 Ry

   izeta = 1
                 lambda =    1.000000
                     rc =    6.790259
                 energy =   -0.258578
                kinetic =    1.481412
    potential(screened) =   -1.739989
       potential(ionic) =   -3.657461

   izeta = 2
                 rmatch =    4.608740
              splitnorm =    0.150000
                 energy =   -0.173757
                kinetic =    2.186690
    potential(screened) =   -2.360447
       potential(ionic) =   -4.464260

POLgen: Perturbative polarization orbital with L=  2

POLgen: Polarization orbital for state 2p

   izeta = 1
                     rc =    6.790259
                 energy =    0.684082
                kinetic =    1.471481
    potential(screened) =   -0.787399
       potential(ionic) =   -2.406985
atom: Total number of Sankey-type orbitals: 13

atm_pop: Valence configuration (for local Pseudopot. screening):
 2s( 2.00)                                                            
 2p( 1.00)                                                            
Vna: chval, zval:    3.00000   3.00000

Vna:  Cut-off radius for the neutral-atom potential:   6.790259
comcore: Pseudo-core radius Rcore=  2.122997

atom: _________________________________________________________________________

<basis_specs>
===============================================================================
C                    Z=   6    Mass=  12.010        Charge= 0.17977+309
Lmxo=1 Lmxkb= 3    BasisType=split      Semic=F
L=0  Nsemic=0  Cnfigmx=2
          n=1  nzeta=2  polorb=0
            splnorm:   0.15000    
               vcte:    0.0000    
               rinn:    0.0000    
                rcs:    0.0000      0.0000    
            lambdas:    1.0000      1.0000    
L=1  Nsemic=0  Cnfigmx=2
          n=1  nzeta=2  polorb=1
            splnorm:   0.15000    
               vcte:    0.0000    
               rinn:    0.0000    
                rcs:    0.0000      0.0000    
            lambdas:    1.0000      1.0000    
-------------------------------------------------------------------------------
L=0  Nkbl=1  erefs: 0.17977+309
L=1  Nkbl=1  erefs: 0.17977+309
L=2  Nkbl=1  erefs: 0.17977+309
L=3  Nkbl=1  erefs: 0.17977+309
===============================================================================
</basis_specs>

atom: Called for C                     (Z =   6)

read_vps: Pseudopotential generation method:
read_vps: ATM3      Troullier-Martins                       
Total valence charge:    4.00000

read_vps: Pseudopotential includes a core correction:
read_vps: Pseudo-core for xc-correction

xc_check: Exchange-correlation functional:
xc_check: GGA Perdew, Burke & Ernzerhof 1996
V l=0 = -2*Zval/r beyond r=  1.5227
V l=1 = -2*Zval/r beyond r=  1.5227
V l=2 = -2*Zval/r beyond r=  1.5227
V l=3 = -2*Zval/r beyond r=  1.5038
All V_l potentials equal beyond r=  1.5227
This should be close to max(r_c) in ps generation
All pots = -2*Zval/r beyond r=  1.5227

VLOCAL1: 99.0% of the norm of Vloc inside     18.722 Ry
VLOCAL1: 99.9% of the norm of Vloc inside     42.668 Ry
atom: Maximum radius for 4*pi*r*r*local-pseudopot. charge    1.83678
atom: Maximum radius for r*vlocal+2*Zval:    1.58088
GHOST: No ghost state for L =  0
GHOST: No ghost state for L =  1
GHOST: No ghost state for L =  2
GHOST: No ghost state for L =  3

KBgen: Kleinman-Bylander projectors: 
   l= 0   rc=  1.704034   el= -1.009801   Ekb=  5.335044   kbcos=  0.316824
   l= 1   rc=  1.704034   el= -0.388707   Ekb= -3.785862   kbcos= -0.366464
   l= 2   rc=  1.791422   el=  0.001971   Ekb= -0.970471   kbcos= -0.009212
   l= 3   rc=  1.859892   el=  0.003065   Ekb= -0.399525   kbcos= -0.001223

KBgen: Total number of  Kleinman-Bylander projectors:   16
atom: -------------------------------------------------------------------------

atom: SANKEY-TYPE ORBITALS:
atom: Selected multiple-zeta basis: split     

SPLIT: Orbitals with angular momentum L= 0

SPLIT: Basis orbitals for state 2s

SPLIT: PAO cut-off radius determined from an
SPLIT: energy shift=  0.007350 Ry

   izeta = 1
                 lambda =    1.000000
                     rc =    4.632753
                 energy =   -1.002270
                kinetic =    0.855760
    potential(screened) =   -1.858031
       potential(ionic) =   -5.417575

   izeta = 2
                 rmatch =    3.431921
              splitnorm =    0.150000
                 energy =   -0.867111
                kinetic =    1.300804
    potential(screened) =   -2.167915
       potential(ionic) =   -5.962684

SPLIT: Orbitals with angular momentum L= 1

SPLIT: Basis orbitals for state 2p

SPLIT: PAO cut-off radius determined from an
SPLIT: energy shift=  0.007350 Ry

   izeta = 1
                 lambda =    1.000000
                     rc =    5.658549
                 energy =   -0.381140
                kinetic =    2.399701
    potential(screened) =   -2.780841
       potential(ionic) =   -6.206085

   izeta = 2
                 rmatch =    3.653288
              splitnorm =    0.150000
                 energy =   -0.249149
                kinetic =    3.542762
    potential(screened) =   -3.791911
       potential(ionic) =   -7.581078

POLgen: Perturbative polarization orbital with L=  2

POLgen: Polarization orbital for state 2p

   izeta = 1
                     rc =    5.658549
                 energy =    1.109913
                kinetic =    2.304789
    potential(screened) =   -1.194876
       potential(ionic) =   -4.013592
atom: Total number of Sankey-type orbitals: 13

atm_pop: Valence configuration (for local Pseudopot. screening):
 2s( 2.00)                                                            
 2p( 2.00)                                                            
Vna: chval, zval:    4.00000   4.00000

Vna:  Cut-off radius for the neutral-atom potential:   5.658549
comcore: Pseudo-core radius Rcore=  1.791422

atom: _________________________________________________________________________

prinput: Basis input ----------------------------------------------------------

PAO.BasisType split     

%block ChemicalSpeciesLabel
    1    5 B                       # Species index, atomic number, species label
    2    6 C                       # Species index, atomic number, species label
%endblock ChemicalSpeciesLabel

%block PAO.Basis                 # Define Basis set
B                     2                    # Species label, number of l-shells
 n=2   0   2                         # n, l, Nzeta 
   5.422      4.223   
   1.000      1.000   
 n=2   1   2 P   1                   # n, l, Nzeta, Polarization, NzetaPol
   6.790      4.609   
   1.000      1.000   
C                     2                    # Species label, number of l-shells
 n=2   0   2                         # n, l, Nzeta 
   4.633      3.432   
   1.000      1.000   
 n=2   1   2 P   1                   # n, l, Nzeta, Polarization, NzetaPol
   5.659      3.653   
   1.000      1.000   
%endblock PAO.Basis

prinput: ----------------------------------------------------------------------

coor:   Atomic-coordinates input format  =     Fractional

siesta: Atomic coordinates (Bohr) and species
siesta:      6.95932  30.82560   0.00000  1        1
siesta:     -0.02582  13.34970   0.00000  1        2
siesta:     -4.68258  10.66124   0.00000  1        3
siesta:     -4.68258  13.34970   0.00000  1        4
siesta:     -2.35420  14.69411   0.00000  1        5
siesta:     -2.35420  17.38257   0.00000  1        6
siesta:     -0.02582  18.72698   0.00000  1        7
siesta:      2.30256  25.44831   0.00000  1        8
siesta:     -4.68258  18.72698   0.00000  1        9
siesta:     -4.68258  21.41544   0.00000  1       10
siesta:     -7.01096  22.75985   0.00000  1       11
siesta:     -7.01096  25.44831   0.00000  1       12
siesta:    -11.66772  22.75985   0.00000  1       13
siesta:    -11.66772  25.44831   0.00000  1       14
siesta:     -9.33934  26.79272   0.00000  1       15
siesta:     -9.33934  29.48119   0.00000  1       16
siesta:      4.63094  26.79272   0.00000  1       17
siesta:      4.63094  29.48119   0.00000  1       18
siesta:     -4.68258  26.79272   0.00000  1       19
siesta:     -7.01096  30.82560   0.00000  1       20
siesta:     -0.02582   2.59549   0.00000  2       21
siesta:     -0.02582   5.28395   0.00000  2       22
siesta:     -2.35420  38.89134   0.00000  2       23
siesta:     -2.35420  41.57980   0.00000  2       24
siesta:      2.30256  38.89134   0.00000  2       25
siesta:      2.30256  41.57980   0.00000  2       26
siesta:      4.63094  34.85847   0.00000  2       27
siesta:      4.63094  37.54693   0.00000  2       28
siesta:      6.95932  33.51406   0.00000  2       29
siesta:      9.28770  26.79272   0.00000  2       30
siesta:      9.28770  29.48119   0.00000  2       31
siesta:     -4.68258  34.85847   0.00000  2       32
siesta:     -4.68258  37.54693   0.00000  2       33
siesta:      2.30256   6.62836   0.00000  2       34
siesta:      2.30256   9.31683   0.00000  2       35
siesta:      4.63094  10.66124   0.00000  2       36
siesta:      4.63094  13.34970   0.00000  2       37
siesta:      6.95932  14.69411   0.00000  2       38
siesta:      6.95932  17.38257   0.00000  2       39
siesta:      9.28770  18.72698   0.00000  2       40
siesta:      9.28770  21.41544   0.00000  2       41
siesta:     11.61608  22.75985   0.00000  2       42
siesta:     11.61608  25.44831   0.00000  2       43
siesta:     -2.35420   6.62836   0.00000  2       44
siesta:     -2.35420   9.31683   0.00000  2       45
siesta:     -0.02582  10.66124   0.00000  2       46
siesta:      2.30256  14.69411   0.00000  2       47
siesta:      2.30256  17.38257   0.00000  2       48
siesta:      4.63094  18.72698   0.00000  2       49
siesta:      4.63094  21.41544   0.00000  2       50
siesta:      6.95932  22.75985   0.00000  2       51
siesta:      6.95932  25.44831   0.00000  2       52
siesta:     -0.02582  21.41544   0.00000  2       53
siesta:      2.30256  22.75985   0.00000  2       54
siesta:     -7.01096  14.69411   0.00000  2       55
siesta:     -7.01096  17.38257   0.00000  2       56
siesta:     -2.35420  22.75985   0.00000  2       57
siesta:     -2.35420  25.44831   0.00000  2       58
siesta:     -9.33934  18.72698   0.00000  2       59
siesta:     -9.33934  21.41544   0.00000  2       60
siesta:     -0.02582  26.79272   0.00000  2       61
siesta:     -0.02582  29.48119   0.00000  2       62
siesta:     -4.68258  29.48119   0.00000  2       63
siesta:      2.30256  30.82560   0.00000  2       64
siesta:      2.30256  33.51406   0.00000  2       65
siesta:     -2.35420  30.82560   0.00000  2       66
siesta:     -2.35420  33.51406   0.00000  2       67
siesta:     -7.01096  33.51406   0.00000  2       68
siesta:     -0.02582  34.85847   0.00000  2       69
siesta:     -0.02582  37.54693   0.00000  2       70
siesta:     -0.02582  42.92421   0.00000  2       71
siesta:     -0.02582  45.61267   0.00000  2       72

siesta: System type = slab      

initatomlists: Number of atoms, orbitals, and projectors:     72   936  1152

siesta: ******************** Simulation parameters ****************************
siesta:
siesta: The following are some of the parameters of the simulation.
siesta: A complete list of the parameters used, including default values,
siesta: can be found in file out.fdf
siesta:
redata: Non-Collinear-spin run           =     F
redata: SpinPolarized (Up/Down) run      =     F
redata: Number of spin components        =     1
redata: Long output                      =     F
redata: Number of Atomic Species         =        2
redata: Charge density info will appear in .RHO file
redata: Write Mulliken Pop.              =     NO
redata: Mesh Cutoff                      =   200.0000  Ry
redata: Net charge of the system         =     0.0000 |e|
redata: Max. number of SCF Iter          =      500
redata: SCF convergence failure will abort job
redata: Performing Pulay mixing using    =    10 iterations
redata: Mix DM in first SCF step ?       =     F
redata: Write Pulay info on disk?        =     F
redata: Discard 1st Pulay DM after  kick =     F
redata: New DM Mixing Weight             =     0.0500
redata: New DM Occupancy tolerance       = 0.000000000001
redata: No kicks to SCF
redata: DM Mixing Weight for Kicks       =     0.5000
redata: DM Tolerance for SCF             =     0.000100
redata: Require Energy convergence for SCF =     F
redata: DM Energy tolerance for SCF      =     0.000100 eV
redata: Require Harris convergence for SCF =     F
redata: DM Harris energy tolerance for SCF =     0.000100 eV
redata: Using Saved Data (generic)   =     F
redata: Use continuation files for DM    =     T
redata: Neglect nonoverlap interactions  =     F
redata: Method of Calculation            =     Diagonalization
redata: Divide and Conquer               =     T
redata: Electronic Temperature           =     0.0019  Ry
redata: Fix the spin of the system       =     F
redata: Dynamics option                  =     Verlet MD run
redata: Initial MD time step             =        1
redata:   Final MD time step             =        1
redata: Length of MD time step           =     1.0000  fs
redata: Initial Temperature of MD run    =     0.0000  K
redata: Perform a MD quench              =     F
redata: ***********************************************************************
Total number of electrons:   268.000000
Total ionic charge:   268.000000

* ProcessorY, Blocksize:    2  24

k-point displ. along   1 input, could be:     0.50    0.00
k-point displ. along   2 input, could be:     0.50    0.00
 Kpoints in:          231 . Kpoints trimmed:          231

siesta: k-grid: Number of k-points =   231
siesta: k-grid: Cutoff (effective) =     5.000 Ang
siesta: k-grid: Supercell and displacements
siesta: k-grid:   21   0   0      0.500
siesta: k-grid:    0  21   0      0.500
siesta: k-grid:    0   0   1      0.000
Naive supercell factors:     2    2    2

superc: Internal auxiliary supercell:     2 x     2 x     2  =       8
superc: Number of atoms, orbitals, and projectors:    576   7488   9216

* Maximum dynamic memory allocated =     4 MB

siesta:                 ==============================
                            Begin MD step =      1
                        ==============================

superc: Internal auxiliary supercell:     2 x     2 x     2  =       8
superc: Number of atoms, orbitals, and projectors:    576   7488   9216

outcell: Unit cell vectors (Ang):
       12.804619    7.392750    0.000000
        0.000000   14.785500    0.000000
        0.000000    0.000000   10.000000

outcell: Cell vector modules (Ang)   :   14.785500   14.785500   10.000000
outcell: Cell angles (23,13,12) (deg):     90.0000     90.0000     60.0000
outcell: Cell volume (Ang**3)        :   1893.2269
New_DM. Step:     1
Initializing Density Matrix...

InitMesh: MESH =   120 x   120 x    90 =     1296000
InitMesh: Mesh cutoff (required, used) =   200.000   223.865 Ry

* Maximum dynamic memory allocated =   224 MB

stepf: Fermi-Dirac step function

siesta: Program's energy decomposition (eV):
siesta: Ebs     =     -5538.060360
siesta: Eions   =     15841.876847
siesta: Ena     =      4241.107923
siesta: Ekin    =      5323.417823
siesta: Enl     =       803.128330
siesta: DEna    =        -0.000008
siesta: DUscf   =         0.000000
siesta: DUext   =         0.000000
siesta: Exc     =     -4202.727122
siesta: eta*DQ  =         0.000000
siesta: Emadel  =         0.000000
siesta: Emeta   =         0.000000
siesta: Emolmec =         0.000000
siesta: Ekinion =         0.000000
siesta: Eharris =     -9408.593873
siesta: Etot    =     -9676.949901
siesta: FreeEng =     -9676.949901

siesta: iscf   Eharris(eV)      E_KS(eV)   FreeEng(eV)   dDmax  Ef(eV)
siesta:    1    -9408.5939    -9676.9499    -9676.9499  6.5373 -8.3772
timer: Routine,Calls,Time,% = IterSCF        1    4501.973  99.72
elaps: Routine,Calls,Wall,% = IterSCF        1     563.514  99.72
siesta:    2   -12946.6722    -8777.7110    -8777.7883 18.4790 -2.3109
siesta:    3    -9340.5542    -9514.1623    -9514.2141  2.8560 -6.6345
siesta:    4    -9314.3686    -9412.6671    -9412.7089  1.4696 -5.5873
siesta:    5    -9279.4374    -9324.2431    -9324.2847  1.0892 -5.1093
siesta:    6    -9265.6443    -9303.5650    -9303.6084  0.8636 -5.2066
siesta:    7    -9261.1595    -9292.9255    -9292.9710  0.8423 -5.2437
siesta:    8    -9256.6639    -9280.6518    -9280.7095  0.6835 -5.2535
siesta:    9    -9254.6958    -9265.7672    -9265.8280  0.4807 -5.1465
siesta:   10    -9256.9230    -9247.2627    -9247.3231  0.5001 -5.0677
siesta:   11    -9255.1737    -9245.7122    -9245.7761  0.2620 -5.0708
siesta:   12    -9254.6059    -9240.0558    -9240.1234  0.2351 -5.0162
siesta:   13    -9254.1596    -9238.0665    -9238.1301  0.2210 -5.0029
siesta:   14    -9253.6930    -9240.9514    -9241.0191  0.1525 -5.0179
siesta:   15    -9253.5087    -9242.6199    -9242.6927  0.1116 -5.0366
siesta:   16    -9253.4126    -9244.6221    -9244.6950  0.0928 -5.0721
siesta:   17    -9253.3339    -9245.7557    -9245.8297  0.0673 -5.0792
siesta:   18    -9253.3011    -9247.7187    -9247.7934  0.0498 -5.0816
siesta:   19    -9253.2787    -9250.1889    -9250.2621  0.0426 -5.0889
siesta:   20    -9253.2683    -9250.9277    -9251.0035  0.0372 -5.0930
siesta:   21    -9253.2588    -9251.9801    -9252.0564  0.0274 -5.0944
siesta:   22    -9253.2582    -9252.6112    -9252.6874  0.0222 -5.0951
siesta:   23    -9253.2571    -9253.2672    -9253.3436  0.0130 -5.0905
siesta:   24    -9253.2559    -9253.5268    -9253.6028  0.0067 -5.0880
siesta:   25    -9253.2556    -9253.5337    -9253.6102  0.0049 -5.0869
siesta:   26    -9253.2553    -9253.5501    -9253.6264  0.0039 -5.0867
siesta:   27    -9253.2553    -9253.4650    -9253.5414  0.0032 -5.0867
siesta:   28    -9253.2552    -9253.3833    -9253.4596  0.0022 -5.0868
siesta:   29    -9253.2552    -9253.3170    -9253.3934  0.0012 -5.0873
siesta:   30    -9253.2551    -9253.2882    -9253.3646  0.0011 -5.0878
siesta:   31    -9253.2552    -9253.3092    -9253.3857  0.0005 -5.0880
siesta:   32    -9253.2551    -9253.3068    -9253.3832  0.0004 -5.0883
siesta:   33    -9253.2551    -9253.3124    -9253.3889  0.0004 -5.0882
siesta:   34    -9253.2551    -9253.3023    -9253.3788  0.0003 -5.0882
siesta:   35    -9253.2551    -9253.2992    -9253.3756  0.0003 -5.0881
siesta:   36    -9253.2551    -9253.2835    -9253.3599  0.0001 -5.0881
siesta:   37    -9253.2551    -9253.2729    -9253.3493  0.0001 -5.0880

siesta: E_KS(eV) =            -9253.2628

siesta: E_KS - E_eggbox =     -9253.2628

siesta: Atomic forces (eV/Ang):
----------------------------------------
   Tot   -0.060649   -0.115902    0.000000
----------------------------------------
   Max  564.411060
   Res  148.720020    sqrt( Sum f_i^2 / 3N )
----------------------------------------
   Max  564.411060    constrained

Stress-tensor-Voigt (kbar):     -788.44    -2728.26       -0.66       -7.27        0.00        0.00
(Free)E + p*V (eV/cell)    -7867.9123
Target enthalpy (eV/cell)    -9253.3392

siesta: Stress tensor (static) (eV/Ang**3):
        -0.492102   -0.004536    0.000000
        -0.004536   -1.702830    0.000000
         0.000000    0.000000   -0.000410

siesta: Pressure (static):       1172.45462733  kBar

siesta: Stress tensor (total) (eV/Ang**3):
        -0.492102   -0.004536    0.000000
        -0.004536   -1.702830    0.000000
         0.000000    0.000000   -0.000410

siesta: Pressure (total):       1172.45462733  kBar

siesta: Temp_ion =       0.000 K

* Maximum dynamic memory allocated =   241 MB
Computing bands...

siesta: Program's energy decomposition (eV):
siesta: Ebs     =     -4167.125141
siesta: Eions   =     15841.876847
siesta: Ena     =      4241.107923
siesta: Ekin    =      8217.644687
siesta: Enl     =      -805.576079
siesta: DEna    =      -796.605706
siesta: DUscf   =       107.893320
siesta: DUext   =         0.000000
siesta: Exc     =     -4375.850060
siesta: eta*DQ  =         0.000000
siesta: Emadel  =         0.000000
siesta: Emeta   =         0.000000
siesta: Emolmec =         0.000000
siesta: Ekinion =         0.000000
siesta: Eharris =     -9253.255132
siesta: Etot    =     -9253.262761
siesta: FreeEng =     -9253.339178

siesta: Final energy (eV):
siesta:  Band Struct. =   -4167.125141
siesta:       Kinetic =    8217.644687
siesta:       Hartree =   27189.598372
siesta:    Ext. field =       0.000000
siesta:   Exch.-corr. =   -4375.850060
siesta:  Ion-electron =  -62306.102199
siesta:       Ion-ion =   22021.446439
siesta:       Ekinion =       0.000000
siesta:         Total =   -9253.262761

siesta: Atomic forces (eV/Ang):
siesta:      1    8.499049    3.350728    0.000000
siesta:      2   -2.878582 -107.457212    0.000000
siesta:      3  -20.909382  397.341424    0.000000
siesta:      4  -19.077412    2.331126    0.000000
siesta:      5  -16.209814  397.153359    0.000000
siesta:      6  -14.859269   -0.306696    0.000000
siesta:      7   -1.220229  413.974205    0.000000
siesta:      8   -3.484886   -0.765380    0.000000
siesta:      9   -2.550927   -2.994879    0.000000
siesta:     10    4.979022    2.828966    0.000000
siesta:     11   -3.461383   -2.987119    0.000000
siesta:     12    0.238936    1.182354    0.000000
siesta:     13   -2.254592   -4.062040    0.000000
siesta:     14   -6.234165    3.990949    0.000000
siesta:     15   -4.609739   -0.503472    0.000000
siesta:     16   -5.100028    1.369740    0.000000
siesta:     17    4.081685   -2.635985    0.000000
siesta:     18   -5.697160    2.941393    0.000000
siesta:     19    4.162749    1.644762    0.000000
siesta:     20    1.336213    3.474407    0.000000
siesta:     21   -0.755918  550.541640    0.000000
siesta:     22   -0.910968 -129.442643    0.000000
siesta:     23   -1.313689  125.010815    0.000000
siesta:     24  -16.573305 -401.325177    0.000000
siesta:     25   -1.141970  131.350714    0.000000
siesta:     26   24.912290 -554.634829    0.000000
siesta:     27   27.078602    5.292602    0.000000
siesta:     28   33.780449 -549.721294    0.000000
siesta:     29   -3.996835    4.903087    0.000000
siesta:     30    3.271613    1.537714    0.000000
siesta:     31    0.589071   -2.319892    0.000000
siesta:     32  -26.416424   -1.667562    0.000000
siesta:     33  -36.516664 -405.445608    0.000000
siesta:     34   16.139830  547.814468    0.000000
siesta:     35   -1.541837 -125.557405    0.000000
siesta:     36   32.384638  548.404484    0.000000
siesta:     37   25.405240   -4.869851    0.000000
siesta:     38   -2.356232   -2.036445    0.000000
siesta:     39    2.070729   -0.394345    0.000000
siesta:     40   -0.723895   -0.306579    0.000000
siesta:     41    2.304718   -2.151532    0.000000
siesta:     42   -0.084190    6.183647    0.000000
siesta:     43   -0.134218   -6.078193    0.000000
siesta:     44  -18.462947  548.628616    0.000000
siesta:     45   -6.079143 -115.526293    0.000000
siesta:     46   -4.114176  541.957860    0.000000
siesta:     47   14.392932  555.269695    0.000000
siesta:     48   22.556917   -3.521868    0.000000
siesta:     49   -1.006847    1.951659    0.000000
siesta:     50   -0.003022   -0.692465    0.000000
siesta:     51    0.175527    1.275515    0.000000
siesta:     52    1.755460   -2.668605    0.000000
siesta:     53    0.925647    2.928442    0.000000
siesta:     54   -0.896786   -3.670671    0.000000
siesta:     55   -0.054546    0.448142    0.000000
siesta:     56   -6.737937   -4.058634    0.000000
siesta:     57    4.081626    0.741840    0.000000
siesta:     58    3.709292   -0.007640    0.000000
siesta:     59    0.956209    2.219334    0.000000
siesta:     60   -3.611299   -6.246422    0.000000
siesta:     61   -3.007613    0.008472    0.000000
siesta:     62   -0.217317 -564.411060    0.000000
siesta:     63    3.789635    1.184603    0.000000
siesta:     64   20.262835    5.789807    0.000000
siesta:     65   22.961941 -555.573628    0.000000
siesta:     66  -22.279836    5.570720    0.000000
siesta:     67  -22.289678 -559.244017    0.000000
siesta:     68    4.113158    6.414451    0.000000
siesta:     69   -0.315106  129.576706    0.000000
siesta:     70    4.663829 -553.417754    0.000000
siesta:     71   -7.985592  127.861608    0.000000
siesta:     72    2.435065 -407.862757    0.000000
siesta: ----------------------------------------
siesta:    Tot   -0.060649   -0.115902    0.000000

siesta: Stress tensor (static) (eV/Ang**3):
siesta:    -0.492102   -0.004536    0.000000
siesta:    -0.004536   -1.702830    0.000000
siesta:     0.000000    0.000000   -0.000410

siesta: Cell volume =       1893.226884 Ang**3

siesta: Pressure (static):
siesta:                Solid            Molecule  Units
siesta:           0.00797003          0.11402119  Ry/Bohr**3
siesta:           0.73178071         10.46903814  eV/Ang**3
siesta:        1172.45462733      16773.42958461  kBar
(Free)E+ p_basis*V_orbitals  =       -9216.282493
(Free)Eharris+ p_basis*V_orbitals  =       -9216.264737

siesta: Electric dipole (a.u.)  =    0.000000    0.000000    0.000000
siesta: Electric dipole (Debye) =    0.000000    0.000000    0.000000

* Maximum dynamic memory allocated : Node    0 =   241 MB
* Maximum dynamic memory allocated : Node    1 =    85 MB
* Maximum dynamic memory allocated : Node    2 =    87 MB
* Maximum dynamic memory allocated : Node    3 =   228 MB
* Maximum dynamic memory allocated : Node    4 =   228 MB
* Maximum dynamic memory allocated : Node    5 =    82 MB
* Maximum dynamic memory allocated : Node    6 =    85 MB
* Maximum dynamic memory allocated : Node    7 =   208 MB

* Maximum memory occured during matrixMtoO                    

timer: CPU execution times:
timer:  Routine       Calls   Time/call    Tot.time        %
timer:  siesta            1  163979.374  163979.374   100.00
timer:  Setup             1       3.789       3.789     0.00
timer:  bands             3     269.272     807.817     0.49
timer:  writewave         1       0.041       0.041     0.00
timer:  KSV_init          1       0.006       0.006     0.00
timer:  IterMD            1  163162.085  163162.085    99.50
timer:  hsparse           1       0.404       0.404     0.00
timer:  overlap           1       7.791       7.791     0.00
timer:  IterSCF          37    4403.641  162934.729    99.36
timer:  kinefsm           2       4.039       8.078     0.00
timer:  nlefsm            2      21.355      42.709     0.03
timer:  DHSCF            38     121.610    4621.177     2.82
timer:  DHSCF1            1       0.995       0.995     0.00
timer:  DHSCF2            1      44.840      44.840     0.03
timer:  REORD           306       0.010       3.050     0.00
timer:  POISON           39       2.245      87.565     0.05
timer:  DHSCF3           38     119.222    4530.437     2.76
timer:  rhoofd           38      25.292     961.096     0.59
timer:  cellXC           38       3.483     132.353     0.08
timer:  vmat             38      58.668    2229.385     1.36
timer:  MolMec            2       0.000       0.000     0.00
timer:  diagon           37    4280.328  158372.124    96.58
timer:  c-eigval       8668       6.677   57873.932    35.29
timer:  c-buildHS      8668       0.122    1060.064     0.65
timer:  cdiag         17215       6.918  119091.643    72.63
timer:  cdiag1        17215       0.430    7397.676     4.51
timer:  cdiag2        17215       1.906   32806.998    20.01
timer:  cdiag3        17215       3.942   67857.369    41.38
timer:  cdiag4        17215       0.225    3878.664     2.37
timer:  c-eigvec       8547       7.342   62750.755    38.27
timer:  c-buildD       8547       4.505   38507.696    23.48
timer:  DHSCF4            1      42.854      42.854     0.03
timer:  dfscf             1      40.193      40.193     0.02
timer:  overfsm           1       0.479       0.479     0.00
timer:  optical           1       4.980       4.980     0.00
  

elaps: ELAPSED times:
elaps:  Routine       Calls   Time/call    Tot.time        %
elaps:  siesta            1   20521.208   20521.208   100.00
elaps:  Setup             1       0.490       0.490     0.00
elaps:  bands             3      33.711     101.134     0.49
elaps:  writewave         1       0.006       0.006     0.00
elaps:  KSV_init          1       0.001       0.001     0.00
elaps:  IterMD            1   20418.925   20418.925    99.50
elaps:  hsparse           1       0.054       0.054     0.00
elaps:  overlap           1       0.973       0.973     0.00
elaps:  IterSCF          37     551.098   20390.624    99.36
elaps:  kinefsm           2       0.504       1.007     0.00
elaps:  nlefsm            2       2.688       5.376     0.03
elaps:  DHSCF            38      15.351     583.336     2.84
elaps:  DHSCF1            1       0.128       0.128     0.00
elaps:  DHSCF2            1       5.604       5.604     0.03
elaps:  REORD           306       0.001       0.398     0.00
elaps:  POISON           39       0.281      10.963     0.05
elaps:  DHSCF3           38      14.915     566.771     2.76
elaps:  rhoofd           38       6.674     253.620     1.24
elaps:  cellXC           38       0.435      16.524     0.08
elaps:  vmat             38       7.340     278.904     1.36
elaps:  MolMec            2       0.000       0.000     0.00
elaps:  diagon           37     535.675   19819.959    96.58
elaps:  c-eigval       8668       0.835    7241.152    35.29
elaps:  c-buildHS      8668       0.017     144.624     0.70
elaps:  cdiag         17215       0.856   14732.876    71.79
elaps:  cdiag1        17215       0.053     920.893     4.49
elaps:  cdiag2        17215       0.238    4104.955    20.00
elaps:  cdiag3        17215       0.494    8501.767    41.43
elaps:  cdiag4        17215       0.028     485.780     2.37
elaps:  c-eigvec       8547       0.904    7726.519    37.65
elaps:  c-buildD       8547       0.579    4947.073    24.11
elaps:  DHSCF4            1      10.558      10.558     0.05
elaps:  dfscf             1      10.033      10.033     0.05
elaps:  overfsm           1       0.059       0.059     0.00
elaps:  optical           1       0.001       0.001     0.00
  
>> End of run:  27-APR-2016   8:56:35
