Siesta Version:                                        siesta-3.2-pl-3
Architecture  : x86_64-unknown-linux-gnu--unknown
Compiler flags: mpiifort -g -O2 -fPIC -xSSE4.1 -fp-model source -shared-intel 
PARALLEL version

* Running on    8 nodes in parallel
>> Start of run:  24-APR-2016   2:19:11

                           ***********************       
                           *  WELCOME TO SIESTA  *       
                           ***********************       

reinit: Reading from standard input
************************** Dump of input data file ****************************
#(1) General system descriptors
SystemName            GRP_doping    # Descriptive name of the system
SystemLabel           GRP_doping    # Short name for naming files
%include STRUCT.fdf
%include KPT.fdf
%include BASIS.fdf
#%include TS.fdf # for transiesta calculation
#(4) DFT, Grid, SCF
XC.functional         GGA           # LDA or GGA (default = LDA)
XC.authors            PBE           # CA (Ceperley-Aldr) = PZ
                                    #    (Perdew-Zunger) - LDA - Default
                                    # PW92 (Perdew-Wang-92) - LDA
                                    # PBE (Perdew-Burke-Ernzerhof) - GGA
MeshCutoff            200.000000    Ry      # Default: 50.0 Ry ~ 0.444 Bohr
                                    #         100.0 Ry ~ 0.314 Bohr
MaxSCFIterations      500           # Default: 50
DM.MixingWeight       0.05          # Default: 0.25
DM.NumberPulay        10            # Default: 0
DM.PulayOnFile        F             # SystemLabel.P1, SystemLabel.P2
DM.Tolerance          1.d-4         # Default: 1.d-4
DM.UseSaveDM          .true.        # because of the bug
SCFMustConverge       .true.
NeglNonOverlapInt     F             # Default: F
#(5) Eigenvalue problem: order-N or diagonalization
SolutionMethod        Diagon        # or Transiesta
ElectronicTemperature 300.0 K       # Default: 300.0 K
#(6) Molecular dynamics and relaxations
#MD.TypeOfRun          CG            # Type of dynamics:
#MD.VariableCell       F
#MD.NumCGsteps         0           # 0 for single-point / 100 for gopt
#MD.MaxCGDispl         0.2 Bohr      # Default: 0.2 Bohr
#MD.MaxForceTol        0.02 eV/Ang   # Default: 0.04 eV/Ang
#MD.MaxStressTol       1.0 GPa       # Default: 1.0 GPa
# Geometry Constraints
#%block GeometryConstraints
#	position from 1 to 44
#%endblock GeometryConstraints
BandLinesScale   pi/a
%block BandLines
 1   0.00000000  0.00000000  0.00000000
50   0.00000000  0.07809418  0.00000000
50   0.04509075  0.07809242  0.00000000
20   0.00000000  0.00000000  0.00000000
%endblock BandLines
************************** End of input data file *****************************

reinit: -----------------------------------------------------------------------
reinit: System Name: GRP_doping
reinit: -----------------------------------------------------------------------
reinit: System Label: GRP_doping                                                  
reinit: -----------------------------------------------------------------------

initatom: Reading input for the pseudopotentials and atomic orbitals ----------
 Species number:            1  Label: N Atomic number:           7
 Species number:            2  Label: C Atomic number:           6
Ground state valence configuration:   2s02  2p03
Reading pseudopotential information in formatted form from N.psf

Valence configuration for pseudopotential generation:
2s( 2.00) rc: 1.48
2p( 3.00) rc: 1.48
3d( 0.00) rc: 1.48
4f( 0.00) rc: 1.48
Ground state valence configuration:   2s02  2p02
Reading pseudopotential information in formatted form from C.psf

Valence configuration for pseudopotential generation:
2s( 2.00) rc: 1.54
2p( 2.00) rc: 1.54
3d( 0.00) rc: 1.54
4f( 0.00) rc: 1.54
For N, standard SIESTA heuristics set lmxkb to 3
 (one more than the basis l, including polarization orbitals).
Use PS.lmax or PS.KBprojectors blocks to override.
For C, standard SIESTA heuristics set lmxkb to 3
 (one more than the basis l, including polarization orbitals).
Use PS.lmax or PS.KBprojectors blocks to override.

<basis_specs>
===============================================================================
N                    Z=   7    Mass=  14.010        Charge= 0.17977+309
Lmxo=1 Lmxkb= 3    BasisType=split      Semic=F
L=0  Nsemic=0  Cnfigmx=2
          n=1  nzeta=2  polorb=0
            splnorm:   0.15000    
               vcte:    0.0000    
               rinn:    0.0000    
                rcs:    0.0000      0.0000    
            lambdas:    1.0000      1.0000    
L=1  Nsemic=0  Cnfigmx=2
          n=1  nzeta=2  polorb=1
            splnorm:   0.15000    
               vcte:    0.0000    
               rinn:    0.0000    
                rcs:    0.0000      0.0000    
            lambdas:    1.0000      1.0000    
-------------------------------------------------------------------------------
L=0  Nkbl=1  erefs: 0.17977+309
L=1  Nkbl=1  erefs: 0.17977+309
L=2  Nkbl=1  erefs: 0.17977+309
L=3  Nkbl=1  erefs: 0.17977+309
===============================================================================
</basis_specs>

atom: Called for N                     (Z =   7)

read_vps: Pseudopotential generation method:
read_vps: ATM3      Troullier-Martins                       
Total valence charge:    5.00000

read_vps: Pseudopotential includes a core correction:
read_vps: Pseudo-core for xc-correction

xc_check: Exchange-correlation functional:
xc_check: GGA Perdew, Burke & Ernzerhof 1996
V l=0 = -2*Zval/r beyond r=  1.4606
V l=1 = -2*Zval/r beyond r=  1.4606
V l=2 = -2*Zval/r beyond r=  1.4606
V l=3 = -2*Zval/r beyond r=  1.4606
All V_l potentials equal beyond r=  1.4606
This should be close to max(r_c) in ps generation
All pots = -2*Zval/r beyond r=  1.4606

VLOCAL1: 99.0% of the norm of Vloc inside     20.347 Ry
VLOCAL1: 99.9% of the norm of Vloc inside     46.372 Ry
atom: Maximum radius for 4*pi*r*r*local-pseudopot. charge    1.76189
atom: Maximum radius for r*vlocal+2*Zval:    1.53550
GHOST: No ghost state for L =  0
GHOST: No ghost state for L =  1
GHOST: No ghost state for L =  2
GHOST: No ghost state for L =  3

KBgen: Kleinman-Bylander projectors: 
   l= 0   rc=  1.634559   el= -1.363963   Ekb=  5.296955   kbcos=  0.335621
   l= 1   rc=  1.614250   el= -0.521451   Ekb= -5.259161   kbcos= -0.433408
   l= 2   rc=  1.718383   el=  0.001991   Ekb= -1.271464   kbcos= -0.007566
   l= 3   rc=  1.761893   el=  0.003093   Ekb= -0.494769   kbcos= -0.001015

KBgen: Total number of  Kleinman-Bylander projectors:   16
atom: -------------------------------------------------------------------------

atom: SANKEY-TYPE ORBITALS:
atom: Selected multiple-zeta basis: split     

SPLIT: Orbitals with angular momentum L= 0

SPLIT: Basis orbitals for state 2s

SPLIT: PAO cut-off radius determined from an
SPLIT: energy shift=  0.007350 Ry

   izeta = 1
                 lambda =    1.000000
                     rc =    4.071465
                 energy =   -1.356470
                kinetic =    1.176977
    potential(screened) =   -2.533447
       potential(ionic) =   -8.057990

   izeta = 2
                 rmatch =    2.905100
              splitnorm =    0.150000
                 energy =   -1.158343
                kinetic =    1.813009
    potential(screened) =   -2.971352
       potential(ionic) =   -8.901931

SPLIT: Orbitals with angular momentum L= 1

SPLIT: Basis orbitals for state 2p

SPLIT: PAO cut-off radius determined from an
SPLIT: energy shift=  0.007350 Ry

   izeta = 1
                 lambda =    1.000000
                     rc =    4.972977
                 energy =   -0.513884
                kinetic =    3.441732
    potential(screened) =   -3.955616
       potential(ionic) =   -9.287901

   izeta = 2
                 rmatch =    3.054066
              splitnorm =    0.150000
                 energy =   -0.318226
                kinetic =    5.125348
    potential(screened) =   -5.443573
       potential(ionic) =  -11.380999

POLgen: Perturbative polarization orbital with L=  2

POLgen: Polarization orbital for state 2p

   izeta = 1
                     rc =    4.972977
                 energy =    1.607437
                kinetic =    3.268125
    potential(screened) =   -1.660688
       potential(ionic) =   -5.973652
atom: Total number of Sankey-type orbitals: 13

atm_pop: Valence configuration (for local Pseudopot. screening):
 2s( 2.00)                                                            
 2p( 3.00)                                                            
Vna: chval, zval:    5.00000   5.00000

Vna:  Cut-off radius for the neutral-atom potential:   4.972977
comcore: Pseudo-core radius Rcore=  1.554824

atom: _________________________________________________________________________

<basis_specs>
===============================================================================
C                    Z=   6    Mass=  12.010        Charge= 0.17977+309
Lmxo=1 Lmxkb= 3    BasisType=split      Semic=F
L=0  Nsemic=0  Cnfigmx=2
          n=1  nzeta=2  polorb=0
            splnorm:   0.15000    
               vcte:    0.0000    
               rinn:    0.0000    
                rcs:    0.0000      0.0000    
            lambdas:    1.0000      1.0000    
L=1  Nsemic=0  Cnfigmx=2
          n=1  nzeta=2  polorb=1
            splnorm:   0.15000    
               vcte:    0.0000    
               rinn:    0.0000    
                rcs:    0.0000      0.0000    
            lambdas:    1.0000      1.0000    
-------------------------------------------------------------------------------
L=0  Nkbl=1  erefs: 0.17977+309
L=1  Nkbl=1  erefs: 0.17977+309
L=2  Nkbl=1  erefs: 0.17977+309
L=3  Nkbl=1  erefs: 0.17977+309
===============================================================================
</basis_specs>

atom: Called for C                     (Z =   6)

read_vps: Pseudopotential generation method:
read_vps: ATM3      Troullier-Martins                       
Total valence charge:    4.00000

read_vps: Pseudopotential includes a core correction:
read_vps: Pseudo-core for xc-correction

xc_check: Exchange-correlation functional:
xc_check: GGA Perdew, Burke & Ernzerhof 1996
V l=0 = -2*Zval/r beyond r=  1.5227
V l=1 = -2*Zval/r beyond r=  1.5227
V l=2 = -2*Zval/r beyond r=  1.5227
V l=3 = -2*Zval/r beyond r=  1.5038
All V_l potentials equal beyond r=  1.5227
This should be close to max(r_c) in ps generation
All pots = -2*Zval/r beyond r=  1.5227

VLOCAL1: 99.0% of the norm of Vloc inside     18.722 Ry
VLOCAL1: 99.9% of the norm of Vloc inside     42.668 Ry
atom: Maximum radius for 4*pi*r*r*local-pseudopot. charge    1.83678
atom: Maximum radius for r*vlocal+2*Zval:    1.58088
GHOST: No ghost state for L =  0
GHOST: No ghost state for L =  1
GHOST: No ghost state for L =  2
GHOST: No ghost state for L =  3

KBgen: Kleinman-Bylander projectors: 
   l= 0   rc=  1.704034   el= -1.009801   Ekb=  5.335044   kbcos=  0.316824
   l= 1   rc=  1.704034   el= -0.388707   Ekb= -3.785862   kbcos= -0.366464
   l= 2   rc=  1.791422   el=  0.001971   Ekb= -0.970471   kbcos= -0.009212
   l= 3   rc=  1.859892   el=  0.003065   Ekb= -0.399525   kbcos= -0.001223

KBgen: Total number of  Kleinman-Bylander projectors:   16
atom: -------------------------------------------------------------------------

atom: SANKEY-TYPE ORBITALS:
atom: Selected multiple-zeta basis: split     

SPLIT: Orbitals with angular momentum L= 0

SPLIT: Basis orbitals for state 2s

SPLIT: PAO cut-off radius determined from an
SPLIT: energy shift=  0.007350 Ry

   izeta = 1
                 lambda =    1.000000
                     rc =    4.632753
                 energy =   -1.002270
                kinetic =    0.855760
    potential(screened) =   -1.858031
       potential(ionic) =   -5.417575

   izeta = 2
                 rmatch =    3.431921
              splitnorm =    0.150000
                 energy =   -0.867111
                kinetic =    1.300804
    potential(screened) =   -2.167915
       potential(ionic) =   -5.962684

SPLIT: Orbitals with angular momentum L= 1

SPLIT: Basis orbitals for state 2p

SPLIT: PAO cut-off radius determined from an
SPLIT: energy shift=  0.007350 Ry

   izeta = 1
                 lambda =    1.000000
                     rc =    5.658549
                 energy =   -0.381140
                kinetic =    2.399701
    potential(screened) =   -2.780841
       potential(ionic) =   -6.206085

   izeta = 2
                 rmatch =    3.653288
              splitnorm =    0.150000
                 energy =   -0.249149
                kinetic =    3.542762
    potential(screened) =   -3.791911
       potential(ionic) =   -7.581078

POLgen: Perturbative polarization orbital with L=  2

POLgen: Polarization orbital for state 2p

   izeta = 1
                     rc =    5.658549
                 energy =    1.109913
                kinetic =    2.304789
    potential(screened) =   -1.194876
       potential(ionic) =   -4.013592
atom: Total number of Sankey-type orbitals: 13

atm_pop: Valence configuration (for local Pseudopot. screening):
 2s( 2.00)                                                            
 2p( 2.00)                                                            
Vna: chval, zval:    4.00000   4.00000

Vna:  Cut-off radius for the neutral-atom potential:   5.658549
comcore: Pseudo-core radius Rcore=  1.791422

atom: _________________________________________________________________________

prinput: Basis input ----------------------------------------------------------

PAO.BasisType split     

%block ChemicalSpeciesLabel
    1    7 N                       # Species index, atomic number, species label
    2    6 C                       # Species index, atomic number, species label
%endblock ChemicalSpeciesLabel

%block PAO.Basis                 # Define Basis set
N                     2                    # Species label, number of l-shells
 n=2   0   2                         # n, l, Nzeta 
   4.071      2.905   
   1.000      1.000   
 n=2   1   2 P   1                   # n, l, Nzeta, Polarization, NzetaPol
   4.973      3.054   
   1.000      1.000   
C                     2                    # Species label, number of l-shells
 n=2   0   2                         # n, l, Nzeta 
   4.633      3.432   
   1.000      1.000   
 n=2   1   2 P   1                   # n, l, Nzeta, Polarization, NzetaPol
   5.659      3.653   
   1.000      1.000   
%endblock PAO.Basis

prinput: ----------------------------------------------------------------------

coor:   Atomic-coordinates input format  =     Fractional

siesta: Atomic coordinates (Bohr) and species
siesta:     -0.02582   5.28395   0.00000  1        1
siesta:     -2.35420  38.89134   0.00000  1        2
siesta:     -2.35420  41.57980   0.00000  1        3
siesta:      9.28770  26.79272   0.00000  1        4
siesta:     -4.68258  34.85847   0.00000  1        5
siesta:     -4.68258  37.54693   0.00000  1        6
siesta:      2.30256   9.31683   0.00000  1        7
siesta:      4.63094  13.34970   0.00000  1        8
siesta:      6.95932  17.38257   0.00000  1        9
siesta:      9.28770  21.41544   0.00000  1       10
siesta:     11.61608  25.44831   0.00000  1       11
siesta:     -2.35420   6.62836   0.00000  1       12
siesta:     -0.02582  10.66124   0.00000  1       13
siesta:      2.30256  14.69411   0.00000  1       14
siesta:      4.63094  18.72698   0.00000  1       15
siesta:      6.95932  22.75985   0.00000  1       16
siesta:    -11.66772  22.75985   0.00000  1       17
siesta:    -11.66772  25.44831   0.00000  1       18
siesta:     -9.33934  26.79272   0.00000  1       19
siesta:     -9.33934  29.48119   0.00000  1       20
siesta:     -7.01096  30.82560   0.00000  1       21
siesta:     -7.01096  33.51406   0.00000  1       22
siesta:     -0.02582  42.92421   0.00000  1       23
siesta:     -0.02582  45.61267   0.00000  1       24
siesta:     -0.02582   2.59549   0.00000  2       25
siesta:      2.30256  38.89134   0.00000  2       26
siesta:      2.30256  41.57980   0.00000  2       27
siesta:      4.63094  34.85847   0.00000  2       28
siesta:      4.63094  37.54693   0.00000  2       29
siesta:      6.95932  30.82560   0.00000  2       30
siesta:      6.95932  33.51406   0.00000  2       31
siesta:      9.28770  29.48119   0.00000  2       32
siesta:      2.30256   6.62836   0.00000  2       33
siesta:      4.63094  10.66124   0.00000  2       34
siesta:      6.95932  14.69411   0.00000  2       35
siesta:      9.28770  18.72698   0.00000  2       36
siesta:     11.61608  22.75985   0.00000  2       37
siesta:     -2.35420   9.31683   0.00000  2       38
siesta:     -0.02582  13.34970   0.00000  2       39
siesta:      2.30256  17.38257   0.00000  2       40
siesta:      4.63094  21.41544   0.00000  2       41
siesta:      6.95932  25.44831   0.00000  2       42
siesta:     -4.68258  10.66124   0.00000  2       43
siesta:     -4.68258  13.34970   0.00000  2       44
siesta:     -2.35420  14.69411   0.00000  2       45
siesta:     -2.35420  17.38257   0.00000  2       46
siesta:     -0.02582  18.72698   0.00000  2       47
siesta:     -0.02582  21.41544   0.00000  2       48
siesta:      2.30256  22.75985   0.00000  2       49
siesta:      2.30256  25.44831   0.00000  2       50
siesta:     -7.01096  14.69411   0.00000  2       51
siesta:     -7.01096  17.38257   0.00000  2       52
siesta:     -4.68258  18.72698   0.00000  2       53
siesta:     -4.68258  21.41544   0.00000  2       54
siesta:     -2.35420  22.75985   0.00000  2       55
siesta:     -2.35420  25.44831   0.00000  2       56
siesta:     -9.33934  18.72698   0.00000  2       57
siesta:     -9.33934  21.41544   0.00000  2       58
siesta:     -7.01096  22.75985   0.00000  2       59
siesta:     -7.01096  25.44831   0.00000  2       60
siesta:      4.63094  26.79272   0.00000  2       61
siesta:      4.63094  29.48119   0.00000  2       62
siesta:     -0.02582  26.79272   0.00000  2       63
siesta:     -0.02582  29.48119   0.00000  2       64
siesta:     -4.68258  26.79272   0.00000  2       65
siesta:     -4.68258  29.48119   0.00000  2       66
siesta:      2.30256  30.82560   0.00000  2       67
siesta:      2.30256  33.51406   0.00000  2       68
siesta:     -2.35420  30.82560   0.00000  2       69
siesta:     -2.35420  33.51406   0.00000  2       70
siesta:     -0.02582  34.85847   0.00000  2       71
siesta:     -0.02582  37.54693   0.00000  2       72

siesta: System type = slab      

initatomlists: Number of atoms, orbitals, and projectors:     72   936  1152

siesta: ******************** Simulation parameters ****************************
siesta:
siesta: The following are some of the parameters of the simulation.
siesta: A complete list of the parameters used, including default values,
siesta: can be found in file out.fdf
siesta:
redata: Non-Collinear-spin run           =     F
redata: SpinPolarized (Up/Down) run      =     F
redata: Number of spin components        =     1
redata: Long output                      =     F
redata: Number of Atomic Species         =        2
redata: Charge density info will appear in .RHO file
redata: Write Mulliken Pop.              =     NO
redata: Mesh Cutoff                      =   200.0000  Ry
redata: Net charge of the system         =     0.0000 |e|
redata: Max. number of SCF Iter          =      500
redata: SCF convergence failure will abort job
redata: Performing Pulay mixing using    =    10 iterations
redata: Mix DM in first SCF step ?       =     F
redata: Write Pulay info on disk?        =     F
redata: Discard 1st Pulay DM after  kick =     F
redata: New DM Mixing Weight             =     0.0500
redata: New DM Occupancy tolerance       = 0.000000000001
redata: No kicks to SCF
redata: DM Mixing Weight for Kicks       =     0.5000
redata: DM Tolerance for SCF             =     0.000100
redata: Require Energy convergence for SCF =     F
redata: DM Energy tolerance for SCF      =     0.000100 eV
redata: Require Harris convergence for SCF =     F
redata: DM Harris energy tolerance for SCF =     0.000100 eV
redata: Using Saved Data (generic)   =     F
redata: Use continuation files for DM    =     T
redata: Neglect nonoverlap interactions  =     F
redata: Method of Calculation            =     Diagonalization
redata: Divide and Conquer               =     T
redata: Electronic Temperature           =     0.0019  Ry
redata: Fix the spin of the system       =     F
redata: Dynamics option                  =     Verlet MD run
redata: Initial MD time step             =        1
redata:   Final MD time step             =        1
redata: Length of MD time step           =     1.0000  fs
redata: Initial Temperature of MD run    =     0.0000  K
redata: Perform a MD quench              =     F
redata: ***********************************************************************
Total number of electrons:   312.000000
Total ionic charge:   312.000000

* ProcessorY, Blocksize:    2  24

k-point displ. along   1 input, could be:     0.50    0.00
k-point displ. along   2 input, could be:     0.50    0.00
 Kpoints in:          231 . Kpoints trimmed:          231

siesta: k-grid: Number of k-points =   231
siesta: k-grid: Cutoff (effective) =     5.000 Ang
siesta: k-grid: Supercell and displacements
siesta: k-grid:   21   0   0      0.500
siesta: k-grid:    0  21   0      0.500
siesta: k-grid:    0   0   1      0.000
Naive supercell factors:     2    2    2

superc: Internal auxiliary supercell:     2 x     2 x     2  =       8
superc: Number of atoms, orbitals, and projectors:    576   7488   9216

* Maximum dynamic memory allocated =     4 MB

siesta:                 ==============================
                            Begin MD step =      1
                        ==============================

superc: Internal auxiliary supercell:     2 x     2 x     2  =       8
superc: Number of atoms, orbitals, and projectors:    576   7488   9216

outcell: Unit cell vectors (Ang):
       12.804619    7.392750    0.000000
        0.000000   14.785500    0.000000
        0.000000    0.000000   10.000000

outcell: Cell vector modules (Ang)   :   14.785500   14.785500   10.000000
outcell: Cell angles (23,13,12) (deg):     90.0000     90.0000     60.0000
outcell: Cell volume (Ang**3)        :   1893.2269
New_DM. Step:     1
Initializing Density Matrix...

InitMesh: MESH =   120 x   120 x    90 =     1296000
InitMesh: Mesh cutoff (required, used) =   200.000   223.865 Ry

* Maximum dynamic memory allocated =   179 MB

stepf: Fermi-Dirac step function

siesta: Program's energy decomposition (eV):
siesta: Ebs     =     -6389.363812
siesta: Eions   =     22260.935331
siesta: Ena     =      4975.549792
siesta: Ekin    =      8392.322035
siesta: Enl     =       -74.964275
siesta: DEna    =        -0.000015
siesta: DUscf   =         0.000000
siesta: DUext   =         0.000000
siesta: Exc     =     -4781.046888
siesta: eta*DQ  =         0.000000
siesta: Emadel  =         0.000000
siesta: Emeta   =         0.000000
siesta: Emolmec =         0.000000
siesta: Ekinion =         0.000000
siesta: Eharris =    -13344.339355
siesta: Etot    =    -13749.074682
siesta: FreeEng =    -13749.074682

siesta: iscf   Eharris(eV)      E_KS(eV)   FreeEng(eV)   dDmax  Ef(eV)
siesta:    1   -13344.3394   -13749.0747   -13749.0747  5.1831 -6.7566
timer: Routine,Calls,Time,% = IterSCF        1    4125.324  99.70
elaps: Routine,Calls,Wall,% = IterSCF        1     516.336  99.70
siesta:    2   -15678.9168   -12898.8519   -12898.8949 11.6360 -1.4374
siesta:    3   -13258.3501   -13469.4260   -13469.4571  1.7285 -4.1160
siesta:    4   -13228.1506   -13384.3098   -13384.3329  1.1012 -3.6335
siesta:    5   -13201.9536   -13334.3540   -13334.4093  1.0673 -3.7111
siesta:    6   -13198.6750   -13314.0372   -13314.0550  0.9986 -3.7445
siesta:    7   -13197.7076   -13305.3699   -13305.3797  0.9587 -3.7477
siesta:    8   -13195.7830   -13289.5546   -13289.5641  0.7752 -3.8183
siesta:    9   -13196.9033   -13238.7075   -13238.7634  0.4694 -3.6848
siesta:   10   -13195.5508   -13226.6746   -13226.7004  0.2883 -3.7375
siesta:   11   -13195.7833   -13203.5637   -13203.6363  0.2488 -3.5881
siesta:   12   -13195.4667   -13195.3482   -13195.3515  0.1834 -3.5967
siesta:   13   -13194.8330   -13190.7464   -13190.7981  0.1410 -3.6858
siesta:   14   -13194.4568   -13191.4659   -13191.5249  0.1189 -3.7678
siesta:   15   -13194.3787   -13190.4019   -13190.4532  0.0679 -3.7431
siesta:   16   -13194.3519   -13190.9346   -13190.9870  0.0595 -3.7185
siesta:   17   -13194.3194   -13191.3397   -13191.3825  0.0551 -3.7353
siesta:   18   -13194.3282   -13192.5605   -13192.6180  0.0564 -3.7407
siesta:   19   -13194.3171   -13193.3437   -13193.3913  0.0300 -3.7492
siesta:   20   -13194.3237   -13193.7225   -13193.7764  0.0387 -3.7394
siesta:   21   -13194.3175   -13194.3791   -13194.4251  0.0201 -3.7418
siesta:   22   -13194.3133   -13194.3044   -13194.3530  0.0088 -3.7441
siesta:   23   -13194.3141   -13193.9704   -13194.0220  0.0082 -3.7407
siesta:   24   -13194.3115   -13194.0611   -13194.1115  0.0061 -3.7409
siesta:   25   -13194.3112   -13194.1978   -13194.2501  0.0026 -3.7420
siesta:   26   -13194.3110   -13194.2536   -13194.3062  0.0018 -3.7420
siesta:   27   -13194.3110   -13194.2510   -13194.3036  0.0018 -3.7422
siesta:   28   -13194.3111   -13194.2260   -13194.2786  0.0008 -3.7433
siesta:   29   -13194.3111   -13194.2466   -13194.2990  0.0007 -3.7433
siesta:   30   -13194.3110   -13194.2707   -13194.3231  0.0006 -3.7434
siesta:   31   -13194.3111   -13194.2823   -13194.3348  0.0004 -3.7433
siesta:   32   -13194.3110   -13194.2892   -13194.3417  0.0003 -3.7433
siesta:   33   -13194.3111   -13194.3026   -13194.3551  0.0002 -3.7433
siesta:   34   -13194.3111   -13194.3096   -13194.3621  0.0001 -3.7433
siesta:   35   -13194.3111   -13194.3089   -13194.3614  0.0001 -3.7433
siesta:   36   -13194.3111   -13194.3063   -13194.3587  0.0001 -3.7433
siesta:   37   -13194.3111   -13194.3060   -13194.3584  0.0001 -3.7433

siesta: E_KS(eV) =           -13194.3058

siesta: E_KS - E_eggbox =    -13194.3058

siesta: Atomic forces (eV/Ang):
----------------------------------------
   Tot   -0.193317   -0.231889    0.000000
----------------------------------------
   Max  686.131362
   Res  184.036855    sqrt( Sum f_i^2 / 3N )
----------------------------------------
   Max  686.131362    constrained

Stress-tensor-Voigt (kbar):     -612.20    -3325.24       -0.01        9.32        0.00        0.00
(Free)E + p*V (eV/cell)   -11643.4643
Target enthalpy (eV/cell)   -13194.3582

siesta: Stress tensor (static) (eV/Ang**3):
        -0.382103    0.005820    0.000000
         0.005820   -2.075430    0.000000
         0.000000    0.000000   -0.000007

siesta: Pressure (static):       1312.48548015  kBar

siesta: Stress tensor (total) (eV/Ang**3):
        -0.382103    0.005820    0.000000
         0.005820   -2.075430    0.000000
         0.000000    0.000000   -0.000007

siesta: Pressure (total):       1312.48548015  kBar

siesta: Temp_ion =       0.000 K

* Maximum dynamic memory allocated =   195 MB
Computing bands...

siesta: Program's energy decomposition (eV):
siesta: Ebs     =     -5146.441938
siesta: Eions   =     22260.935331
siesta: Ena     =      4975.549792
siesta: Ekin    =     11565.226152
siesta: Enl     =     -1805.214691
siesta: DEna    =      -819.645104
siesta: DUscf   =       112.198267
siesta: DUext   =         0.000000
siesta: Exc     =     -4961.484843
siesta: eta*DQ  =         0.000000
siesta: Emadel  =         0.000000
siesta: Emeta   =         0.000000
siesta: Emolmec =         0.000000
siesta: Ekinion =         0.000000
siesta: Eharris =    -13194.311061
siesta: Etot    =    -13194.305759
siesta: FreeEng =    -13194.358224

siesta: Final energy (eV):
siesta:  Band Struct. =   -5146.441938
siesta:       Kinetic =   11565.226152
siesta:       Hartree =   37153.571927
siesta:    Ext. field =       0.000000
siesta:   Exch.-corr. =   -4961.484843
siesta:  Ion-electron =  -85369.507732
siesta:       Ion-ion =   28417.888737
siesta:       Ekinion =       0.000000
siesta:         Total =  -13194.305759

siesta: Atomic forces (eV/Ang):
siesta:      1   -3.440992 -123.422304    0.000000
siesta:      2   -1.524263  108.360950    0.000000
siesta:      3  -17.404125 -659.492375    0.000000
siesta:      4   -1.840899    1.184091    0.000000
siesta:      5  -29.822142    4.914251    0.000000
siesta:      6  -21.831005 -657.666994    0.000000
siesta:      7   -3.601005 -122.092826    0.000000
siesta:      8   32.132666   -8.659905    0.000000
siesta:      9    1.041237   -1.787965    0.000000
siesta:     10   -0.372229   -2.950152    0.000000
siesta:     11    0.143561   -4.097321    0.000000
siesta:     12  -30.144074  657.426030    0.000000
siesta:     13   -5.969337  668.518841    0.000000
siesta:     14   -7.354994  685.067848    0.000000
siesta:     15   -1.822995    4.405470    0.000000
siesta:     16   -1.691641    1.490856    0.000000
siesta:     17    1.653423    3.200345    0.000000
siesta:     18    0.037477   -2.077130    0.000000
siesta:     19    2.802978   -0.262015    0.000000
siesta:     20   -1.313802    0.070190    0.000000
siesta:     21    1.945977   -0.716697    0.000000
siesta:     22   -1.924687   -4.219571    0.000000
siesta:     23    1.097504  110.751615    0.000000
siesta:     24    2.431178 -646.681224    0.000000
siesta:     25   -0.559566  547.160640    0.000000
siesta:     26    5.318453  111.994385    0.000000
siesta:     27   26.295163 -658.934846    0.000000
siesta:     28   27.392916    2.881862    0.000000
siesta:     29   25.156646 -547.781143    0.000000
siesta:     30    1.070117   -0.051438    0.000000
siesta:     31   -2.685973    1.131935    0.000000
siesta:     32    0.637566   -2.463716    0.000000
siesta:     33    8.168932  545.614839    0.000000
siesta:     34   24.691801  551.798833    0.000000
siesta:     35   -0.730970    1.980746    0.000000
siesta:     36    0.314291    1.404624    0.000000
siesta:     37    0.402589    3.641301    0.000000
siesta:     38    0.040931 -115.111414    0.000000
siesta:     39    0.310842 -116.979664    0.000000
siesta:     40   23.840064   -6.410408    0.000000
siesta:     41    0.777650    0.238017    0.000000
siesta:     42    0.532661   -0.515751    0.000000
siesta:     43  -22.757189  659.369576    0.000000
siesta:     44  -27.623693   -2.835746    0.000000
siesta:     45   -4.026994  686.131362    0.000000
siesta:     46  -25.324095   -3.644427    0.000000
siesta:     47   -2.912147  685.056024    0.000000
siesta:     48   -0.259335    0.028484    0.000000
siesta:     49    1.432741   -0.879544    0.000000
siesta:     50   -0.966836    0.425139    0.000000
siesta:     51    2.670074   -1.321417    0.000000
siesta:     52   -1.693938   -0.105950    0.000000
siesta:     53    1.665061    3.431882    0.000000
siesta:     54   -0.527808    0.236513    0.000000
siesta:     55   -0.242207    0.120533    0.000000
siesta:     56   -0.631684   -0.179034    0.000000
siesta:     57    0.259516   -0.029952    0.000000
siesta:     58   -1.942680    0.573462    0.000000
siesta:     59    0.024531    0.251493    0.000000
siesta:     60   -0.741219    0.556039    0.000000
siesta:     61    1.471704   -0.601584    0.000000
siesta:     62   -1.472457   -2.032541    0.000000
siesta:     63    1.039299   -1.123659    0.000000
siesta:     64    0.477208 -572.178976    0.000000
siesta:     65   -1.077085   -0.560437    0.000000
siesta:     66    0.143366   -0.749578    0.000000
siesta:     67   24.074605    3.122138    0.000000
siesta:     68   15.697049 -559.238266    0.000000
siesta:     69  -24.154044    4.473112    0.000000
siesta:     70    6.410056 -682.078191    0.000000
siesta:     71    5.163447  120.922515    0.000000
siesta:     72    1.429510 -668.233672    0.000000
siesta: ----------------------------------------
siesta:    Tot   -0.193317   -0.231889    0.000000

siesta: Stress tensor (static) (eV/Ang**3):
siesta:    -0.382103    0.005820    0.000000
siesta:     0.005820   -2.075430    0.000000
siesta:     0.000000    0.000000   -0.000007

siesta: Cell volume =       1893.226884 Ang**3

siesta: Pressure (static):
siesta:                Solid            Molecule  Units
siesta:           0.00892192          0.14715845  Ry/Bohr**3
siesta:           0.81918015         13.51158824  eV/Ang**3
siesta:        1312.48548015      21648.18495520  kBar
(Free)E+ p_basis*V_orbitals  =      -13167.051732
(Free)Eharris+ p_basis*V_orbitals  =      -13167.056819

siesta: Electric dipole (a.u.)  =    0.000000    0.000000    0.000000
siesta: Electric dipole (Debye) =    0.000000    0.000000    0.000000

* Maximum dynamic memory allocated : Node    0 =   195 MB
* Maximum dynamic memory allocated : Node    1 =    70 MB
* Maximum dynamic memory allocated : Node    2 =    72 MB
* Maximum dynamic memory allocated : Node    3 =   185 MB
* Maximum dynamic memory allocated : Node    4 =   187 MB
* Maximum dynamic memory allocated : Node    5 =    71 MB
* Maximum dynamic memory allocated : Node    6 =    73 MB
* Maximum dynamic memory allocated : Node    7 =   172 MB

* Maximum memory occured during matrixMtoO                    

timer: CPU execution times:
timer:  Routine       Calls   Time/call    Tot.time        %
timer:  siesta            1  150733.321  150733.321   100.00
timer:  Setup             1       3.877       3.877     0.00
timer:  bands             3     268.361     805.082     0.53
timer:  writewave         1       0.044       0.044     0.00
timer:  KSV_init          1       0.006       0.006     0.00
timer:  IterMD            1  149918.648  149918.648    99.46
timer:  hsparse           1       0.231       0.231     0.00
timer:  overlap           1       7.701       7.701     0.01
timer:  IterSCF          37    4047.519  149758.205    99.35
timer:  kinefsm           2       3.948       7.896     0.01
timer:  nlefsm            2      18.450      36.901     0.02
timer:  DHSCF            38      82.485    3134.446     2.08
timer:  DHSCF1            1       0.763       0.763     0.00
timer:  DHSCF2            1      32.732      32.732     0.02
timer:  REORD           306       0.010       3.068     0.00
timer:  POISON           39       2.234      87.126     0.06
timer:  DHSCF3           38      80.782    3069.726     2.04
timer:  rhoofd           38      16.541     628.558     0.42
timer:  cellXC           38       3.448     131.032     0.09
timer:  vmat             38      38.572    1465.736     0.97
timer:  MolMec            2       0.000       0.000     0.00
timer:  diagon           37    3963.465  146648.212    97.29
timer:  c-eigval       8668       6.667   57791.595    38.34
timer:  c-buildHS      8668       0.112     968.041     0.64
timer:  cdiag         17215       6.833  117624.337    78.03
timer:  cdiag1        17215       0.426    7340.327     4.87
timer:  cdiag2        17215       1.909   32866.329    21.80
timer:  cdiag3        17215       3.946   67925.345    45.06
timer:  cdiag4        17215       0.204    3507.046     2.33
timer:  c-eigvec       8547       7.176   61331.707    40.69
timer:  c-buildD       8547       3.309   28281.375    18.76
timer:  DHSCF4            1      29.188      29.188     0.02
timer:  dfscf             1      27.367      27.367     0.02
timer:  overfsm           1       0.393       0.393     0.00
timer:  optical           1       5.020       5.020     0.00
  

elaps: ELAPSED times:
elaps:  Routine       Calls   Time/call    Tot.time        %
elaps:  siesta            1   18862.133   18862.133   100.00
elaps:  Setup             1       0.501       0.501     0.00
elaps:  bands             3      33.597     100.792     0.53
elaps:  writewave         1       0.006       0.006     0.00
elaps:  KSV_init          1       0.001       0.001     0.00
elaps:  IterMD            1   18760.177   18760.177    99.46
elaps:  hsparse           1       0.029       0.029     0.00
elaps:  overlap           1       0.968       0.968     0.01
elaps:  IterSCF          37     506.493   18740.223    99.35
elaps:  kinefsm           2       0.496       0.992     0.01
elaps:  nlefsm            2       2.335       4.670     0.02
elaps:  DHSCF            38      10.419     395.919     2.10
elaps:  DHSCF1            1       0.099       0.099     0.00
elaps:  DHSCF2            1       4.093       4.093     0.02
elaps:  REORD           306       0.001       0.412     0.00
elaps:  POISON           39       0.279      10.884     0.06
elaps:  DHSCF3           38      10.106     384.041     2.04
elaps:  rhoofd           38       4.517     171.638     0.91
elaps:  cellXC           38       0.431      16.369     0.09
elaps:  vmat             38       4.825     183.366     0.97
elaps:  MolMec            2       0.000       0.000     0.00
elaps:  diagon           37     495.973   18350.985    97.29
elaps:  c-eigval       8668       0.834    7230.828    38.34
elaps:  c-buildHS      8668       0.015     131.696     0.70
elaps:  cdiag         17215       0.849   14622.863    77.52
elaps:  cdiag1        17215       0.053     914.759     4.85
elaps:  cdiag2        17215       0.239    4112.523    21.80
elaps:  cdiag3        17215       0.494    8510.524    45.12
elaps:  cdiag4        17215       0.026     442.892     2.35
elaps:  c-eigvec       8547       0.892    7627.567    40.44
elaps:  c-buildD       8547       0.419    3585.199    19.01
elaps:  DHSCF4            1       7.410       7.410     0.04
elaps:  dfscf             1       7.017       7.017     0.04
elaps:  overfsm           1       0.049       0.049     0.00
elaps:  optical           1       0.001       0.001     0.00
  
>> End of run:  24-APR-2016   7:33:33
