Siesta Version:                                        siesta-3.2-pl-3
Architecture  : x86_64-unknown-linux-gnu--unknown
Compiler flags: mpiifort -g -O2 -fPIC -xSSE4.1 -fp-model source -shared-intel 
PARALLEL version

* Running on    8 nodes in parallel
>> Start of run:  27-APR-2016  13:33:50

                           ***********************       
                           *  WELCOME TO SIESTA  *       
                           ***********************       

reinit: Reading from standard input
************************** Dump of input data file ****************************
#(1) General system descriptors
SystemName            GRP_doping    # Descriptive name of the system
SystemLabel           GRP_doping    # Short name for naming files
%include STRUCT.fdf
%include KPT.fdf
%include BASIS.fdf
#%include TS.fdf # for transiesta calculation
#(4) DFT, Grid, SCF
XC.functional         GGA           # LDA or GGA (default = LDA)
XC.authors            PBE           # CA (Ceperley-Aldr) = PZ
                                    #    (Perdew-Zunger) - LDA - Default
                                    # PW92 (Perdew-Wang-92) - LDA
                                    # PBE (Perdew-Burke-Ernzerhof) - GGA
MeshCutoff            200.000000    Ry      # Default: 50.0 Ry ~ 0.444 Bohr
                                    #         100.0 Ry ~ 0.314 Bohr
MaxSCFIterations      500           # Default: 50
DM.MixingWeight       0.05          # Default: 0.25
DM.NumberPulay        10            # Default: 0
DM.PulayOnFile        F             # SystemLabel.P1, SystemLabel.P2
DM.Tolerance          1.d-4         # Default: 1.d-4
DM.UseSaveDM          .true.        # because of the bug
SCFMustConverge       .true.
NeglNonOverlapInt     F             # Default: F
#(5) Eigenvalue problem: order-N or diagonalization
SolutionMethod        Diagon        # or Transiesta
ElectronicTemperature 300.0 K       # Default: 300.0 K
#(6) Molecular dynamics and relaxations
#MD.TypeOfRun          CG            # Type of dynamics:
#MD.VariableCell       F
#MD.NumCGsteps         0           # 0 for single-point / 100 for gopt
#MD.MaxCGDispl         0.2 Bohr      # Default: 0.2 Bohr
#MD.MaxForceTol        0.02 eV/Ang   # Default: 0.04 eV/Ang
#MD.MaxStressTol       1.0 GPa       # Default: 1.0 GPa
# Geometry Constraints
#%block GeometryConstraints
#	position from 1 to 44
#%endblock GeometryConstraints
BandLinesScale   pi/a
%block BandLines
 1   0.00000000  0.00000000  0.00000000
50   0.00000000  0.07809418  0.00000000
50   0.04509075  0.07809242  0.00000000
20   0.00000000  0.00000000  0.00000000
%endblock BandLines
************************** End of input data file *****************************

reinit: -----------------------------------------------------------------------
reinit: System Name: GRP_doping
reinit: -----------------------------------------------------------------------
reinit: System Label: GRP_doping                                                  
reinit: -----------------------------------------------------------------------

initatom: Reading input for the pseudopotentials and atomic orbitals ----------
 Species number:            1  Label: B Atomic number:           5
 Species number:            2  Label: C Atomic number:           6
Ground state valence configuration:   2s02  2p01
Reading pseudopotential information in formatted form from B.psf

Valence configuration for pseudopotential generation:
2s( 2.00) rc: 1.74
2p( 1.00) rc: 1.74
3d( 0.00) rc: 1.74
4f( 0.00) rc: 1.74
Ground state valence configuration:   2s02  2p02
Reading pseudopotential information in formatted form from C.psf

Valence configuration for pseudopotential generation:
2s( 2.00) rc: 1.54
2p( 2.00) rc: 1.54
3d( 0.00) rc: 1.54
4f( 0.00) rc: 1.54
For B, standard SIESTA heuristics set lmxkb to 3
 (one more than the basis l, including polarization orbitals).
Use PS.lmax or PS.KBprojectors blocks to override.
For C, standard SIESTA heuristics set lmxkb to 3
 (one more than the basis l, including polarization orbitals).
Use PS.lmax or PS.KBprojectors blocks to override.

<basis_specs>
===============================================================================
B                    Z=   5    Mass=  10.810        Charge= 0.17977+309
Lmxo=1 Lmxkb= 3    BasisType=split      Semic=F
L=0  Nsemic=0  Cnfigmx=2
          n=1  nzeta=2  polorb=0
            splnorm:   0.15000    
               vcte:    0.0000    
               rinn:    0.0000    
                rcs:    0.0000      0.0000    
            lambdas:    1.0000      1.0000    
L=1  Nsemic=0  Cnfigmx=2
          n=1  nzeta=2  polorb=1
            splnorm:   0.15000    
               vcte:    0.0000    
               rinn:    0.0000    
                rcs:    0.0000      0.0000    
            lambdas:    1.0000      1.0000    
-------------------------------------------------------------------------------
L=0  Nkbl=1  erefs: 0.17977+309
L=1  Nkbl=1  erefs: 0.17977+309
L=2  Nkbl=1  erefs: 0.17977+309
L=3  Nkbl=1  erefs: 0.17977+309
===============================================================================
</basis_specs>

atom: Called for B                     (Z =   5)

read_vps: Pseudopotential generation method:
read_vps: ATM3      Troullier-Martins                       
Total valence charge:    3.00000

read_vps: Pseudopotential includes a core correction:
read_vps: Pseudo-core for xc-correction

xc_check: Exchange-correlation functional:
xc_check: GGA Perdew, Burke & Ernzerhof 1996
V l=0 = -2*Zval/r beyond r=  1.7165
V l=1 = -2*Zval/r beyond r=  1.7165
V l=2 = -2*Zval/r beyond r=  1.7165
V l=3 = -2*Zval/r beyond r=  1.6951
All V_l potentials equal beyond r=  1.7165
This should be close to max(r_c) in ps generation
All pots = -2*Zval/r beyond r=  1.7165

VLOCAL1: 99.0% of the norm of Vloc inside     14.733 Ry
VLOCAL1: 99.9% of the norm of Vloc inside     33.577 Ry
atom: Maximum radius for 4*pi*r*r*local-pseudopot. charge    2.04484
atom: Maximum radius for r*vlocal+2*Zval:    1.75994
GHOST: No ghost state for L =  0
GHOST: No ghost state for L =  1
GHOST: No ghost state for L =  2
GHOST: No ghost state for L =  3

KBgen: Kleinman-Bylander projectors: 
   l= 0   rc=  1.897051   el= -0.693730   Ekb=  4.595746   kbcos=  0.286105
   l= 1   rc=  1.920920   el= -0.265236   Ekb= -2.350715   kbcos= -0.315747
   l= 2   rc=  2.044840   el=  0.002055   Ekb= -0.690767   kbcos= -0.013822
   l= 3   rc=  2.149707   el=  0.003188   Ekb= -0.315358   kbcos= -0.002055

KBgen: Total number of  Kleinman-Bylander projectors:   16
atom: -------------------------------------------------------------------------

atom: SANKEY-TYPE ORBITALS:
atom: Selected multiple-zeta basis: split     

SPLIT: Orbitals with angular momentum L= 0

SPLIT: Basis orbitals for state 2s

SPLIT: PAO cut-off radius determined from an
SPLIT: energy shift=  0.007350 Ry

   izeta = 1
                 lambda =    1.000000
                     rc =    5.422032
                 energy =   -0.686029
                kinetic =    0.576707
    potential(screened) =   -1.262736
       potential(ionic) =   -3.271094

   izeta = 2
                 rmatch =    4.222573
              splitnorm =    0.150000
                 energy =   -0.602132
                kinetic =    0.858975
    potential(screened) =   -1.461107
       potential(ionic) =   -3.582536

SPLIT: Orbitals with angular momentum L= 1

SPLIT: Basis orbitals for state 2p

SPLIT: PAO cut-off radius determined from an
SPLIT: energy shift=  0.007350 Ry

   izeta = 1
                 lambda =    1.000000
                     rc =    6.790259
                 energy =   -0.258578
                kinetic =    1.481412
    potential(screened) =   -1.739989
       potential(ionic) =   -3.657461

   izeta = 2
                 rmatch =    4.608740
              splitnorm =    0.150000
                 energy =   -0.173757
                kinetic =    2.186690
    potential(screened) =   -2.360447
       potential(ionic) =   -4.464260

POLgen: Perturbative polarization orbital with L=  2

POLgen: Polarization orbital for state 2p

   izeta = 1
                     rc =    6.790259
                 energy =    0.684082
                kinetic =    1.471481
    potential(screened) =   -0.787399
       potential(ionic) =   -2.406985
atom: Total number of Sankey-type orbitals: 13

atm_pop: Valence configuration (for local Pseudopot. screening):
 2s( 2.00)                                                            
 2p( 1.00)                                                            
Vna: chval, zval:    3.00000   3.00000

Vna:  Cut-off radius for the neutral-atom potential:   6.790259
comcore: Pseudo-core radius Rcore=  2.122997

atom: _________________________________________________________________________

<basis_specs>
===============================================================================
C                    Z=   6    Mass=  12.010        Charge= 0.17977+309
Lmxo=1 Lmxkb= 3    BasisType=split      Semic=F
L=0  Nsemic=0  Cnfigmx=2
          n=1  nzeta=2  polorb=0
            splnorm:   0.15000    
               vcte:    0.0000    
               rinn:    0.0000    
                rcs:    0.0000      0.0000    
            lambdas:    1.0000      1.0000    
L=1  Nsemic=0  Cnfigmx=2
          n=1  nzeta=2  polorb=1
            splnorm:   0.15000    
               vcte:    0.0000    
               rinn:    0.0000    
                rcs:    0.0000      0.0000    
            lambdas:    1.0000      1.0000    
-------------------------------------------------------------------------------
L=0  Nkbl=1  erefs: 0.17977+309
L=1  Nkbl=1  erefs: 0.17977+309
L=2  Nkbl=1  erefs: 0.17977+309
L=3  Nkbl=1  erefs: 0.17977+309
===============================================================================
</basis_specs>

atom: Called for C                     (Z =   6)

read_vps: Pseudopotential generation method:
read_vps: ATM3      Troullier-Martins                       
Total valence charge:    4.00000

read_vps: Pseudopotential includes a core correction:
read_vps: Pseudo-core for xc-correction

xc_check: Exchange-correlation functional:
xc_check: GGA Perdew, Burke & Ernzerhof 1996
V l=0 = -2*Zval/r beyond r=  1.5227
V l=1 = -2*Zval/r beyond r=  1.5227
V l=2 = -2*Zval/r beyond r=  1.5227
V l=3 = -2*Zval/r beyond r=  1.5038
All V_l potentials equal beyond r=  1.5227
This should be close to max(r_c) in ps generation
All pots = -2*Zval/r beyond r=  1.5227

VLOCAL1: 99.0% of the norm of Vloc inside     18.722 Ry
VLOCAL1: 99.9% of the norm of Vloc inside     42.668 Ry
atom: Maximum radius for 4*pi*r*r*local-pseudopot. charge    1.83678
atom: Maximum radius for r*vlocal+2*Zval:    1.58088
GHOST: No ghost state for L =  0
GHOST: No ghost state for L =  1
GHOST: No ghost state for L =  2
GHOST: No ghost state for L =  3

KBgen: Kleinman-Bylander projectors: 
   l= 0   rc=  1.704034   el= -1.009801   Ekb=  5.335044   kbcos=  0.316824
   l= 1   rc=  1.704034   el= -0.388707   Ekb= -3.785862   kbcos= -0.366464
   l= 2   rc=  1.791422   el=  0.001971   Ekb= -0.970471   kbcos= -0.009212
   l= 3   rc=  1.859892   el=  0.003065   Ekb= -0.399525   kbcos= -0.001223

KBgen: Total number of  Kleinman-Bylander projectors:   16
atom: -------------------------------------------------------------------------

atom: SANKEY-TYPE ORBITALS:
atom: Selected multiple-zeta basis: split     

SPLIT: Orbitals with angular momentum L= 0

SPLIT: Basis orbitals for state 2s

SPLIT: PAO cut-off radius determined from an
SPLIT: energy shift=  0.007350 Ry

   izeta = 1
                 lambda =    1.000000
                     rc =    4.632753
                 energy =   -1.002270
                kinetic =    0.855760
    potential(screened) =   -1.858031
       potential(ionic) =   -5.417575

   izeta = 2
                 rmatch =    3.431921
              splitnorm =    0.150000
                 energy =   -0.867111
                kinetic =    1.300804
    potential(screened) =   -2.167915
       potential(ionic) =   -5.962684

SPLIT: Orbitals with angular momentum L= 1

SPLIT: Basis orbitals for state 2p

SPLIT: PAO cut-off radius determined from an
SPLIT: energy shift=  0.007350 Ry

   izeta = 1
                 lambda =    1.000000
                     rc =    5.658549
                 energy =   -0.381140
                kinetic =    2.399701
    potential(screened) =   -2.780841
       potential(ionic) =   -6.206085

   izeta = 2
                 rmatch =    3.653288
              splitnorm =    0.150000
                 energy =   -0.249149
                kinetic =    3.542762
    potential(screened) =   -3.791911
       potential(ionic) =   -7.581078

POLgen: Perturbative polarization orbital with L=  2

POLgen: Polarization orbital for state 2p

   izeta = 1
                     rc =    5.658549
                 energy =    1.109913
                kinetic =    2.304789
    potential(screened) =   -1.194876
       potential(ionic) =   -4.013592
atom: Total number of Sankey-type orbitals: 13

atm_pop: Valence configuration (for local Pseudopot. screening):
 2s( 2.00)                                                            
 2p( 2.00)                                                            
Vna: chval, zval:    4.00000   4.00000

Vna:  Cut-off radius for the neutral-atom potential:   5.658549
comcore: Pseudo-core radius Rcore=  1.791422

atom: _________________________________________________________________________

prinput: Basis input ----------------------------------------------------------

PAO.BasisType split     

%block ChemicalSpeciesLabel
    1    5 B                       # Species index, atomic number, species label
    2    6 C                       # Species index, atomic number, species label
%endblock ChemicalSpeciesLabel

%block PAO.Basis                 # Define Basis set
B                     2                    # Species label, number of l-shells
 n=2   0   2                         # n, l, Nzeta 
   5.422      4.223   
   1.000      1.000   
 n=2   1   2 P   1                   # n, l, Nzeta, Polarization, NzetaPol
   6.790      4.609   
   1.000      1.000   
C                     2                    # Species label, number of l-shells
 n=2   0   2                         # n, l, Nzeta 
   4.633      3.432   
   1.000      1.000   
 n=2   1   2 P   1                   # n, l, Nzeta, Polarization, NzetaPol
   5.659      3.653   
   1.000      1.000   
%endblock PAO.Basis

prinput: ----------------------------------------------------------------------

coor:   Atomic-coordinates input format  =     Fractional

siesta: Atomic coordinates (Bohr) and species
siesta:      9.28770  26.79272   0.00000  1        1
siesta:      9.28770  21.41544   0.00000  1        2
siesta:      4.63094  21.41544   0.00000  1        3
siesta:      6.95932  22.75985   0.00000  1        4
siesta:      6.95932  25.44831   0.00000  1        5
siesta:     -0.02582  21.41544   0.00000  1        6
siesta:      2.30256  22.75985   0.00000  1        7
siesta:      2.30256  25.44831   0.00000  1        8
siesta:     -4.68258  21.41544   0.00000  1        9
siesta:     -2.35420  22.75985   0.00000  1       10
siesta:     -2.35420  25.44831   0.00000  1       11
siesta:     -9.33934  21.41544   0.00000  1       12
siesta:     -7.01096  22.75985   0.00000  1       13
siesta:     -7.01096  25.44831   0.00000  1       14
siesta:    -11.66772  22.75985   0.00000  1       15
siesta:    -11.66772  25.44831   0.00000  1       16
siesta:     -9.33934  26.79272   0.00000  1       17
siesta:      4.63094  26.79272   0.00000  1       18
siesta:     -0.02582  26.79272   0.00000  1       19
siesta:     -4.68258  26.79272   0.00000  1       20
siesta:     -0.02582   2.59549   0.00000  2       21
siesta:     -0.02582   5.28395   0.00000  2       22
siesta:     -2.35420  38.89134   0.00000  2       23
siesta:     -2.35420  41.57980   0.00000  2       24
siesta:      2.30256  38.89134   0.00000  2       25
siesta:      2.30256  41.57980   0.00000  2       26
siesta:      4.63094  34.85847   0.00000  2       27
siesta:      4.63094  37.54693   0.00000  2       28
siesta:      6.95932  30.82560   0.00000  2       29
siesta:      6.95932  33.51406   0.00000  2       30
siesta:      9.28770  29.48119   0.00000  2       31
siesta:     -4.68258  34.85847   0.00000  2       32
siesta:     -4.68258  37.54693   0.00000  2       33
siesta:      2.30256   6.62836   0.00000  2       34
siesta:      2.30256   9.31683   0.00000  2       35
siesta:      4.63094  10.66124   0.00000  2       36
siesta:      4.63094  13.34970   0.00000  2       37
siesta:      6.95932  14.69411   0.00000  2       38
siesta:      6.95932  17.38257   0.00000  2       39
siesta:      9.28770  18.72698   0.00000  2       40
siesta:     11.61608  22.75985   0.00000  2       41
siesta:     11.61608  25.44831   0.00000  2       42
siesta:     -2.35420   6.62836   0.00000  2       43
siesta:     -2.35420   9.31683   0.00000  2       44
siesta:     -0.02582  10.66124   0.00000  2       45
siesta:     -0.02582  13.34970   0.00000  2       46
siesta:      2.30256  14.69411   0.00000  2       47
siesta:      2.30256  17.38257   0.00000  2       48
siesta:      4.63094  18.72698   0.00000  2       49
siesta:     -4.68258  10.66124   0.00000  2       50
siesta:     -4.68258  13.34970   0.00000  2       51
siesta:     -2.35420  14.69411   0.00000  2       52
siesta:     -2.35420  17.38257   0.00000  2       53
siesta:     -0.02582  18.72698   0.00000  2       54
siesta:     -7.01096  14.69411   0.00000  2       55
siesta:     -7.01096  17.38257   0.00000  2       56
siesta:     -4.68258  18.72698   0.00000  2       57
siesta:     -9.33934  18.72698   0.00000  2       58
siesta:     -9.33934  29.48119   0.00000  2       59
siesta:      4.63094  29.48119   0.00000  2       60
siesta:     -0.02582  29.48119   0.00000  2       61
siesta:     -4.68258  29.48119   0.00000  2       62
siesta:      2.30256  30.82560   0.00000  2       63
siesta:      2.30256  33.51406   0.00000  2       64
siesta:     -2.35420  30.82560   0.00000  2       65
siesta:     -2.35420  33.51406   0.00000  2       66
siesta:     -7.01096  30.82560   0.00000  2       67
siesta:     -7.01096  33.51406   0.00000  2       68
siesta:     -0.02582  34.85847   0.00000  2       69
siesta:     -0.02582  37.54693   0.00000  2       70
siesta:     -0.02582  42.92421   0.00000  2       71
siesta:     -0.02582  45.61267   0.00000  2       72

siesta: System type = slab      

initatomlists: Number of atoms, orbitals, and projectors:     72   936  1152

siesta: ******************** Simulation parameters ****************************
siesta:
siesta: The following are some of the parameters of the simulation.
siesta: A complete list of the parameters used, including default values,
siesta: can be found in file out.fdf
siesta:
redata: Non-Collinear-spin run           =     F
redata: SpinPolarized (Up/Down) run      =     F
redata: Number of spin components        =     1
redata: Long output                      =     F
redata: Number of Atomic Species         =        2
redata: Charge density info will appear in .RHO file
redata: Write Mulliken Pop.              =     NO
redata: Mesh Cutoff                      =   200.0000  Ry
redata: Net charge of the system         =     0.0000 |e|
redata: Max. number of SCF Iter          =      500
redata: SCF convergence failure will abort job
redata: Performing Pulay mixing using    =    10 iterations
redata: Mix DM in first SCF step ?       =     F
redata: Write Pulay info on disk?        =     F
redata: Discard 1st Pulay DM after  kick =     F
redata: New DM Mixing Weight             =     0.0500
redata: New DM Occupancy tolerance       = 0.000000000001
redata: No kicks to SCF
redata: DM Mixing Weight for Kicks       =     0.5000
redata: DM Tolerance for SCF             =     0.000100
redata: Require Energy convergence for SCF =     F
redata: DM Energy tolerance for SCF      =     0.000100 eV
redata: Require Harris convergence for SCF =     F
redata: DM Harris energy tolerance for SCF =     0.000100 eV
redata: Using Saved Data (generic)   =     F
redata: Use continuation files for DM    =     T
redata: Neglect nonoverlap interactions  =     F
redata: Method of Calculation            =     Diagonalization
redata: Divide and Conquer               =     T
redata: Electronic Temperature           =     0.0019  Ry
redata: Fix the spin of the system       =     F
redata: Dynamics option                  =     Verlet MD run
redata: Initial MD time step             =        1
redata:   Final MD time step             =        1
redata: Length of MD time step           =     1.0000  fs
redata: Initial Temperature of MD run    =     0.0000  K
redata: Perform a MD quench              =     F
redata: ***********************************************************************
Total number of electrons:   268.000000
Total ionic charge:   268.000000

* ProcessorY, Blocksize:    2  24

k-point displ. along   1 input, could be:     0.50    0.00
k-point displ. along   2 input, could be:     0.50    0.00
 Kpoints in:          231 . Kpoints trimmed:          231

siesta: k-grid: Number of k-points =   231
siesta: k-grid: Cutoff (effective) =     5.000 Ang
siesta: k-grid: Supercell and displacements
siesta: k-grid:   21   0   0      0.500
siesta: k-grid:    0  21   0      0.500
siesta: k-grid:    0   0   1      0.000
Naive supercell factors:     2    2    2

superc: Internal auxiliary supercell:     2 x     2 x     2  =       8
superc: Number of atoms, orbitals, and projectors:    576   7488   9216

* Maximum dynamic memory allocated =     4 MB

siesta:                 ==============================
                            Begin MD step =      1
                        ==============================

superc: Internal auxiliary supercell:     2 x     2 x     2  =       8
superc: Number of atoms, orbitals, and projectors:    576   7488   9216

outcell: Unit cell vectors (Ang):
       12.804619    7.392750    0.000000
        0.000000   14.785500    0.000000
        0.000000    0.000000   10.000000

outcell: Cell vector modules (Ang)   :   14.785500   14.785500   10.000000
outcell: Cell angles (23,13,12) (deg):     90.0000     90.0000     60.0000
outcell: Cell volume (Ang**3)        :   1893.2269
New_DM. Step:     1
Initializing Density Matrix...

InitMesh: MESH =   120 x   120 x    90 =     1296000
InitMesh: Mesh cutoff (required, used) =   200.000   223.865 Ry

* Maximum dynamic memory allocated =   218 MB

stepf: Fermi-Dirac step function

siesta: Program's energy decomposition (eV):
siesta: Ebs     =     -5566.266181
siesta: Eions   =     15841.876847
siesta: Ena     =      4257.484060
siesta: Ekin    =      5323.417823
siesta: Enl     =       801.887447
siesta: DEna    =        -0.000008
siesta: DUscf   =         0.000000
siesta: DUext   =         0.000000
siesta: Exc     =     -4213.869051
siesta: eta*DQ  =         0.000000
siesta: Emadel  =         0.000000
siesta: Emeta   =         0.000000
siesta: Emolmec =         0.000000
siesta: Ekinion =         0.000000
siesta: Eharris =     -9340.363599
siesta: Etot    =     -9672.956577
siesta: FreeEng =     -9672.956577

siesta: iscf   Eharris(eV)      E_KS(eV)   FreeEng(eV)   dDmax  Ef(eV)
siesta:    1    -9340.3636    -9672.9566    -9672.9566  6.3078 -8.4972
timer: Routine,Calls,Time,% = IterSCF        1    3530.230  99.70
elaps: Routine,Calls,Wall,% = IterSCF        1     442.120  99.70
siesta:    2   -12021.0492    -8745.8765    -8745.9298 18.5891 -1.6900
siesta:    3    -9255.4106    -9526.1599    -9526.1913  3.5875 -6.7961
siesta:    4    -9239.3452    -9374.0398    -9374.0989  1.4248 -5.4143
siesta:    5    -9208.1863    -9289.8475    -9289.8704  0.7812 -5.1422
siesta:    6    -9192.0049    -9267.8852    -9267.9591  0.7159 -5.1020
siesta:    7    -9185.2069    -9249.4837    -9249.5177  0.6434 -5.1192
siesta:    8    -9182.7189    -9235.0169    -9235.0623  0.5727 -5.1894
siesta:    9    -9181.9615    -9210.9496    -9211.0103  0.4128 -5.1709
siesta:   10    -9181.3683    -9196.8643    -9196.9318  0.3151 -5.1692
siesta:   11    -9179.9286    -9182.2830    -9182.3604  0.2076 -5.1455
siesta:   12    -9180.4709    -9164.5572    -9164.6257  0.1707 -5.1205
siesta:   13    -9179.9588    -9162.7433    -9162.8207  0.1330 -5.1110
siesta:   14    -9179.5046    -9165.1507    -9165.2170  0.1031 -5.1068
siesta:   15    -9179.3518    -9166.3248    -9166.3815  0.0683 -5.1322
siesta:   16    -9179.2132    -9170.9797    -9171.0362  0.0484 -5.1669
siesta:   17    -9179.1491    -9173.6052    -9173.6648  0.0405 -5.1782
siesta:   18    -9179.1316    -9175.7599    -9175.8229  0.0211 -5.1789
siesta:   19    -9179.1281    -9176.2698    -9176.3330  0.0175 -5.1735
siesta:   20    -9179.1258    -9177.4118    -9177.4745  0.0149 -5.1700
siesta:   21    -9179.1245    -9177.8712    -9177.9323  0.0095 -5.1670
siesta:   22    -9179.1239    -9178.1967    -9178.2577  0.0079 -5.1640
siesta:   23    -9179.1226    -9179.3287    -9179.3896  0.0056 -5.1621
siesta:   24    -9179.1222    -9179.4203    -9179.4815  0.0046 -5.1616
siesta:   25    -9179.1217    -9179.4205    -9179.4819  0.0028 -5.1609
siesta:   26    -9179.1216    -9179.2980    -9179.3596  0.0013 -5.1604
siesta:   27    -9179.1216    -9179.2399    -9179.3015  0.0010 -5.1605
siesta:   28    -9179.1215    -9179.2149    -9179.2764  0.0005 -5.1612
siesta:   29    -9179.1215    -9179.1897    -9179.2514  0.0005 -5.1615
siesta:   30    -9179.1215    -9179.1718    -9179.2335  0.0004 -5.1618
siesta:   31    -9179.1215    -9179.1811    -9179.2427  0.0003 -5.1618
siesta:   32    -9179.1216    -9179.1712    -9179.2328  0.0002 -5.1618
siesta:   33    -9179.1215    -9179.1469    -9179.2085  0.0001 -5.1618
siesta:   34    -9179.1215    -9179.1345    -9179.1961  0.0001 -5.1618

siesta: E_KS(eV) =            -9179.1331

siesta: E_KS - E_eggbox =     -9179.1331

siesta: Atomic forces (eV/Ang):
----------------------------------------
   Tot   -0.117569   -0.068336    0.000000
----------------------------------------
   Max  562.785275
   Res  161.237627    sqrt( Sum f_i^2 / 3N )
----------------------------------------
   Max  562.785275    constrained

Stress-tensor-Voigt (kbar):     -839.75    -2978.69       -0.73       -0.57        0.00        0.00
(Free)E + p*V (eV/cell)    -7674.8951
Target enthalpy (eV/cell)    -9179.1947

siesta: Stress tensor (static) (eV/Ang**3):
        -0.524123   -0.000356    0.000000
        -0.000356   -1.859130    0.000000
         0.000000    0.000000   -0.000455

siesta: Pressure (static):       1273.05388536  kBar

siesta: Stress tensor (total) (eV/Ang**3):
        -0.524123   -0.000356    0.000000
        -0.000356   -1.859130    0.000000
         0.000000    0.000000   -0.000455

siesta: Pressure (total):       1273.05388536  kBar

siesta: Temp_ion =       0.000 K

* Maximum dynamic memory allocated =   235 MB
Computing bands...

siesta: Program's energy decomposition (eV):
siesta: Ebs     =     -4229.515845
siesta: Eions   =     15841.876847
siesta: Ena     =      4257.484060
siesta: Ekin    =      8297.819442
siesta: Enl     =      -791.470958
siesta: DEna    =      -820.392761
siesta: DUscf   =       108.521541
siesta: DUext   =         0.000000
siesta: Exc     =     -4389.217621
siesta: eta*DQ  =         0.000000
siesta: Emadel  =         0.000000
siesta: Emeta   =         0.000000
siesta: Emolmec =         0.000000
siesta: Ekinion =         0.000000
siesta: Eharris =     -9179.121541
siesta: Etot    =     -9179.133144
siesta: FreeEng =     -9179.194727

siesta: Final energy (eV):
siesta:  Band Struct. =   -4229.515845
siesta:       Kinetic =    8297.819442
siesta:       Hartree =   28025.992059
siesta:    Ext. field =       0.000000
siesta:   Exch.-corr. =   -4389.217621
siesta:  Ion-electron =  -64104.056716
siesta:       Ion-ion =   22990.329692
siesta:       Ekinion =       0.000000
siesta:         Total =   -9179.133144

siesta: Atomic forces (eV/Ang):
siesta:      1    8.675314    4.184578    0.000000
siesta:      2    8.667877   -4.190517    0.000000
siesta:      3   -0.439515   -4.959367    0.000000
siesta:      4   -1.579372    0.201765    0.000000
siesta:      5   -1.563193   -0.197581    0.000000
siesta:      6    0.007389   -4.686826    0.000000
siesta:      7   -0.427744    0.922057    0.000000
siesta:      8   -0.418768   -0.942070    0.000000
siesta:      9    0.615669   -4.905943    0.000000
siesta:     10    0.504825    0.568311    0.000000
siesta:     11    0.515580   -0.552801    0.000000
siesta:     12   -4.922803   -6.866247    0.000000
siesta:     13    1.088459    0.115676    0.000000
siesta:     14    1.088211   -0.121679    0.000000
siesta:     15   -6.028050   -2.759834    0.000000
siesta:     16   -6.031822    2.757958    0.000000
siesta:     17   -4.922801    6.879525    0.000000
siesta:     18   -0.432617    4.959204    0.000000
siesta:     19    0.013183    4.691922    0.000000
siesta:     20    0.610659    4.904809    0.000000
siesta:     21    0.051556  551.287551    0.000000
siesta:     22   -0.123256 -127.812054    0.000000
siesta:     23    1.912242  126.927938    0.000000
siesta:     24  -14.654561 -547.546419    0.000000
siesta:     25   -1.880470  126.939517    0.000000
siesta:     26   14.502472 -547.356704    0.000000
siesta:     27   26.361743    5.534919    0.000000
siesta:     28   33.090909 -548.622077    0.000000
siesta:     29    2.586097    1.690765    0.000000
siesta:     30   -1.991804    1.669145    0.000000
siesta:     31   -2.964171    2.904641    0.000000
siesta:     32  -26.694629    5.634658    0.000000
siesta:     33  -33.161406 -548.676627    0.000000
siesta:     34   14.509786  547.343952    0.000000
siesta:     35   -1.871733 -126.934620    0.000000
siesta:     36   33.101658  548.615542    0.000000
siesta:     37   26.358651   -5.553556    0.000000
siesta:     38   -1.988579   -1.663711    0.000000
siesta:     39    2.569379   -1.695313    0.000000
siesta:     40   -2.962987   -2.904498    0.000000
siesta:     41    2.585144    7.670345    0.000000
siesta:     42    2.579644   -7.669660    0.000000
siesta:     43  -14.668587  547.551209    0.000000
siesta:     44    1.916257 -126.931783    0.000000
siesta:     45    0.049438  542.934661    0.000000
siesta:     46    0.013114 -125.467175    0.000000
siesta:     47   24.371880  556.558806    0.000000
siesta:     48   21.884861   -5.565312    0.000000
siesta:     49   -1.403149   -1.658129    0.000000
siesta:     50  -33.152959  548.695312    0.000000
siesta:     51  -26.717971   -5.622110    0.000000
siesta:     52  -23.902425  556.870989    0.000000
siesta:     53  -21.772363   -5.737353    0.000000
siesta:     54   -0.027058  562.785275    0.000000
siesta:     55    2.365923   -1.502238    0.000000
siesta:     56   -2.630675   -2.122700    0.000000
siesta:     57    1.127006   -1.297491    0.000000
siesta:     58    2.753457   -1.295162    0.000000
siesta:     59    2.750252    1.290560    0.000000
siesta:     60   -1.409382    1.661999    0.000000
siesta:     61   -0.020609 -562.779460    0.000000
siesta:     62    1.129703    1.300177    0.000000
siesta:     63   21.904713    5.565862    0.000000
siesta:     64   24.355259 -556.569442    0.000000
siesta:     65  -21.761075    5.739083    0.000000
siesta:     66  -23.894169 -556.872764    0.000000
siesta:     67   -2.618345    2.124330    0.000000
siesta:     68    2.371222    1.510803    0.000000
siesta:     69   -0.018845  125.438830    0.000000
siesta:     70    0.030144 -542.965841    0.000000
siesta:     71   -0.141220  127.783460    0.000000
siesta:     72    0.061864 -551.279408    0.000000
siesta: ----------------------------------------
siesta:    Tot   -0.117569   -0.068336    0.000000

siesta: Stress tensor (static) (eV/Ang**3):
siesta:    -0.524123   -0.000356    0.000000
siesta:    -0.000356   -1.859130    0.000000
siesta:     0.000000    0.000000   -0.000455

siesta: Cell volume =       1893.226884 Ang**3

siesta: Pressure (static):
siesta:                Solid            Molecule  Units
siesta:           0.00865387          0.12578676  Ry/Bohr**3
siesta:           0.79456915         11.54931236  eV/Ang**3
siesta:        1273.05388536      18504.23841531  kBar
(Free)E+ p_basis*V_orbitals  =       -9142.138042
(Free)Eharris+ p_basis*V_orbitals  =       -9142.125084

siesta: Electric dipole (a.u.)  =    0.000000    0.000000    0.000000
siesta: Electric dipole (Debye) =    0.000000    0.000000    0.000000

* Maximum dynamic memory allocated : Node    0 =   235 MB
* Maximum dynamic memory allocated : Node    1 =    83 MB
* Maximum dynamic memory allocated : Node    2 =    85 MB
* Maximum dynamic memory allocated : Node    3 =   224 MB
* Maximum dynamic memory allocated : Node    4 =   232 MB
* Maximum dynamic memory allocated : Node    5 =    84 MB
* Maximum dynamic memory allocated : Node    6 =    86 MB
* Maximum dynamic memory allocated : Node    7 =   213 MB

* Maximum memory occured during matrixMtoO                    

timer: CPU execution times:
timer:  Routine       Calls   Time/call    Tot.time        %
timer:  siesta            1  118429.836  118429.836   100.00
timer:  Setup             1       2.712       2.712     0.00
timer:  bands             3     243.967     731.902     0.62
timer:  writewave         1       0.022       0.022     0.00
timer:  KSV_init          1       0.000       0.000     0.00
timer:  IterMD            1  117689.967  117689.967    99.38
timer:  hsparse           1       0.515       0.515     0.00
timer:  overlap           1       7.204       7.204     0.01
timer:  IterSCF          34    3455.617  117490.981    99.21
timer:  kinefsm           2       3.746       7.492     0.01
timer:  nlefsm            2      19.901      39.801     0.03
timer:  DHSCF            35     102.111    3573.870     3.02
timer:  DHSCF1            1       0.989       0.989     0.00
timer:  DHSCF2            1      42.389      42.389     0.04
timer:  REORD           282       0.005       1.411     0.00
timer:  POISON           36       0.878      31.621     0.03
timer:  DHSCF3           35      99.692    3489.207     2.95
timer:  rhoofd           35      23.483     821.913     0.69
timer:  cellXC           35       3.371     118.002     0.10
timer:  vmat             35      47.241    1653.446     1.40
timer:  MolMec            2       0.000       0.000     0.00
timer:  diagon           34    3352.873  113997.687    96.26
timer:  c-eigval       7975       6.029   48082.371    40.60
timer:  c-buildHS      7975       0.053     424.063     0.36
timer:  cdiag         15829       6.179   97809.214    82.59
timer:  cdiag1        15829       0.384    6080.944     5.13
timer:  cdiag2        15829       1.767   27975.624    23.62
timer:  cdiag3        15829       3.732   59077.603    49.88
timer:  cdiag4        15829       0.157    2491.910     2.10
timer:  c-eigvec       7854       6.430   50504.580    42.65
timer:  c-buildD       7854       2.050   16102.488    13.60
timer:  DHSCF4            1      40.634      40.634     0.03
timer:  dfscf             1      37.849      37.849     0.03
timer:  overfsm           1       0.457       0.457     0.00
timer:  optical           1       4.580       4.580     0.00
  

elaps: ELAPSED times:
elaps:  Routine       Calls   Time/call    Tot.time        %
elaps:  siesta            1   14831.321   14831.321   100.00
elaps:  Setup             1       0.340       0.340     0.00
elaps:  bands             3      30.570      91.709     0.62
elaps:  writewave         1       0.002       0.002     0.00
elaps:  KSV_init          1       0.000       0.000     0.00
elaps:  IterMD            1   14738.665   14738.665    99.38
elaps:  hsparse           1       0.066       0.066     0.00
elaps:  overlap           1       0.902       0.902     0.01
elaps:  IterSCF          34     432.757   14713.748    99.21
elaps:  kinefsm           2       0.469       0.938     0.01
elaps:  nlefsm            2       2.631       5.262     0.04
elaps:  DHSCF            35      12.921     452.222     3.05
elaps:  DHSCF1            1       0.126       0.126     0.00
elaps:  DHSCF2            1       5.308       5.308     0.04
elaps:  REORD           282       0.001       0.185     0.00
elaps:  POISON           36       0.111       3.978     0.03
elaps:  DHSCF3           35      12.486     436.999     2.95
elaps:  rhoofd           35       6.010     210.356     1.42
elaps:  cellXC           35       0.422      14.767     0.10
elaps:  vmat             35       5.917     207.087     1.40
elaps:  MolMec            2       0.000       0.000     0.00
elaps:  diagon           34     419.894   14276.398    96.26
elaps:  c-eigval       7975       0.755    6021.444    40.60
elaps:  c-buildHS      7975       0.007      58.445     0.39
elaps:  cdiag         15829       0.771   12209.589    82.32
elaps:  cdiag1        15829       0.048     760.440     5.13
elaps:  cdiag2        15829       0.221    3504.250    23.63
elaps:  cdiag3        15829       0.468    7408.520    49.95
elaps:  cdiag4        15829       0.020     312.615     2.11
elaps:  c-eigvec       7854       0.802    6299.322    42.47
elaps:  c-buildD       7854       0.260    2041.753    13.77
elaps:  DHSCF4            1       9.711       9.711     0.07
elaps:  dfscf             1       9.168       9.168     0.06
elaps:  overfsm           1       0.056       0.056     0.00
elaps:  optical           1       0.000       0.000     0.00
  
>> End of run:  27-APR-2016  17:41:01
