Siesta Version:                                        siesta-3.2-pl-3
Architecture  : x86_64-unknown-linux-gnu--unknown
Compiler flags: mpiifort -g -O2 -fPIC -xSSE4.1 -fp-model source -shared-intel 
PARALLEL version

* Running on   12 nodes in parallel
>> Start of run:   6-APR-2016  14:02:44

                           ***********************       
                           *  WELCOME TO SIESTA  *       
                           ***********************       

reinit: Reading from standard input
************************** Dump of input data file ****************************
#(1) General system descriptors
SystemName            GRP_doping    # Descriptive name of the system
SystemLabel           GRP_doping    # Short name for naming files
%include STRUCT.fdf
%include KPT.fdf
%include BASIS.fdf
#%include TS.fdf # for transiesta calculation
#(4) DFT, Grid, SCF
XC.functional         GGA           # LDA or GGA (default = LDA)
XC.authors            PBE           # CA (Ceperley-Aldr) = PZ
                                    #    (Perdew-Zunger) - LDA - Default
                                    # PW92 (Perdew-Wang-92) - LDA
                                    # PBE (Perdew-Burke-Ernzerhof) - GGA
MeshCutoff            200.000000    Ry      # Default: 50.0 Ry ~ 0.444 Bohr
                                    #         100.0 Ry ~ 0.314 Bohr
MaxSCFIterations      500           # Default: 50
DM.MixingWeight       0.05          # Default: 0.25
DM.NumberPulay        10            # Default: 0
DM.PulayOnFile        F             # SystemLabel.P1, SystemLabel.P2
DM.Tolerance          1.d-4         # Default: 1.d-4
DM.UseSaveDM          .true.        # because of the bug
SCFMustConverge       .true.
NeglNonOverlapInt     F             # Default: F
Diag.ParallelOverK    .true.
#(5) Eigenvalue problem: order-N or diagonalization
SolutionMethod        Diagon        # or Transiesta
ElectronicTemperature 300.0 K       # Default: 300.0 K
#(6) Molecular dynamics and relaxations
#MD.TypeOfRun          CG            # Type of dynamics:
#MD.VariableCell       F
#MD.NumCGsteps         0           # 0 for single-point / 100 for gopt
#MD.MaxCGDispl         0.2 Bohr      # Default: 0.2 Bohr
#MD.MaxForceTol        0.02 eV/Ang   # Default: 0.04 eV/Ang
#MD.MaxStressTol       1.0 GPa       # Default: 1.0 GPa
************************** End of input data file *****************************

reinit: -----------------------------------------------------------------------
reinit: System Name: GRP_doping
reinit: -----------------------------------------------------------------------
reinit: System Label: GRP_doping                                                  
reinit: -----------------------------------------------------------------------

initatom: Reading input for the pseudopotentials and atomic orbitals ----------
 Species number:            1  Label: C Atomic number:           6
 Species number:            2  Label: B Atomic number:           5
Ground state valence configuration:   2s02  2p02
Reading pseudopotential information in formatted form from C.psf

Valence configuration for pseudopotential generation:
2s( 2.00) rc: 1.54
2p( 2.00) rc: 1.54
3d( 0.00) rc: 1.54
4f( 0.00) rc: 1.54
Ground state valence configuration:   2s02  2p01
Reading pseudopotential information in formatted form from B.psf

Valence configuration for pseudopotential generation:
2s( 2.00) rc: 1.74
2p( 1.00) rc: 1.74
3d( 0.00) rc: 1.74
4f( 0.00) rc: 1.74
For C, standard SIESTA heuristics set lmxkb to 3
 (one more than the basis l, including polarization orbitals).
Use PS.lmax or PS.KBprojectors blocks to override.
For B, standard SIESTA heuristics set lmxkb to 3
 (one more than the basis l, including polarization orbitals).
Use PS.lmax or PS.KBprojectors blocks to override.

<basis_specs>
===============================================================================
C                    Z=   6    Mass=  12.010        Charge= 0.17977+309
Lmxo=1 Lmxkb= 3    BasisType=split      Semic=F
L=0  Nsemic=0  Cnfigmx=2
          n=1  nzeta=2  polorb=0
            splnorm:   0.15000    
               vcte:    0.0000    
               rinn:    0.0000    
                rcs:    0.0000      0.0000    
            lambdas:    1.0000      1.0000    
L=1  Nsemic=0  Cnfigmx=2
          n=1  nzeta=2  polorb=1
            splnorm:   0.15000    
               vcte:    0.0000    
               rinn:    0.0000    
                rcs:    0.0000      0.0000    
            lambdas:    1.0000      1.0000    
-------------------------------------------------------------------------------
L=0  Nkbl=1  erefs: 0.17977+309
L=1  Nkbl=1  erefs: 0.17977+309
L=2  Nkbl=1  erefs: 0.17977+309
L=3  Nkbl=1  erefs: 0.17977+309
===============================================================================
</basis_specs>

atom: Called for C                     (Z =   6)

read_vps: Pseudopotential generation method:
read_vps: ATM3      Troullier-Martins                       
Total valence charge:    4.00000

read_vps: Pseudopotential includes a core correction:
read_vps: Pseudo-core for xc-correction

xc_check: Exchange-correlation functional:
xc_check: GGA Perdew, Burke & Ernzerhof 1996
V l=0 = -2*Zval/r beyond r=  1.5227
V l=1 = -2*Zval/r beyond r=  1.5227
V l=2 = -2*Zval/r beyond r=  1.5227
V l=3 = -2*Zval/r beyond r=  1.5038
All V_l potentials equal beyond r=  1.5227
This should be close to max(r_c) in ps generation
All pots = -2*Zval/r beyond r=  1.5227

VLOCAL1: 99.0% of the norm of Vloc inside     18.722 Ry
VLOCAL1: 99.9% of the norm of Vloc inside     42.668 Ry
atom: Maximum radius for 4*pi*r*r*local-pseudopot. charge    1.83678
atom: Maximum radius for r*vlocal+2*Zval:    1.58088
GHOST: No ghost state for L =  0
GHOST: No ghost state for L =  1
GHOST: No ghost state for L =  2
GHOST: No ghost state for L =  3

KBgen: Kleinman-Bylander projectors: 
   l= 0   rc=  1.704034   el= -1.009801   Ekb=  5.335044   kbcos=  0.316824
   l= 1   rc=  1.704034   el= -0.388707   Ekb= -3.785862   kbcos= -0.366464
   l= 2   rc=  1.791422   el=  0.001971   Ekb= -0.970471   kbcos= -0.009212
   l= 3   rc=  1.859892   el=  0.003065   Ekb= -0.399525   kbcos= -0.001223

KBgen: Total number of  Kleinman-Bylander projectors:   16
atom: -------------------------------------------------------------------------

atom: SANKEY-TYPE ORBITALS:
atom: Selected multiple-zeta basis: split     

SPLIT: Orbitals with angular momentum L= 0

SPLIT: Basis orbitals for state 2s

SPLIT: PAO cut-off radius determined from an
SPLIT: energy shift=  0.007350 Ry

   izeta = 1
                 lambda =    1.000000
                     rc =    4.632753
                 energy =   -1.002270
                kinetic =    0.855760
    potential(screened) =   -1.858031
       potential(ionic) =   -5.417575

   izeta = 2
                 rmatch =    3.431921
              splitnorm =    0.150000
                 energy =   -0.867111
                kinetic =    1.300804
    potential(screened) =   -2.167915
       potential(ionic) =   -5.962684

SPLIT: Orbitals with angular momentum L= 1

SPLIT: Basis orbitals for state 2p

SPLIT: PAO cut-off radius determined from an
SPLIT: energy shift=  0.007350 Ry

   izeta = 1
                 lambda =    1.000000
                     rc =    5.658549
                 energy =   -0.381140
                kinetic =    2.399701
    potential(screened) =   -2.780841
       potential(ionic) =   -6.206085

   izeta = 2
                 rmatch =    3.653288
              splitnorm =    0.150000
                 energy =   -0.249149
                kinetic =    3.542762
    potential(screened) =   -3.791911
       potential(ionic) =   -7.581078

POLgen: Perturbative polarization orbital with L=  2

POLgen: Polarization orbital for state 2p

   izeta = 1
                     rc =    5.658549
                 energy =    1.109913
                kinetic =    2.304789
    potential(screened) =   -1.194876
       potential(ionic) =   -4.013592
atom: Total number of Sankey-type orbitals: 13

atm_pop: Valence configuration (for local Pseudopot. screening):
 2s( 2.00)                                                            
 2p( 2.00)                                                            
Vna: chval, zval:    4.00000   4.00000

Vna:  Cut-off radius for the neutral-atom potential:   5.658549
comcore: Pseudo-core radius Rcore=  1.791422

atom: _________________________________________________________________________

<basis_specs>
===============================================================================
B                    Z=   5    Mass=  10.810        Charge= 0.17977+309
Lmxo=1 Lmxkb= 3    BasisType=split      Semic=F
L=0  Nsemic=0  Cnfigmx=2
          n=1  nzeta=2  polorb=0
            splnorm:   0.15000    
               vcte:    0.0000    
               rinn:    0.0000    
                rcs:    0.0000      0.0000    
            lambdas:    1.0000      1.0000    
L=1  Nsemic=0  Cnfigmx=2
          n=1  nzeta=2  polorb=1
            splnorm:   0.15000    
               vcte:    0.0000    
               rinn:    0.0000    
                rcs:    0.0000      0.0000    
            lambdas:    1.0000      1.0000    
-------------------------------------------------------------------------------
L=0  Nkbl=1  erefs: 0.17977+309
L=1  Nkbl=1  erefs: 0.17977+309
L=2  Nkbl=1  erefs: 0.17977+309
L=3  Nkbl=1  erefs: 0.17977+309
===============================================================================
</basis_specs>

atom: Called for B                     (Z =   5)

read_vps: Pseudopotential generation method:
read_vps: ATM3      Troullier-Martins                       
Total valence charge:    3.00000

read_vps: Pseudopotential includes a core correction:
read_vps: Pseudo-core for xc-correction

xc_check: Exchange-correlation functional:
xc_check: GGA Perdew, Burke & Ernzerhof 1996
V l=0 = -2*Zval/r beyond r=  1.7165
V l=1 = -2*Zval/r beyond r=  1.7165
V l=2 = -2*Zval/r beyond r=  1.7165
V l=3 = -2*Zval/r beyond r=  1.6951
All V_l potentials equal beyond r=  1.7165
This should be close to max(r_c) in ps generation
All pots = -2*Zval/r beyond r=  1.7165

VLOCAL1: 99.0% of the norm of Vloc inside     14.733 Ry
VLOCAL1: 99.9% of the norm of Vloc inside     33.577 Ry
atom: Maximum radius for 4*pi*r*r*local-pseudopot. charge    2.04484
atom: Maximum radius for r*vlocal+2*Zval:    1.75994
GHOST: No ghost state for L =  0
GHOST: No ghost state for L =  1
GHOST: No ghost state for L =  2
GHOST: No ghost state for L =  3

KBgen: Kleinman-Bylander projectors: 
   l= 0   rc=  1.897051   el= -0.693730   Ekb=  4.595746   kbcos=  0.286105
   l= 1   rc=  1.920920   el= -0.265236   Ekb= -2.350715   kbcos= -0.315747
   l= 2   rc=  2.044840   el=  0.002055   Ekb= -0.690767   kbcos= -0.013822
   l= 3   rc=  2.149707   el=  0.003188   Ekb= -0.315358   kbcos= -0.002055

KBgen: Total number of  Kleinman-Bylander projectors:   16
atom: -------------------------------------------------------------------------

atom: SANKEY-TYPE ORBITALS:
atom: Selected multiple-zeta basis: split     

SPLIT: Orbitals with angular momentum L= 0

SPLIT: Basis orbitals for state 2s

SPLIT: PAO cut-off radius determined from an
SPLIT: energy shift=  0.007350 Ry

   izeta = 1
                 lambda =    1.000000
                     rc =    5.422032
                 energy =   -0.686029
                kinetic =    0.576707
    potential(screened) =   -1.262736
       potential(ionic) =   -3.271094

   izeta = 2
                 rmatch =    4.222573
              splitnorm =    0.150000
                 energy =   -0.602132
                kinetic =    0.858975
    potential(screened) =   -1.461107
       potential(ionic) =   -3.582536

SPLIT: Orbitals with angular momentum L= 1

SPLIT: Basis orbitals for state 2p

SPLIT: PAO cut-off radius determined from an
SPLIT: energy shift=  0.007350 Ry

   izeta = 1
                 lambda =    1.000000
                     rc =    6.790259
                 energy =   -0.258578
                kinetic =    1.481412
    potential(screened) =   -1.739989
       potential(ionic) =   -3.657461

   izeta = 2
                 rmatch =    4.608740
              splitnorm =    0.150000
                 energy =   -0.173757
                kinetic =    2.186690
    potential(screened) =   -2.360447
       potential(ionic) =   -4.464260

POLgen: Perturbative polarization orbital with L=  2

POLgen: Polarization orbital for state 2p

   izeta = 1
                     rc =    6.790259
                 energy =    0.684082
                kinetic =    1.471481
    potential(screened) =   -0.787399
       potential(ionic) =   -2.406985
atom: Total number of Sankey-type orbitals: 13

atm_pop: Valence configuration (for local Pseudopot. screening):
 2s( 2.00)                                                            
 2p( 1.00)                                                            
Vna: chval, zval:    3.00000   3.00000

Vna:  Cut-off radius for the neutral-atom potential:   6.790259
comcore: Pseudo-core radius Rcore=  2.122997

atom: _________________________________________________________________________

prinput: Basis input ----------------------------------------------------------

PAO.BasisType split     

%block ChemicalSpeciesLabel
    1    6 C                       # Species index, atomic number, species label
    2    5 B                       # Species index, atomic number, species label
%endblock ChemicalSpeciesLabel

%block PAO.Basis                 # Define Basis set
C                     2                    # Species label, number of l-shells
 n=2   0   2                         # n, l, Nzeta 
   4.633      3.432   
   1.000      1.000   
 n=2   1   2 P   1                   # n, l, Nzeta, Polarization, NzetaPol
   5.659      3.653   
   1.000      1.000   
B                     2                    # Species label, number of l-shells
 n=2   0   2                         # n, l, Nzeta 
   5.422      4.223   
   1.000      1.000   
 n=2   1   2 P   1                   # n, l, Nzeta, Polarization, NzetaPol
   6.790      4.609   
   1.000      1.000   
%endblock PAO.Basis

prinput: ----------------------------------------------------------------------

coor:   Atomic-coordinates input format  =     Cartesian coordinates
coor:                                          (in Angstroms)

siesta: Atomic coordinates (Bohr) and species
siesta:      2.23554   1.32097   0.00000  1        1
siesta:      4.56367   2.66461   0.00000  1        2
siesta:     32.50328  21.48508   0.00000  1        3
siesta:     34.83141  22.82873   0.00000  1        4
siesta:     34.83116  17.45226   0.00000  1        5
siesta:     37.15930  18.79590   0.00000  1        6
siesta:     32.50291  13.41944   0.00000  1        7
siesta:     34.83104  14.76308   0.00000  1        8
siesta:     30.17465   9.38661   0.00000  1        9
siesta:     32.50278  10.73026   0.00000  1       10
siesta:     27.84639   5.35379   0.00000  1       11
siesta:     30.17453   6.69743   0.00000  1       12
siesta:     27.84714  21.48508   0.00000  1       13
siesta:     30.17527  22.82873   0.00000  1       14
siesta:      6.89168   1.32097   0.00000  1       15
siesta:      9.21981   2.66461   0.00000  1       16
siesta:     11.54782   1.32097   0.00000  1       17
siesta:     13.87595   2.66461   0.00000  1       18
siesta:     16.20396   1.32097   0.00000  1       19
siesta:     18.53210   2.66461   0.00000  1       20
siesta:     20.86199   1.32097   0.00000  1       21
siesta:     23.19013   2.66461   0.00000  1       22
siesta:     25.51813   1.32097   0.00000  1       23
siesta:     27.84627   2.66461   0.00000  1       24
siesta:      4.56380   5.35379   0.00000  1       25
siesta:      6.89193   6.69743   0.00000  1       26
siesta:      9.21994   5.35379   0.00000  1       27
siesta:     11.54807   6.69743   0.00000  1       28
siesta:     13.87608   5.35379   0.00000  1       29
siesta:     16.20421   6.69743   0.00000  1       30
siesta:     18.53411   5.35379   0.00000  1       31
siesta:     20.86224   6.69743   0.00000  1       32
siesta:     23.19025   5.35379   0.00000  1       33
siesta:     25.51838   6.69743   0.00000  1       34
siesta:      6.89205   9.38661   0.00000  1       35
siesta:      9.22019  10.73026   0.00000  1       36
siesta:     11.54820   9.38661   0.00000  1       37
siesta:     13.87633  10.73026   0.00000  1       38
siesta:     16.20434   9.38661   0.00000  1       39
siesta:     20.86237   9.38661   0.00000  1       40
siesta:      9.22031  13.41944   0.00000  1       41
siesta:     11.54845  14.76308   0.00000  1       42
siesta:     13.87645  13.41944   0.00000  1       43
siesta:     16.20459  14.76308   0.00000  1       44
siesta:     18.53448  13.41944   0.00000  1       45
siesta:     20.86262  14.76308   0.00000  1       46
siesta:     11.54857  17.45226   0.00000  1       47
siesta:     13.87670  18.79590   0.00000  1       48
siesta:     16.20471  17.45226   0.00000  1       49
siesta:     18.53284  18.79590   0.00000  1       50
siesta:     13.87683  21.48508   0.00000  1       51
siesta:     16.20496  22.82873   0.00000  1       52
siesta:     18.53486  21.48508   0.00000  1       53
siesta:     20.86299  22.82873   0.00000  1       54
siesta:     25.51851   9.38661   0.00000  1       55
siesta:     27.84664  10.73026   0.00000  1       56
siesta:     23.19063  13.41944   0.00000  1       57
siesta:     25.51876  14.76308   0.00000  1       58
siesta:     20.86274  17.45226   0.00000  1       59
siesta:     23.19088  18.79590   0.00000  1       60
siesta:     27.84677  13.41944   0.00000  1       61
siesta:     30.17490  14.76308   0.00000  1       62
siesta:     25.51888  17.45226   0.00000  1       63
siesta:     27.84702  18.79590   0.00000  1       64
siesta:     23.19100  21.48508   0.00000  1       65
siesta:     25.51913  22.82873   0.00000  1       66
siesta:     30.17503  17.45226   0.00000  1       67
siesta:     32.50316  18.79590   0.00000  1       68
siesta:     37.16131  21.48508   0.00000  1       69
siesta:     39.48945  22.82873   0.00000  1       70
siesta:     18.53247  10.73026   0.00000  2       71
siesta:     23.19050  10.73026   0.00000  2       72

siesta: System type = slab      

initatomlists: Number of atoms, orbitals, and projectors:     72   936  1152

siesta: ******************** Simulation parameters ****************************
siesta:
siesta: The following are some of the parameters of the simulation.
siesta: A complete list of the parameters used, including default values,
siesta: can be found in file out.fdf
siesta:
redata: Non-Collinear-spin run           =     F
redata: SpinPolarized (Up/Down) run      =     F
redata: Number of spin components        =     1
redata: Long output                      =     F
redata: Number of Atomic Species         =        2
redata: Charge density info will appear in .RHO file
redata: Write Mulliken Pop.              =     NO
redata: Mesh Cutoff                      =   200.0000  Ry
redata: Net charge of the system         =     0.0000 |e|
redata: Max. number of SCF Iter          =      500
redata: SCF convergence failure will abort job
redata: Performing Pulay mixing using    =    10 iterations
redata: Mix DM in first SCF step ?       =     F
redata: Write Pulay info on disk?        =     F
redata: Discard 1st Pulay DM after  kick =     F
redata: New DM Mixing Weight             =     0.0500
redata: New DM Occupancy tolerance       = 0.000000000001
redata: No kicks to SCF
redata: DM Mixing Weight for Kicks       =     0.5000
redata: DM Tolerance for SCF             =     0.000100
redata: Require Energy convergence for SCF =     F
redata: DM Energy tolerance for SCF      =     0.000100 eV
redata: Require Harris convergence for SCF =     F
redata: DM Harris energy tolerance for SCF =     0.000100 eV
redata: Using Saved Data (generic)   =     F
redata: Use continuation files for DM    =     T
redata: Neglect nonoverlap interactions  =     F
redata: Method of Calculation            =     Diagonalization
redata: Divide and Conquer               =     T
redata: Electronic Temperature           =     0.0019  Ry
redata: Fix the spin of the system       =     F
redata: Dynamics option                  =     Verlet MD run
redata: Initial MD time step             =        1
redata:   Final MD time step             =        1
redata: Length of MD time step           =     1.0000  fs
redata: Initial Temperature of MD run    =     0.0000  K
redata: Perform a MD quench              =     F
redata: ***********************************************************************
Total number of electrons:   286.000000
Total ionic charge:   286.000000

* ProcessorY, Blocksize:    3  24

k-point displ. along   1 input, could be:     0.50    0.00
k-point displ. along   2 input, could be:     0.50    0.00
 Kpoints in:          231 . Kpoints trimmed:          231

siesta: k-grid: Number of k-points =   231
siesta: k-grid: Cutoff (effective) =     5.000 Ang
siesta: k-grid: Supercell and displacements
siesta: k-grid:   21   0   0      0.500
siesta: k-grid:    0  21   0      0.500
siesta: k-grid:    0   0   1      0.000
Naive supercell factors:     2    2    2

superc: Internal auxiliary supercell:     2 x     2 x     2  =       8
superc: Number of atoms, orbitals, and projectors:    576   7488   9216

* Maximum dynamic memory allocated =     4 MB

siesta:                 ==============================
                            Begin MD step =      1
                        ==============================

superc: Internal auxiliary supercell:     2 x     2 x     2  =       8
superc: Number of atoms, orbitals, and projectors:    576   7488   9216

outcell: Unit cell vectors (Ang):
       14.785000    0.000000    0.000000
        7.393000   12.805052    0.000000
        0.000000    0.000000   10.000000

outcell: Cell vector modules (Ang)   :   14.785000   14.786000   10.000000
outcell: Cell angles (23,13,12) (deg):     90.0000     90.0000     60.0000
outcell: Cell volume (Ang**3)        :   1893.2269
New_DM. Step:     1
Initializing Density Matrix...

iodm: Reading Density Matrix from files

InitMesh: MESH =   120 x   120 x    90 =     1296000
InitMesh: Mesh cutoff (required, used) =   200.000   223.865 Ry

* Maximum dynamic memory allocated =   142 MB

stepf: Fermi-Dirac step function

siesta: Program's energy decomposition (eV):
siesta: Ebs     =     -3882.966000
siesta: Eions   =     18146.897649
siesta: Ena     =      3930.203708
siesta: Ekin    =      7736.870026
siesta: Enl     =      -770.378041
siesta: DEna    =      -298.154772
siesta: DUscf   =        27.612098
siesta: DUext   =         0.000000
siesta: Exc     =     -4046.514537
siesta: eta*DQ  =         0.000000
siesta: Emadel  =         0.000000
siesta: Emeta   =         0.000000
siesta: Emolmec =         0.000000
siesta: Ekinion =         0.000000
siesta: Eharris =    -11567.259154
siesta: Etot    =    -11567.259165
siesta: FreeEng =    -11567.259165

siesta: iscf   Eharris(eV)      E_KS(eV)   FreeEng(eV)   dDmax  Ef(eV)
siesta:    1   -11567.2592   -11567.2592   -11567.2592  0.0000 -5.2352
timer: Routine,Calls,Time,% = IterSCF        1    1163.381  98.94
elaps: Routine,Calls,Wall,% = IterSCF        1      97.185  98.93

siesta: E_KS(eV) =           -11567.2592

siesta: E_KS - E_eggbox =    -11567.2592

siesta: Atomic forces (eV/Ang):
----------------------------------------
   Tot    0.191329   -0.299801    0.000000
----------------------------------------
   Max    3.759424
   Res    0.588955    sqrt( Sum f_i^2 / 3N )
----------------------------------------
   Max    3.759424    constrained

Stress-tensor-Voigt (kbar):      -53.90      -53.90       -0.05       -0.44        0.00        0.00
(Free)E + p*V (eV/cell)   -11524.7934
Target enthalpy (eV/cell)   -11567.2758

siesta: Stress tensor (static) (eV/Ang**3):
        -0.033642   -0.000272    0.000000
        -0.000272   -0.033642    0.000000
         0.000000    0.000000   -0.000033

siesta: Pressure (static):         35.95190598  kBar

siesta: Stress tensor (total) (eV/Ang**3):
        -0.033642   -0.000272    0.000000
        -0.000272   -0.033642    0.000000
         0.000000    0.000000   -0.000033

siesta: Pressure (total):         35.95190598  kBar

siesta: Temp_ion =       0.000 K

* Maximum dynamic memory allocated =   237 MB

siesta: Program's energy decomposition (eV):
siesta: Ebs     =     -3882.966000
siesta: Eions   =     18146.897649
siesta: Ena     =      3930.203708
siesta: Ekin    =      7736.873345
siesta: Enl     =      -770.378942
siesta: DEna    =      -298.156812
siesta: DUscf   =        27.612375
siesta: DUext   =         0.000000
siesta: Exc     =     -4046.515177
siesta: eta*DQ  =         0.000000
siesta: Emadel  =         0.000000
siesta: Emeta   =         0.000000
siesta: Emolmec =         0.000000
siesta: Ekinion =         0.000000
siesta: Eharris =    -11567.259154
siesta: Etot    =    -11567.259152
siesta: FreeEng =    -11567.275832

siesta: Final energy (eV):
siesta:  Band Struct. =   -3882.966000
siesta:       Kinetic =    7736.873345
siesta:       Hartree =   22794.610577
siesta:    Ext. field =       0.000000
siesta:   Exch.-corr. =   -4046.515177
siesta:  Ion-electron =  -52706.923688
siesta:       Ion-ion =   14654.695791
siesta:       Ekinion =       0.000000
siesta:         Total =  -11567.259152

siesta: Atomic forces (eV/Ang):
siesta:      1   -0.065960   -0.044680    0.000000
siesta:      2    0.019606    0.013620    0.000000
siesta:      3    0.006225   -0.028188    0.000000
siesta:      4    0.035815    0.143164    0.000000
siesta:      5    0.007233    0.019410    0.000000
siesta:      6    0.065289   -0.010708    0.000000
siesta:      7    0.127939   -0.063007    0.000000
siesta:      8    0.013558   -0.096357    0.000000
siesta:      9    0.109121    0.156508    0.000000
siesta:     10    0.073551   -0.033084    0.000000
siesta:     11   -0.064534   -0.136362    0.000000
siesta:     12   -0.028232    0.001842    0.000000
siesta:     13    0.010964    0.003330    0.000000
siesta:     14   -0.024038    0.090080    0.000000
siesta:     15    0.009652   -0.033336    0.000000
siesta:     16   -0.024165    0.014617    0.000000
siesta:     17    0.062164   -0.046180    0.000000
siesta:     18   -0.085782   -0.053157    0.000000
siesta:     19   -0.050238   -0.139935    0.000000
siesta:     20   -0.012861    0.280164    0.000000
siesta:     21   -0.029433   -0.192744    0.000000
siesta:     22    0.046322    0.283956    0.000000
siesta:     23    0.075630   -0.140521    0.000000
siesta:     24    0.094599   -0.055024    0.000000
siesta:     25    0.010338   -0.014449    0.000000
siesta:     26   -0.003401   -0.043731    0.000000
siesta:     27   -0.010494   -0.019814    0.000000
siesta:     28    0.033777    0.004135    0.000000
siesta:     29    0.084022   -0.135794    0.000000
siesta:     30   -0.495576    0.305936    0.000000
siesta:     31    0.052316   -0.542683    0.000000
siesta:     32   -0.001204    0.718064    0.000000
siesta:     33   -0.078998   -0.552007    0.000000
siesta:     34    0.518570    0.316005    0.000000
siesta:     35   -0.007406    0.074152    0.000000
siesta:     36   -0.063864   -0.026316    0.000000
siesta:     37   -0.092122    0.157444    0.000000
siesta:     38   -0.044480   -0.684959    0.000000
siesta:     39   -3.180157   -1.672263    0.000000
siesta:     40   -0.029971   -3.695650    0.000000
siesta:     41   -0.127187   -0.055882    0.000000
siesta:     42    0.295803   -0.185748    0.000000
siesta:     43   -0.391527    0.136224    0.000000
siesta:     44    0.828042    0.165542    0.000000
siesta:     45   -0.402765    3.759424    0.000000
siesta:     46   -0.004443    0.774160    0.000000
siesta:     47   -0.041858    0.105175    0.000000
siesta:     48    0.065404    0.042715    0.000000
siesta:     49   -0.172309    0.143307    0.000000
siesta:     50    0.015027    0.035756    0.000000
siesta:     51    0.022137   -0.000682    0.000000
siesta:     52    0.031148    0.022274    0.000000
siesta:     53   -0.062013   -0.025309    0.000000
siesta:     54   -0.008101    0.040175    0.000000
siesta:     55    3.192727   -1.667628    0.000000
siesta:     56    0.045008   -0.686181    0.000000
siesta:     57    0.382859    3.748751    0.000000
siesta:     58   -0.801203    0.173671    0.000000
siesta:     59   -0.024138   -0.022387    0.000000
siesta:     60    0.018007    0.044070    0.000000
siesta:     61    0.406809    0.135163    0.000000
siesta:     62   -0.299978   -0.186983    0.000000
siesta:     63    0.187116    0.141878    0.000000
siesta:     64   -0.071151    0.042496    0.000000
siesta:     65    0.036324   -0.030768    0.000000
siesta:     66    0.000015    0.028028    0.000000
siesta:     67    0.042608    0.102089    0.000000
siesta:     68   -0.042889   -0.009282    0.000000
siesta:     69   -0.030679   -0.023899    0.000000
siesta:     70   -0.004827    0.093607    0.000000
siesta:     71    0.172678   -0.637347    0.000000
siesta:     72   -0.129089   -0.623690    0.000000
siesta: ----------------------------------------
siesta:    Tot    0.191329   -0.299801    0.000000

siesta: Stress tensor (static) (eV/Ang**3):
siesta:    -0.033642   -0.000272    0.000000
siesta:    -0.000272   -0.033642    0.000000
siesta:     0.000000    0.000000   -0.000033

siesta: Cell volume =       1893.226895 Ang**3

siesta: Pressure (static):
siesta:                Solid            Molecule  Units
siesta:           0.00024439          0.00016045  Ry/Bohr**3
siesta:           0.02243917          0.01473205  eV/Ang**3
siesta:          35.95190598         23.60359866  kBar
(Free)E+ p_basis*V_orbitals  =      -11535.906306
(Free)Eharris+ p_basis*V_orbitals  =      -11535.906294

siesta: Electric dipole (a.u.)  =    0.000000    0.000000    0.000000
siesta: Electric dipole (Debye) =    0.000000    0.000000    0.000000

* Maximum dynamic memory allocated : Node    0 =   237 MB
* Maximum dynamic memory allocated : Node    1 =   149 MB
* Maximum dynamic memory allocated : Node    2 =   151 MB
* Maximum dynamic memory allocated : Node    3 =   226 MB
* Maximum dynamic memory allocated : Node    4 =   234 MB
* Maximum dynamic memory allocated : Node    5 =   145 MB
* Maximum dynamic memory allocated : Node    6 =   146 MB
* Maximum dynamic memory allocated : Node    7 =   228 MB
* Maximum dynamic memory allocated : Node    8 =   232 MB
* Maximum dynamic memory allocated : Node    9 =   144 MB
* Maximum dynamic memory allocated : Node   10 =   145 MB
* Maximum dynamic memory allocated : Node   11 =   226 MB

* Maximum memory occured during cdiag                         

timer: CPU execution times:
timer:  Routine       Calls   Time/call    Tot.time        %
timer:  siesta            1    1300.200    1300.200   100.00
timer:  Setup             1       3.327       3.327     0.26
timer:  bands             1       0.008       0.008     0.00
timer:  writewave         1       0.024       0.024     0.00
timer:  KSV_init          1       0.001       0.001     0.00
timer:  IterMD            1    1290.437    1290.437    99.25
timer:  hsparse           1       0.280       0.280     0.02
timer:  overlap           1       4.743       4.743     0.36
timer:  IterSCF           1    1163.381    1163.381    89.48
timer:  kinefsm           2       2.415       4.829     0.37
timer:  nlefsm            2      19.267      38.534     2.96
timer:  DHSCF             2      89.168     178.336    13.72
timer:  DHSCF1            1       1.185       1.185     0.09
timer:  DHSCF2            1      30.216      30.216     2.32
timer:  REORD            18       0.002       0.045     0.00
timer:  POISON            3       0.480       1.440     0.11
timer:  DHSCF3            2      61.844     123.688     9.51
timer:  rhoofd            2      12.578      25.155     1.93
timer:  cellXC            2       2.516       5.031     0.39
timer:  vmat              2      30.966      61.933     4.76
timer:  MolMec            2       0.001       0.001     0.00
timer:  diagon            1    1029.377    1029.377    79.17
timer:  cdiag            40      17.766     683.831    52.59
timer:  cdiag1           40       0.883      33.960     2.61
timer:  cdiag2           40       3.065     117.957     9.07
timer:  cdiag3           40      13.618     524.189    40.32
timer:  cdiag4           40       0.197       7.584     0.58
timer:  DHSCF4            1      23.198      23.198     1.78
timer:  dfscf             1      21.218      21.218     1.63
timer:  overfsm           1       0.280       0.280     0.02
timer:  optical           1       5.895       5.895     0.45
  

elaps: ELAPSED times:
elaps:  Routine       Calls   Time/call    Tot.time        %
elaps:  siesta            1     108.615     108.615   100.00
elaps:  Setup             1       0.278       0.278     0.26
elaps:  bands             1       0.001       0.001     0.00
elaps:  writewave         1       0.002       0.002     0.00
elaps:  KSV_init          1       0.000       0.000     0.00
elaps:  IterMD            1     107.799     107.799    99.25
elaps:  hsparse           1       0.028       0.028     0.03
elaps:  overlap           1       0.375       0.375     0.35
elaps:  IterSCF           1      97.185      97.185    89.48
elaps:  kinefsm           2       0.194       0.387     0.36
elaps:  nlefsm            2       1.830       3.659     3.37
elaps:  DHSCF             2       8.229      16.459    15.15
elaps:  DHSCF1            1       0.101       0.101     0.09
elaps:  DHSCF2            1       2.523       2.523     2.32
elaps:  REORD            18       0.000       0.005     0.01
elaps:  POISON            3       0.040       0.121     0.11
elaps:  DHSCF3            2       5.166      10.331     9.51
elaps:  rhoofd            2       1.854       3.707     3.41
elaps:  cellXC            2       0.210       0.419     0.39
elaps:  vmat              2       2.587       5.173     4.76
elaps:  MolMec            2       0.000       0.000     0.00
elaps:  diagon            1      85.991      85.991    79.17
elaps:  cdiag            40       1.472      58.873    54.20
elaps:  cdiag1           40       0.070       2.786     2.56
elaps:  cdiag2           40       0.246       9.820     9.04
elaps:  cdiag3           40       1.139      45.546    41.93
elaps:  cdiag4           40       0.018       0.711     0.65
elaps:  DHSCF4            1       3.499       3.499     3.22
elaps:  dfscf             1       3.259       3.259     3.00
elaps:  overfsm           1       0.028       0.028     0.03
elaps:  optical           1       0.000       0.000     0.00
  
>> End of run:   6-APR-2016  14:04:33
