Siesta Version:                                        siesta-3.2-pl-3
Architecture  : x86_64-unknown-linux-gnu--unknown
Compiler flags: mpiifort -g -O2 -fPIC -xSSE4.1 -fp-model source -shared-intel 
PARALLEL version

* Running on   12 nodes in parallel
>> Start of run:   2-MAY-2016   3:02:03

                           ***********************       
                           *  WELCOME TO SIESTA  *       
                           ***********************       

reinit: Reading from standard input
************************** Dump of input data file ****************************
#(1) General system descriptors
SystemName            GRP_doping    # Descriptive name of the system
SystemLabel           GRP_doping    # Short name for naming files
%include STRUCT.fdf
%include KPT.fdf
%include BASIS.fdf
#%include TS.fdf # for transiesta calculation
#(4) DFT, Grid, SCF
XC.functional         GGA           # LDA or GGA (default = LDA)
XC.authors            PBE           # CA (Ceperley-Aldr) = PZ
                                    #    (Perdew-Zunger) - LDA - Default
                                    # PW92 (Perdew-Wang-92) - LDA
                                    # PBE (Perdew-Burke-Ernzerhof) - GGA
MeshCutoff            200.000000    Ry      # Default: 50.0 Ry ~ 0.444 Bohr
                                    #         100.0 Ry ~ 0.314 Bohr
MaxSCFIterations      500           # Default: 50
DM.MixingWeight       0.05          # Default: 0.25
DM.NumberPulay        10            # Default: 0
DM.PulayOnFile        F             # SystemLabel.P1, SystemLabel.P2
DM.Tolerance          1.d-4         # Default: 1.d-4
DM.UseSaveDM          .true.        # because of the bug
SCFMustConverge       .true.
NeglNonOverlapInt     F             # Default: F
#(5) Eigenvalue problem: order-N or diagonalization
SolutionMethod        Diagon        # or Transiesta
ElectronicTemperature 300.0 K       # Default: 300.0 K
#(6) Molecular dynamics and relaxations
#MD.TypeOfRun          CG            # Type of dynamics:
#MD.VariableCell       F
#MD.NumCGsteps         0           # 0 for single-point / 100 for gopt
#MD.MaxCGDispl         0.2 Bohr      # Default: 0.2 Bohr
#MD.MaxForceTol        0.02 eV/Ang   # Default: 0.04 eV/Ang
#MD.MaxStressTol       1.0 GPa       # Default: 1.0 GPa
# Geometry Constraints
#%block GeometryConstraints
#	position from 1 to 44
#%endblock GeometryConstraints
BandLinesScale   pi/a
%block BandLines
 1   0.00000000  0.00000000  0.00000000
50   0.00000000  0.07809418  0.00000000
50   0.04509075  0.07809242  0.00000000
20   0.00000000  0.00000000  0.00000000
%endblock BandLines
************************** End of input data file *****************************

reinit: -----------------------------------------------------------------------
reinit: System Name: GRP_doping
reinit: -----------------------------------------------------------------------
reinit: System Label: GRP_doping                                                  
reinit: -----------------------------------------------------------------------

initatom: Reading input for the pseudopotentials and atomic orbitals ----------
 Species number:            1  Label: B Atomic number:           5
 Species number:            2  Label: C Atomic number:           6
Ground state valence configuration:   2s02  2p01
Reading pseudopotential information in formatted form from B.psf

Valence configuration for pseudopotential generation:
2s( 2.00) rc: 1.74
2p( 1.00) rc: 1.74
3d( 0.00) rc: 1.74
4f( 0.00) rc: 1.74
Ground state valence configuration:   2s02  2p02
Reading pseudopotential information in formatted form from C.psf

Valence configuration for pseudopotential generation:
2s( 2.00) rc: 1.54
2p( 2.00) rc: 1.54
3d( 0.00) rc: 1.54
4f( 0.00) rc: 1.54
For B, standard SIESTA heuristics set lmxkb to 3
 (one more than the basis l, including polarization orbitals).
Use PS.lmax or PS.KBprojectors blocks to override.
For C, standard SIESTA heuristics set lmxkb to 3
 (one more than the basis l, including polarization orbitals).
Use PS.lmax or PS.KBprojectors blocks to override.

<basis_specs>
===============================================================================
B                    Z=   5    Mass=  10.810        Charge= 0.17977+309
Lmxo=1 Lmxkb= 3    BasisType=split      Semic=F
L=0  Nsemic=0  Cnfigmx=2
          n=1  nzeta=2  polorb=0
            splnorm:   0.15000    
               vcte:    0.0000    
               rinn:    0.0000    
                rcs:    0.0000      0.0000    
            lambdas:    1.0000      1.0000    
L=1  Nsemic=0  Cnfigmx=2
          n=1  nzeta=2  polorb=1
            splnorm:   0.15000    
               vcte:    0.0000    
               rinn:    0.0000    
                rcs:    0.0000      0.0000    
            lambdas:    1.0000      1.0000    
-------------------------------------------------------------------------------
L=0  Nkbl=1  erefs: 0.17977+309
L=1  Nkbl=1  erefs: 0.17977+309
L=2  Nkbl=1  erefs: 0.17977+309
L=3  Nkbl=1  erefs: 0.17977+309
===============================================================================
</basis_specs>

atom: Called for B                     (Z =   5)

read_vps: Pseudopotential generation method:
read_vps: ATM3      Troullier-Martins                       
Total valence charge:    3.00000

read_vps: Pseudopotential includes a core correction:
read_vps: Pseudo-core for xc-correction

xc_check: Exchange-correlation functional:
xc_check: GGA Perdew, Burke & Ernzerhof 1996
V l=0 = -2*Zval/r beyond r=  1.7165
V l=1 = -2*Zval/r beyond r=  1.7165
V l=2 = -2*Zval/r beyond r=  1.7165
V l=3 = -2*Zval/r beyond r=  1.6951
All V_l potentials equal beyond r=  1.7165
This should be close to max(r_c) in ps generation
All pots = -2*Zval/r beyond r=  1.7165

VLOCAL1: 99.0% of the norm of Vloc inside     14.733 Ry
VLOCAL1: 99.9% of the norm of Vloc inside     33.577 Ry
atom: Maximum radius for 4*pi*r*r*local-pseudopot. charge    2.04484
atom: Maximum radius for r*vlocal+2*Zval:    1.75994
GHOST: No ghost state for L =  0
GHOST: No ghost state for L =  1
GHOST: No ghost state for L =  2
GHOST: No ghost state for L =  3

KBgen: Kleinman-Bylander projectors: 
   l= 0   rc=  1.897051   el= -0.693730   Ekb=  4.595746   kbcos=  0.286105
   l= 1   rc=  1.920920   el= -0.265236   Ekb= -2.350715   kbcos= -0.315747
   l= 2   rc=  2.044840   el=  0.002055   Ekb= -0.690767   kbcos= -0.013822
   l= 3   rc=  2.149707   el=  0.003188   Ekb= -0.315358   kbcos= -0.002055

KBgen: Total number of  Kleinman-Bylander projectors:   16
atom: -------------------------------------------------------------------------

atom: SANKEY-TYPE ORBITALS:
atom: Selected multiple-zeta basis: split     

SPLIT: Orbitals with angular momentum L= 0

SPLIT: Basis orbitals for state 2s

SPLIT: PAO cut-off radius determined from an
SPLIT: energy shift=  0.007350 Ry

   izeta = 1
                 lambda =    1.000000
                     rc =    5.422032
                 energy =   -0.686029
                kinetic =    0.576707
    potential(screened) =   -1.262736
       potential(ionic) =   -3.271094

   izeta = 2
                 rmatch =    4.222573
              splitnorm =    0.150000
                 energy =   -0.602132
                kinetic =    0.858975
    potential(screened) =   -1.461107
       potential(ionic) =   -3.582536

SPLIT: Orbitals with angular momentum L= 1

SPLIT: Basis orbitals for state 2p

SPLIT: PAO cut-off radius determined from an
SPLIT: energy shift=  0.007350 Ry

   izeta = 1
                 lambda =    1.000000
                     rc =    6.790259
                 energy =   -0.258578
                kinetic =    1.481412
    potential(screened) =   -1.739989
       potential(ionic) =   -3.657461

   izeta = 2
                 rmatch =    4.608740
              splitnorm =    0.150000
                 energy =   -0.173757
                kinetic =    2.186690
    potential(screened) =   -2.360447
       potential(ionic) =   -4.464260

POLgen: Perturbative polarization orbital with L=  2

POLgen: Polarization orbital for state 2p

   izeta = 1
                     rc =    6.790259
                 energy =    0.684082
                kinetic =    1.471481
    potential(screened) =   -0.787399
       potential(ionic) =   -2.406985
atom: Total number of Sankey-type orbitals: 13

atm_pop: Valence configuration (for local Pseudopot. screening):
 2s( 2.00)                                                            
 2p( 1.00)                                                            
Vna: chval, zval:    3.00000   3.00000

Vna:  Cut-off radius for the neutral-atom potential:   6.790259
comcore: Pseudo-core radius Rcore=  2.122997

atom: _________________________________________________________________________

<basis_specs>
===============================================================================
C                    Z=   6    Mass=  12.010        Charge= 0.17977+309
Lmxo=1 Lmxkb= 3    BasisType=split      Semic=F
L=0  Nsemic=0  Cnfigmx=2
          n=1  nzeta=2  polorb=0
            splnorm:   0.15000    
               vcte:    0.0000    
               rinn:    0.0000    
                rcs:    0.0000      0.0000    
            lambdas:    1.0000      1.0000    
L=1  Nsemic=0  Cnfigmx=2
          n=1  nzeta=2  polorb=1
            splnorm:   0.15000    
               vcte:    0.0000    
               rinn:    0.0000    
                rcs:    0.0000      0.0000    
            lambdas:    1.0000      1.0000    
-------------------------------------------------------------------------------
L=0  Nkbl=1  erefs: 0.17977+309
L=1  Nkbl=1  erefs: 0.17977+309
L=2  Nkbl=1  erefs: 0.17977+309
L=3  Nkbl=1  erefs: 0.17977+309
===============================================================================
</basis_specs>

atom: Called for C                     (Z =   6)

read_vps: Pseudopotential generation method:
read_vps: ATM3      Troullier-Martins                       
Total valence charge:    4.00000

read_vps: Pseudopotential includes a core correction:
read_vps: Pseudo-core for xc-correction

xc_check: Exchange-correlation functional:
xc_check: GGA Perdew, Burke & Ernzerhof 1996
V l=0 = -2*Zval/r beyond r=  1.5227
V l=1 = -2*Zval/r beyond r=  1.5227
V l=2 = -2*Zval/r beyond r=  1.5227
V l=3 = -2*Zval/r beyond r=  1.5038
All V_l potentials equal beyond r=  1.5227
This should be close to max(r_c) in ps generation
All pots = -2*Zval/r beyond r=  1.5227

VLOCAL1: 99.0% of the norm of Vloc inside     18.722 Ry
VLOCAL1: 99.9% of the norm of Vloc inside     42.668 Ry
atom: Maximum radius for 4*pi*r*r*local-pseudopot. charge    1.83678
atom: Maximum radius for r*vlocal+2*Zval:    1.58088
GHOST: No ghost state for L =  0
GHOST: No ghost state for L =  1
GHOST: No ghost state for L =  2
GHOST: No ghost state for L =  3

KBgen: Kleinman-Bylander projectors: 
   l= 0   rc=  1.704034   el= -1.009801   Ekb=  5.335044   kbcos=  0.316824
   l= 1   rc=  1.704034   el= -0.388707   Ekb= -3.785862   kbcos= -0.366464
   l= 2   rc=  1.791422   el=  0.001971   Ekb= -0.970471   kbcos= -0.009212
   l= 3   rc=  1.859892   el=  0.003065   Ekb= -0.399525   kbcos= -0.001223

KBgen: Total number of  Kleinman-Bylander projectors:   16
atom: -------------------------------------------------------------------------

atom: SANKEY-TYPE ORBITALS:
atom: Selected multiple-zeta basis: split     

SPLIT: Orbitals with angular momentum L= 0

SPLIT: Basis orbitals for state 2s

SPLIT: PAO cut-off radius determined from an
SPLIT: energy shift=  0.007350 Ry

   izeta = 1
                 lambda =    1.000000
                     rc =    4.632753
                 energy =   -1.002270
                kinetic =    0.855760
    potential(screened) =   -1.858031
       potential(ionic) =   -5.417575

   izeta = 2
                 rmatch =    3.431921
              splitnorm =    0.150000
                 energy =   -0.867111
                kinetic =    1.300804
    potential(screened) =   -2.167915
       potential(ionic) =   -5.962684

SPLIT: Orbitals with angular momentum L= 1

SPLIT: Basis orbitals for state 2p

SPLIT: PAO cut-off radius determined from an
SPLIT: energy shift=  0.007350 Ry

   izeta = 1
                 lambda =    1.000000
                     rc =    5.658549
                 energy =   -0.381140
                kinetic =    2.399701
    potential(screened) =   -2.780841
       potential(ionic) =   -6.206085

   izeta = 2
                 rmatch =    3.653288
              splitnorm =    0.150000
                 energy =   -0.249149
                kinetic =    3.542762
    potential(screened) =   -3.791911
       potential(ionic) =   -7.581078

POLgen: Perturbative polarization orbital with L=  2

POLgen: Polarization orbital for state 2p

   izeta = 1
                     rc =    5.658549
                 energy =    1.109913
                kinetic =    2.304789
    potential(screened) =   -1.194876
       potential(ionic) =   -4.013592
atom: Total number of Sankey-type orbitals: 13

atm_pop: Valence configuration (for local Pseudopot. screening):
 2s( 2.00)                                                            
 2p( 2.00)                                                            
Vna: chval, zval:    4.00000   4.00000

Vna:  Cut-off radius for the neutral-atom potential:   5.658549
comcore: Pseudo-core radius Rcore=  1.791422

atom: _________________________________________________________________________

prinput: Basis input ----------------------------------------------------------

PAO.BasisType split     

%block ChemicalSpeciesLabel
    1    5 B                       # Species index, atomic number, species label
    2    6 C                       # Species index, atomic number, species label
%endblock ChemicalSpeciesLabel

%block PAO.Basis                 # Define Basis set
B                     2                    # Species label, number of l-shells
 n=2   0   2                         # n, l, Nzeta 
   5.422      4.223   
   1.000      1.000   
 n=2   1   2 P   1                   # n, l, Nzeta, Polarization, NzetaPol
   6.790      4.609   
   1.000      1.000   
C                     2                    # Species label, number of l-shells
 n=2   0   2                         # n, l, Nzeta 
   4.633      3.432   
   1.000      1.000   
 n=2   1   2 P   1                   # n, l, Nzeta, Polarization, NzetaPol
   5.659      3.653   
   1.000      1.000   
%endblock PAO.Basis

prinput: ----------------------------------------------------------------------

coor:   Atomic-coordinates input format  =     Fractional

siesta: Atomic coordinates (Bohr) and species
siesta:     -2.35420  38.89134   0.00000  1        1
siesta:     -2.35420  41.57980   0.00000  1        2
siesta:      9.28770  18.72698   0.00000  1        3
siesta:      9.28770  21.41544   0.00000  1        4
siesta:      6.95932  22.75985   0.00000  1        5
siesta:      6.95932  25.44831   0.00000  1        6
siesta:      2.30256  25.44831   0.00000  1        7
siesta:      4.63094  26.79272   0.00000  1        8
siesta:      4.63094  29.48119   0.00000  1        9
siesta:     -0.02582  26.79272   0.00000  1       10
siesta:     -0.02582  29.48119   0.00000  1       11
siesta:      2.30256  30.82560   0.00000  1       12
siesta:      2.30256  33.51406   0.00000  1       13
siesta:     -0.02582  34.85847   0.00000  1       14
siesta:     -0.02582  37.54693   0.00000  1       15
siesta:     -0.02582  42.92421   0.00000  1       16
siesta:     -0.02582   2.59549   0.00000  2       17
siesta:     -0.02582   5.28395   0.00000  2       18
siesta:      2.30256  38.89134   0.00000  2       19
siesta:      2.30256  41.57980   0.00000  2       20
siesta:      4.63094  34.85847   0.00000  2       21
siesta:      4.63094  37.54693   0.00000  2       22
siesta:      6.95932  30.82560   0.00000  2       23
siesta:      6.95932  33.51406   0.00000  2       24
siesta:      9.28770  26.79272   0.00000  2       25
siesta:      9.28770  29.48119   0.00000  2       26
siesta:     -4.68258  34.85847   0.00000  2       27
siesta:     -4.68258  37.54693   0.00000  2       28
siesta:      2.30256   6.62836   0.00000  2       29
siesta:      2.30256   9.31683   0.00000  2       30
siesta:      4.63094  10.66124   0.00000  2       31
siesta:      4.63094  13.34970   0.00000  2       32
siesta:      6.95932  14.69411   0.00000  2       33
siesta:      6.95932  17.38257   0.00000  2       34
siesta:     11.61608  22.75985   0.00000  2       35
siesta:     11.61608  25.44831   0.00000  2       36
siesta:     -2.35420   6.62836   0.00000  2       37
siesta:     -2.35420   9.31683   0.00000  2       38
siesta:     -0.02582  10.66124   0.00000  2       39
siesta:     -0.02582  13.34970   0.00000  2       40
siesta:      2.30256  14.69411   0.00000  2       41
siesta:      2.30256  17.38257   0.00000  2       42
siesta:      4.63094  18.72698   0.00000  2       43
siesta:      4.63094  21.41544   0.00000  2       44
siesta:     -4.68258  10.66124   0.00000  2       45
siesta:     -4.68258  13.34970   0.00000  2       46
siesta:     -2.35420  14.69411   0.00000  2       47
siesta:     -2.35420  17.38257   0.00000  2       48
siesta:     -0.02582  18.72698   0.00000  2       49
siesta:     -0.02582  21.41544   0.00000  2       50
siesta:      2.30256  22.75985   0.00000  2       51
siesta:     -7.01096  14.69411   0.00000  2       52
siesta:     -7.01096  17.38257   0.00000  2       53
siesta:     -4.68258  18.72698   0.00000  2       54
siesta:     -4.68258  21.41544   0.00000  2       55
siesta:     -2.35420  22.75985   0.00000  2       56
siesta:     -2.35420  25.44831   0.00000  2       57
siesta:     -9.33934  18.72698   0.00000  2       58
siesta:     -9.33934  21.41544   0.00000  2       59
siesta:     -7.01096  22.75985   0.00000  2       60
siesta:     -7.01096  25.44831   0.00000  2       61
siesta:    -11.66772  22.75985   0.00000  2       62
siesta:    -11.66772  25.44831   0.00000  2       63
siesta:     -9.33934  26.79272   0.00000  2       64
siesta:     -9.33934  29.48119   0.00000  2       65
siesta:     -4.68258  26.79272   0.00000  2       66
siesta:     -4.68258  29.48119   0.00000  2       67
siesta:     -2.35420  30.82560   0.00000  2       68
siesta:     -2.35420  33.51406   0.00000  2       69
siesta:     -7.01096  30.82560   0.00000  2       70
siesta:     -7.01096  33.51406   0.00000  2       71
siesta:     -0.02582  45.61267   0.00000  2       72

siesta: System type = slab      

initatomlists: Number of atoms, orbitals, and projectors:     72   936  1152

siesta: ******************** Simulation parameters ****************************
siesta:
siesta: The following are some of the parameters of the simulation.
siesta: A complete list of the parameters used, including default values,
siesta: can be found in file out.fdf
siesta:
redata: Non-Collinear-spin run           =     F
redata: SpinPolarized (Up/Down) run      =     F
redata: Number of spin components        =     1
redata: Long output                      =     F
redata: Number of Atomic Species         =        2
redata: Charge density info will appear in .RHO file
redata: Write Mulliken Pop.              =     NO
redata: Mesh Cutoff                      =   200.0000  Ry
redata: Net charge of the system         =     0.0000 |e|
redata: Max. number of SCF Iter          =      500
redata: SCF convergence failure will abort job
redata: Performing Pulay mixing using    =    10 iterations
redata: Mix DM in first SCF step ?       =     F
redata: Write Pulay info on disk?        =     F
redata: Discard 1st Pulay DM after  kick =     F
redata: New DM Mixing Weight             =     0.0500
redata: New DM Occupancy tolerance       = 0.000000000001
redata: No kicks to SCF
redata: DM Mixing Weight for Kicks       =     0.5000
redata: DM Tolerance for SCF             =     0.000100
redata: Require Energy convergence for SCF =     F
redata: DM Energy tolerance for SCF      =     0.000100 eV
redata: Require Harris convergence for SCF =     F
redata: DM Harris energy tolerance for SCF =     0.000100 eV
redata: Using Saved Data (generic)   =     F
redata: Use continuation files for DM    =     T
redata: Neglect nonoverlap interactions  =     F
redata: Method of Calculation            =     Diagonalization
redata: Divide and Conquer               =     T
redata: Electronic Temperature           =     0.0019  Ry
redata: Fix the spin of the system       =     F
redata: Dynamics option                  =     Verlet MD run
redata: Initial MD time step             =        1
redata:   Final MD time step             =        1
redata: Length of MD time step           =     1.0000  fs
redata: Initial Temperature of MD run    =     0.0000  K
redata: Perform a MD quench              =     F
redata: ***********************************************************************
Total number of electrons:   272.000000
Total ionic charge:   272.000000

* ProcessorY, Blocksize:    3  24

k-point displ. along   1 input, could be:     0.50    0.00
k-point displ. along   2 input, could be:     0.50    0.00
 Kpoints in:          231 . Kpoints trimmed:          231

siesta: k-grid: Number of k-points =   231
siesta: k-grid: Cutoff (effective) =     5.000 Ang
siesta: k-grid: Supercell and displacements
siesta: k-grid:   21   0   0      0.500
siesta: k-grid:    0  21   0      0.500
siesta: k-grid:    0   0   1      0.000
Naive supercell factors:     2    2    2

superc: Internal auxiliary supercell:     2 x     2 x     2  =       8
superc: Number of atoms, orbitals, and projectors:    576   7488   9216

* Maximum dynamic memory allocated =     4 MB

siesta:                 ==============================
                            Begin MD step =      1
                        ==============================

superc: Internal auxiliary supercell:     2 x     2 x     2  =       8
superc: Number of atoms, orbitals, and projectors:    576   7488   9216

outcell: Unit cell vectors (Ang):
       12.804619    7.392750    0.000000
        0.000000   14.785500    0.000000
        0.000000    0.000000   10.000000

outcell: Cell vector modules (Ang)   :   14.785500   14.785500   10.000000
outcell: Cell angles (23,13,12) (deg):     90.0000     90.0000     60.0000
outcell: Cell volume (Ang**3)        :   1893.2269
New_DM. Step:     1
Initializing Density Matrix...

InitMesh: MESH =   120 x   120 x    90 =     1296000
InitMesh: Mesh cutoff (required, used) =   200.000   223.865 Ry

* Maximum dynamic memory allocated =   156 MB

stepf: Fermi-Dirac step function

siesta: Program's energy decomposition (eV):
siesta: Ebs     =     -5586.788441
siesta: Eions   =     16354.103692
siesta: Ena     =      4337.399642
siesta: Ekin    =      5534.369168
siesta: Enl     =       778.097924
siesta: DEna    =        -0.000010
siesta: DUscf   =         0.000000
siesta: DUext   =         0.000000
siesta: Exc     =     -4186.213652
siesta: eta*DQ  =         0.000000
siesta: Emadel  =         0.000000
siesta: Emeta   =         0.000000
siesta: Emolmec =         0.000000
siesta: Ekinion =         0.000000
siesta: Eharris =     -9675.458552
siesta: Etot    =     -9890.450619
siesta: FreeEng =     -9890.450619

siesta: iscf   Eharris(eV)      E_KS(eV)   FreeEng(eV)   dDmax  Ef(eV)
siesta:    1    -9675.4586    -9890.4506    -9890.4506  7.2813 -8.3214
timer: Routine,Calls,Time,% = IterSCF        1    3047.941  99.59
elaps: Routine,Calls,Wall,% = IterSCF        1     254.596  99.59
siesta:    2   -14807.1992    -8846.1539    -8846.2357 18.6958 -4.3124
siesta:    3    -9675.1839    -9720.2565    -9720.2986  1.8276 -5.7625
siesta:    4    -9621.6070    -9640.5603    -9640.5607  1.4020 -4.9757
siesta:    5    -9556.3880    -9561.3746    -9561.4206  1.2925 -4.9268
siesta:    6    -9533.9581    -9529.0536    -9529.0791  1.0859 -4.9657
siesta:    7    -9523.6994    -9513.2105    -9513.2823  0.8008 -5.1009
siesta:    8    -9520.5151    -9505.7449    -9505.8168  0.7761 -5.1567
siesta:    9    -9520.1754    -9503.2889    -9503.3515  0.9105 -5.0301
siesta:   10    -9516.9631    -9495.3745    -9495.4342  0.6365 -5.1447
siesta:   11    -9519.0298    -9491.3029    -9491.3658  0.4796 -5.0410
siesta:   12    -9517.4961    -9490.6627    -9490.7070  0.4300 -4.9853
siesta:   13    -9517.4247    -9489.9220    -9489.9741  0.4093 -4.9710
siesta:   14    -9516.6687    -9493.5001    -9493.5536  0.3679 -4.9945
siesta:   15    -9516.3595    -9494.4521    -9494.4818  0.3587 -5.0079
siesta:   16    -9515.4814    -9499.1152    -9499.1648  0.3175 -5.0629
siesta:   17    -9515.0754    -9501.8533    -9501.9393  0.2848 -5.0859
siesta:   18    -9514.7135    -9506.0407    -9506.1260  0.2390 -5.1142
siesta:   19    -9514.7108    -9506.9918    -9507.0760  0.2169 -5.1168
siesta:   20    -9514.6265    -9513.8934    -9513.9787  0.3080 -5.1131
siesta:   21    -9514.5757    -9510.6357    -9510.7099  0.2164 -5.1397
siesta:   22    -9514.6019    -9512.9608    -9513.0389  0.2346 -5.1496
siesta:   23    -9514.5628    -9516.6797    -9516.7597  0.2215 -5.1506
siesta:   24    -9514.5685    -9517.8150    -9517.8895  0.2204 -5.1498
siesta:   25    -9514.5771    -9517.0873    -9517.1623  0.2220 -5.1475
siesta:   26    -9514.5432    -9517.9648    -9518.0389  0.0800 -5.1285
siesta:   27    -9514.5258    -9517.5082    -9517.5865  0.0664 -5.1177
siesta:   28    -9514.4965    -9517.8086    -9517.8918  0.0799 -5.1012
siesta:   29    -9514.4911    -9516.8892    -9516.9804  0.0972 -5.1000
siesta:   30    -9514.4842    -9516.7031    -9516.7903  0.0295 -5.1076
siesta:   31    -9514.4834    -9516.3302    -9516.4168  0.0309 -5.1063
siesta:   32    -9514.4849    -9515.4627    -9515.5499  0.0246 -5.1096
siesta:   33    -9514.4840    -9514.8809    -9514.9671  0.0182 -5.1083
siesta:   34    -9514.4827    -9514.3178    -9514.4040  0.0159 -5.1094
siesta:   35    -9514.4826    -9514.1255    -9514.2120  0.0189 -5.1127
siesta:   36    -9514.4810    -9514.4024    -9514.4886  0.0041 -5.1146
siesta:   37    -9514.4811    -9514.3444    -9514.4315  0.0066 -5.1153
siesta:   38    -9514.4810    -9514.5041    -9514.5912  0.0031 -5.1149
siesta:   39    -9514.4809    -9514.5726    -9514.6598  0.0034 -5.1151
siesta:   40    -9514.4809    -9514.5364    -9514.6237  0.0030 -5.1161
siesta:   41    -9514.4808    -9514.5389    -9514.6261  0.0011 -5.1157
siesta:   42    -9514.4808    -9514.5615    -9514.6488  0.0024 -5.1151
siesta:   43    -9514.4808    -9514.4874    -9514.5748  0.0007 -5.1152
siesta:   44    -9514.4809    -9514.4699    -9514.5572  0.0002 -5.1152
siesta:   45    -9514.4809    -9514.4728    -9514.5601  0.0002 -5.1153
siesta:   46    -9514.4809    -9514.4770    -9514.5642  0.0002 -5.1153
siesta:   47    -9514.4809    -9514.4800    -9514.5672  0.0002 -5.1153
siesta:   48    -9514.4809    -9514.4834    -9514.5706  0.0001 -5.1153

siesta: E_KS(eV) =            -9514.4821

siesta: E_KS - E_eggbox =     -9514.4821

siesta: Atomic forces (eV/Ang):
----------------------------------------
   Tot   -0.100925   -0.160643    0.000000
----------------------------------------
   Max  572.395271
   Res  144.039536    sqrt( Sum f_i^2 / 3N )
----------------------------------------
   Max  572.395271    constrained

Stress-tensor-Voigt (kbar):     -728.56    -2595.36       -0.51        9.66        0.00        0.00
(Free)E + p*V (eV/cell)    -8205.1372
Target enthalpy (eV/cell)    -9514.5694

siesta: Stress tensor (static) (eV/Ang**3):
        -0.454727    0.006031    0.000000
         0.006031   -1.619876    0.000000
         0.000000    0.000000   -0.000318

siesta: Pressure (static):       1108.14207617  kBar

siesta: Stress tensor (total) (eV/Ang**3):
        -0.454727    0.006031    0.000000
         0.006031   -1.619876    0.000000
         0.000000    0.000000   -0.000318

siesta: Pressure (total):       1108.14207617  kBar

siesta: Temp_ion =       0.000 K

* Maximum dynamic memory allocated =   170 MB
Computing bands...

siesta: Program's energy decomposition (eV):
siesta: Ebs     =     -4214.899258
siesta: Eions   =     16354.103692
siesta: Ena     =      4337.399642
siesta: Ekin    =      8363.233530
siesta: Enl     =      -848.522982
siesta: DEna    =      -763.355776
siesta: DUscf   =       103.156241
siesta: DUext   =         0.000000
siesta: Exc     =     -4352.289089
siesta: eta*DQ  =         0.000000
siesta: Emadel  =         0.000000
siesta: Emeta   =         0.000000
siesta: Emolmec =         0.000000
siesta: Ekinion =         0.000000
siesta: Eharris =     -9514.480867
siesta: Etot    =     -9514.482125
siesta: FreeEng =     -9514.569377

siesta: Final energy (eV):
siesta:  Band Struct. =   -4214.899258
siesta:       Kinetic =    8363.233530
siesta:       Hartree =   26954.287877
siesta:    Ext. field =       0.000000
siesta:   Exch.-corr. =   -4352.289089
siesta:  Ion-electron =  -61958.499877
siesta:       Ion-ion =   21478.785433
siesta:       Ekinion =       0.000000
siesta:         Total =   -9514.482125

siesta: Atomic forces (eV/Ang):
siesta:      1    1.419477  105.002766    0.000000
siesta:      2    1.599234 -393.943586    0.000000
siesta:      3   -0.148039   -5.553987    0.000000
siesta:      4    9.298842    2.014242    0.000000
siesta:      5   -6.028266   -3.868870    0.000000
siesta:      6    3.638945    3.247504    0.000000
siesta:      7    0.456949   -3.776538    0.000000
siesta:      8   -2.371414   -1.351548    0.000000
siesta:      9    3.723272    2.677444    0.000000
siesta:     10   -4.080967   -1.111981    0.000000
siesta:     11   -0.703794 -410.605441    0.000000
siesta:     12   14.162801    0.548251    0.000000
siesta:     13   18.125731 -396.723247    0.000000
siesta:     14    2.270380  107.983004    0.000000
siesta:     15   -1.129064 -391.431201    0.000000
siesta:     16   -5.590182  107.237691    0.000000
siesta:     17   -1.898819  408.773918    0.000000
siesta:     18    9.201893 -124.635309    0.000000
siesta:     19   -7.544338  115.386621    0.000000
siesta:     20    3.548429 -544.339585    0.000000
siesta:     21   24.106774   -0.182548    0.000000
siesta:     22   30.904109 -549.131069    0.000000
siesta:     23    6.804326    2.724319    0.000000
siesta:     24   -2.374004    1.824919    0.000000
siesta:     25    6.590895    3.852408    0.000000
siesta:     26   -1.832580   -0.083187    0.000000
siesta:     27  -26.228995    4.916065    0.000000
siesta:     28  -26.435899 -542.422665    0.000000
siesta:     29   17.044020  401.368148    0.000000
siesta:     30   -2.175429 -122.785164    0.000000
siesta:     31   35.978027  550.295819    0.000000
siesta:     32   26.156774   -3.172413    0.000000
siesta:     33   -2.341626   -1.418876    0.000000
siesta:     34   -0.729572   -3.770714    0.000000
siesta:     35    1.928469    6.919640    0.000000
siesta:     36   -0.043896   -5.191299    0.000000
siesta:     37  -25.357489  557.300929    0.000000
siesta:     38    3.940470 -128.246684    0.000000
siesta:     39    0.008155  408.463344    0.000000
siesta:     40   -5.709057 -124.045776    0.000000
siesta:     41   36.732838  559.239800    0.000000
siesta:     42   18.723505   -7.110290    0.000000
siesta:     43   -0.874671    1.668127    0.000000
siesta:     44   -1.538982   -1.985276    0.000000
siesta:     45  -35.917676  549.414056    0.000000
siesta:     46  -24.502153   -0.953264    0.000000
siesta:     47  -31.933057  409.124377    0.000000
siesta:     48  -20.001968   -3.122498    0.000000
siesta:     49   -0.825072  572.395271    0.000000
siesta:     50    1.439445    0.646158    0.000000
siesta:     51   -1.764233   -4.175942    0.000000
siesta:     52    2.028409   -2.820865    0.000000
siesta:     53   -1.833184    0.062293    0.000000
siesta:     54    1.402126    1.505193    0.000000
siesta:     55    0.037667   -0.022344    0.000000
siesta:     56   -1.028741    0.309591    0.000000
siesta:     57   -2.041319   -1.820248    0.000000
siesta:     58    0.838792   -0.756683    0.000000
siesta:     59   -2.066044   -1.612377    0.000000
siesta:     60    0.131073    0.786833    0.000000
siesta:     61    0.115139   -0.669458    0.000000
siesta:     62    0.270065    6.806775    0.000000
siesta:     63    0.384300   -7.011430    0.000000
siesta:     64   -2.199767    1.906522    0.000000
siesta:     65    0.649906    0.914306    0.000000
siesta:     66   -0.561508   -0.321373    0.000000
siesta:     67    1.083557   -1.651272    0.000000
siesta:     68  -21.637110    2.343677    0.000000
siesta:     69  -13.978298 -555.400161    0.000000
siesta:     70   -2.039145   -0.185872    0.000000
siesta:     71    2.526734    2.231947    0.000000
siesta:     72    0.093903 -552.641561    0.000000
siesta: ----------------------------------------
siesta:    Tot   -0.100925   -0.160643    0.000000

siesta: Stress tensor (static) (eV/Ang**3):
siesta:    -0.454727    0.006031    0.000000
siesta:     0.006031   -1.619876    0.000000
siesta:     0.000000    0.000000   -0.000318

siesta: Cell volume =       1893.226884 Ang**3

siesta: Pressure (static):
siesta:                Solid            Molecule  Units
siesta:           0.00753285          0.11059037  Ry/Bohr**3
siesta:           0.69164041         10.15403148  eV/Ang**3
siesta:        1108.14207617      16268.72782666  kBar
(Free)E+ p_basis*V_orbitals  =       -9478.776504
(Free)Eharris+ p_basis*V_orbitals  =       -9478.773985

siesta: Electric dipole (a.u.)  =    0.000000    0.000000    0.000000
siesta: Electric dipole (Debye) =    0.000000    0.000000    0.000000

* Maximum dynamic memory allocated : Node    0 =   170 MB
* Maximum dynamic memory allocated : Node    1 =    66 MB
* Maximum dynamic memory allocated : Node    2 =    69 MB
* Maximum dynamic memory allocated : Node    3 =   156 MB
* Maximum dynamic memory allocated : Node    4 =   167 MB
* Maximum dynamic memory allocated : Node    5 =    63 MB
* Maximum dynamic memory allocated : Node    6 =    64 MB
* Maximum dynamic memory allocated : Node    7 =   157 MB
* Maximum dynamic memory allocated : Node    8 =   153 MB
* Maximum dynamic memory allocated : Node    9 =    61 MB
* Maximum dynamic memory allocated : Node   10 =    62 MB
* Maximum dynamic memory allocated : Node   11 =   144 MB

* Maximum memory occured during matrixMtoO                    

timer: CPU execution times:
timer:  Routine       Calls   Time/call    Tot.time        %
timer:  siesta            1  142889.197  142889.197   100.00
timer:  Setup             1       3.385       3.385     0.00
timer:  bands             3     226.153     678.459     0.47
timer:  writewave         1       0.024       0.024     0.00
timer:  KSV_init          1       0.003       0.003     0.00
timer:  IterMD            1  142200.341  142200.341    99.52
timer:  hsparse           1       0.284       0.284     0.00
timer:  overlap           1       7.419       7.419     0.01
timer:  IterSCF          48    2959.290  142045.939    99.41
timer:  kinefsm           2       3.777       7.554     0.01
timer:  nlefsm            2      20.515      41.030     0.03
timer:  DHSCF            49      83.310    4082.188     2.86
timer:  DHSCF1            1       1.187       1.187     0.00
timer:  DHSCF2            1      32.804      32.804     0.02
timer:  REORD           394       0.002       0.799     0.00
timer:  POISON           50       0.448      22.388     0.02
timer:  DHSCF3           49      82.038    4019.869     2.81
timer:  rhoofd           49      17.630     863.871     0.60
timer:  cellXC           49       2.412     118.177     0.08
timer:  vmat             49      37.060    1815.944     1.27
timer:  MolMec            2       0.000       0.000     0.00
timer:  diagon           48    2874.856  137993.081    96.57
timer:  c-eigval      11209       5.582   62564.558    43.79
timer:  c-buildHS     11209       0.036     402.528     0.28
timer:  cdiag         22297       5.677  126575.676    88.58
timer:  cdiag1        22297       0.262    5834.753     4.08
timer:  cdiag2        22297       1.837   40959.080    28.66
timer:  cdiag3        22297       3.369   75127.672    52.58
timer:  cdiag4        22297       0.087    1942.334     1.36
timer:  c-eigvec      11088       5.840   64758.605    45.32
timer:  c-buildD      11088       1.018   11287.082     7.90
timer:  DHSCF4            1      28.033      28.033     0.02
timer:  dfscf             1      25.926      25.926     0.02
timer:  overfsm           1       0.330       0.330     0.00
timer:  optical           1       6.397       6.397     0.00
  

elaps: ELAPSED times:
elaps:  Routine       Calls   Time/call    Tot.time        %
elaps:  siesta            1   11935.423   11935.423   100.00
elaps:  Setup             1       0.282       0.282     0.00
elaps:  bands             3      18.906      56.719     0.48
elaps:  writewave         1       0.002       0.002     0.00
elaps:  KSV_init          1       0.000       0.000     0.00
elaps:  IterMD            1   11877.884   11877.884    99.52
elaps:  hsparse           1       0.029       0.029     0.00
elaps:  overlap           1       0.715       0.715     0.01
elaps:  IterSCF          48     247.187   11864.986    99.41
elaps:  kinefsm           2       0.367       0.734     0.01
elaps:  nlefsm            2       1.796       3.591     0.03
elaps:  DHSCF            49       7.006     343.273     2.88
elaps:  DHSCF1            1       0.101       0.101     0.00
elaps:  DHSCF2            1       2.738       2.738     0.02
elaps:  REORD           394       0.000       0.116     0.00
elaps:  POISON           50       0.038       1.876     0.02
elaps:  DHSCF3           49       6.854     335.849     2.81
elaps:  rhoofd           49       3.066     150.228     1.26
elaps:  cellXC           49       0.201       9.847     0.08
elaps:  vmat             49       3.097     151.749     1.27
elaps:  MolMec            2       0.000       0.000     0.00
elaps:  diagon           48     240.141   11526.754    96.58
elaps:  c-eigval      11209       0.466    5225.887    43.78
elaps:  c-buildHS     11209       0.004      43.731     0.37
elaps:  cdiag         22297       0.469   10462.973    87.66
elaps:  cdiag1        22297       0.021     477.898     4.00
elaps:  cdiag2        22297       0.154    3424.399    28.69
elaps:  cdiag3        22297       0.282    6284.159    52.65
elaps:  cdiag4        22297       0.007     156.330     1.31
elaps:  c-eigvec      11088       0.480    5317.432    44.55
elaps:  c-buildD      11088       0.093    1034.453     8.67
elaps:  DHSCF4            1       4.539       4.539     0.04
elaps:  dfscf             1       4.281       4.281     0.04
elaps:  overfsm           1       0.034       0.034     0.00
elaps:  optical           1       0.000       0.000     0.00
  
>> End of run:   2-MAY-2016   6:20:59
