Siesta Version:                                        siesta-3.2-pl-3
Architecture  : x86_64-unknown-linux-gnu--unknown
Compiler flags: mpiifort -g -O2 -fPIC -xSSE4.1 -fp-model source -shared-intel 
PARALLEL version

* Running on    8 nodes in parallel
>> Start of run:   8-MAY-2016   2:08:31

                           ***********************       
                           *  WELCOME TO SIESTA  *       
                           ***********************       

reinit: Reading from standard input
************************** Dump of input data file ****************************
#(1) General system descriptors
SystemName            GRP_doping    # Descriptive name of the system
SystemLabel           GRP_doping    # Short name for naming files
%include STRUCT.fdf
%include KPT.fdf
%include BASIS.fdf
#%include TS.fdf # for transiesta calculation
#(4) DFT, Grid, SCF
XC.functional         GGA           # LDA or GGA (default = LDA)
XC.authors            PBE           # CA (Ceperley-Aldr) = PZ
                                    #    (Perdew-Zunger) - LDA - Default
                                    # PW92 (Perdew-Wang-92) - LDA
                                    # PBE (Perdew-Burke-Ernzerhof) - GGA
MeshCutoff            200.000000    Ry      # Default: 50.0 Ry ~ 0.444 Bohr
                                    #         100.0 Ry ~ 0.314 Bohr
MaxSCFIterations      500           # Default: 50
DM.MixingWeight       0.05          # Default: 0.25
DM.NumberPulay        10            # Default: 0
DM.PulayOnFile        F             # SystemLabel.P1, SystemLabel.P2
DM.Tolerance          1.d-4         # Default: 1.d-4
DM.UseSaveDM          .true.        # because of the bug
SCFMustConverge       .true.
NeglNonOverlapInt     F             # Default: F
#(5) Eigenvalue problem: order-N or diagonalization
SolutionMethod        Diagon        # or Transiesta
ElectronicTemperature 300.0 K       # Default: 300.0 K
#(6) Molecular dynamics and relaxations
#MD.TypeOfRun          CG            # Type of dynamics:
#MD.VariableCell       F
#MD.NumCGsteps         0           # 0 for single-point / 100 for gopt
#MD.MaxCGDispl         0.2 Bohr      # Default: 0.2 Bohr
#MD.MaxForceTol        0.02 eV/Ang   # Default: 0.04 eV/Ang
#MD.MaxStressTol       1.0 GPa       # Default: 1.0 GPa
# Geometry Constraints
#%block GeometryConstraints
#	position from 1 to 44
#%endblock GeometryConstraints
BandLinesScale   pi/a
%block BandLines
 1   0.00000000  0.00000000  0.00000000
50   0.00000000  0.07809418  0.00000000
50   0.04509075  0.07809242  0.00000000
20   0.00000000  0.00000000  0.00000000
%endblock BandLines
************************** End of input data file *****************************

reinit: -----------------------------------------------------------------------
reinit: System Name: GRP_doping
reinit: -----------------------------------------------------------------------
reinit: System Label: GRP_doping                                                  
reinit: -----------------------------------------------------------------------

initatom: Reading input for the pseudopotentials and atomic orbitals ----------
 Species number:            1  Label: N Atomic number:           7
 Species number:            2  Label: C Atomic number:           6
Ground state valence configuration:   2s02  2p03
Reading pseudopotential information in formatted form from N.psf

Valence configuration for pseudopotential generation:
2s( 2.00) rc: 1.48
2p( 3.00) rc: 1.48
3d( 0.00) rc: 1.48
4f( 0.00) rc: 1.48
Ground state valence configuration:   2s02  2p02
Reading pseudopotential information in formatted form from C.psf

Valence configuration for pseudopotential generation:
2s( 2.00) rc: 1.54
2p( 2.00) rc: 1.54
3d( 0.00) rc: 1.54
4f( 0.00) rc: 1.54
For N, standard SIESTA heuristics set lmxkb to 3
 (one more than the basis l, including polarization orbitals).
Use PS.lmax or PS.KBprojectors blocks to override.
For C, standard SIESTA heuristics set lmxkb to 3
 (one more than the basis l, including polarization orbitals).
Use PS.lmax or PS.KBprojectors blocks to override.

<basis_specs>
===============================================================================
N                    Z=   7    Mass=  14.010        Charge= 0.17977+309
Lmxo=1 Lmxkb= 3    BasisType=split      Semic=F
L=0  Nsemic=0  Cnfigmx=2
          n=1  nzeta=2  polorb=0
            splnorm:   0.15000    
               vcte:    0.0000    
               rinn:    0.0000    
                rcs:    0.0000      0.0000    
            lambdas:    1.0000      1.0000    
L=1  Nsemic=0  Cnfigmx=2
          n=1  nzeta=2  polorb=1
            splnorm:   0.15000    
               vcte:    0.0000    
               rinn:    0.0000    
                rcs:    0.0000      0.0000    
            lambdas:    1.0000      1.0000    
-------------------------------------------------------------------------------
L=0  Nkbl=1  erefs: 0.17977+309
L=1  Nkbl=1  erefs: 0.17977+309
L=2  Nkbl=1  erefs: 0.17977+309
L=3  Nkbl=1  erefs: 0.17977+309
===============================================================================
</basis_specs>

atom: Called for N                     (Z =   7)

read_vps: Pseudopotential generation method:
read_vps: ATM3      Troullier-Martins                       
Total valence charge:    5.00000

read_vps: Pseudopotential includes a core correction:
read_vps: Pseudo-core for xc-correction

xc_check: Exchange-correlation functional:
xc_check: GGA Perdew, Burke & Ernzerhof 1996
V l=0 = -2*Zval/r beyond r=  1.4606
V l=1 = -2*Zval/r beyond r=  1.4606
V l=2 = -2*Zval/r beyond r=  1.4606
V l=3 = -2*Zval/r beyond r=  1.4606
All V_l potentials equal beyond r=  1.4606
This should be close to max(r_c) in ps generation
All pots = -2*Zval/r beyond r=  1.4606

VLOCAL1: 99.0% of the norm of Vloc inside     20.347 Ry
VLOCAL1: 99.9% of the norm of Vloc inside     46.372 Ry
atom: Maximum radius for 4*pi*r*r*local-pseudopot. charge    1.76189
atom: Maximum radius for r*vlocal+2*Zval:    1.53550
GHOST: No ghost state for L =  0
GHOST: No ghost state for L =  1
GHOST: No ghost state for L =  2
GHOST: No ghost state for L =  3

KBgen: Kleinman-Bylander projectors: 
   l= 0   rc=  1.634559   el= -1.363963   Ekb=  5.296955   kbcos=  0.335621
   l= 1   rc=  1.614250   el= -0.521451   Ekb= -5.259161   kbcos= -0.433408
   l= 2   rc=  1.718383   el=  0.001991   Ekb= -1.271464   kbcos= -0.007566
   l= 3   rc=  1.761893   el=  0.003093   Ekb= -0.494769   kbcos= -0.001015

KBgen: Total number of  Kleinman-Bylander projectors:   16
atom: -------------------------------------------------------------------------

atom: SANKEY-TYPE ORBITALS:
atom: Selected multiple-zeta basis: split     

SPLIT: Orbitals with angular momentum L= 0

SPLIT: Basis orbitals for state 2s

SPLIT: PAO cut-off radius determined from an
SPLIT: energy shift=  0.007350 Ry

   izeta = 1
                 lambda =    1.000000
                     rc =    4.071465
                 energy =   -1.356470
                kinetic =    1.176977
    potential(screened) =   -2.533447
       potential(ionic) =   -8.057990

   izeta = 2
                 rmatch =    2.905100
              splitnorm =    0.150000
                 energy =   -1.158343
                kinetic =    1.813009
    potential(screened) =   -2.971352
       potential(ionic) =   -8.901931

SPLIT: Orbitals with angular momentum L= 1

SPLIT: Basis orbitals for state 2p

SPLIT: PAO cut-off radius determined from an
SPLIT: energy shift=  0.007350 Ry

   izeta = 1
                 lambda =    1.000000
                     rc =    4.972977
                 energy =   -0.513884
                kinetic =    3.441732
    potential(screened) =   -3.955616
       potential(ionic) =   -9.287901

   izeta = 2
                 rmatch =    3.054066
              splitnorm =    0.150000
                 energy =   -0.318226
                kinetic =    5.125348
    potential(screened) =   -5.443573
       potential(ionic) =  -11.380999

POLgen: Perturbative polarization orbital with L=  2

POLgen: Polarization orbital for state 2p

   izeta = 1
                     rc =    4.972977
                 energy =    1.607437
                kinetic =    3.268125
    potential(screened) =   -1.660688
       potential(ionic) =   -5.973652
atom: Total number of Sankey-type orbitals: 13

atm_pop: Valence configuration (for local Pseudopot. screening):
 2s( 2.00)                                                            
 2p( 3.00)                                                            
Vna: chval, zval:    5.00000   5.00000

Vna:  Cut-off radius for the neutral-atom potential:   4.972977
comcore: Pseudo-core radius Rcore=  1.554824

atom: _________________________________________________________________________

<basis_specs>
===============================================================================
C                    Z=   6    Mass=  12.010        Charge= 0.17977+309
Lmxo=1 Lmxkb= 3    BasisType=split      Semic=F
L=0  Nsemic=0  Cnfigmx=2
          n=1  nzeta=2  polorb=0
            splnorm:   0.15000    
               vcte:    0.0000    
               rinn:    0.0000    
                rcs:    0.0000      0.0000    
            lambdas:    1.0000      1.0000    
L=1  Nsemic=0  Cnfigmx=2
          n=1  nzeta=2  polorb=1
            splnorm:   0.15000    
               vcte:    0.0000    
               rinn:    0.0000    
                rcs:    0.0000      0.0000    
            lambdas:    1.0000      1.0000    
-------------------------------------------------------------------------------
L=0  Nkbl=1  erefs: 0.17977+309
L=1  Nkbl=1  erefs: 0.17977+309
L=2  Nkbl=1  erefs: 0.17977+309
L=3  Nkbl=1  erefs: 0.17977+309
===============================================================================
</basis_specs>

atom: Called for C                     (Z =   6)

read_vps: Pseudopotential generation method:
read_vps: ATM3      Troullier-Martins                       
Total valence charge:    4.00000

read_vps: Pseudopotential includes a core correction:
read_vps: Pseudo-core for xc-correction

xc_check: Exchange-correlation functional:
xc_check: GGA Perdew, Burke & Ernzerhof 1996
V l=0 = -2*Zval/r beyond r=  1.5227
V l=1 = -2*Zval/r beyond r=  1.5227
V l=2 = -2*Zval/r beyond r=  1.5227
V l=3 = -2*Zval/r beyond r=  1.5038
All V_l potentials equal beyond r=  1.5227
This should be close to max(r_c) in ps generation
All pots = -2*Zval/r beyond r=  1.5227

VLOCAL1: 99.0% of the norm of Vloc inside     18.722 Ry
VLOCAL1: 99.9% of the norm of Vloc inside     42.668 Ry
atom: Maximum radius for 4*pi*r*r*local-pseudopot. charge    1.83678
atom: Maximum radius for r*vlocal+2*Zval:    1.58088
GHOST: No ghost state for L =  0
GHOST: No ghost state for L =  1
GHOST: No ghost state for L =  2
GHOST: No ghost state for L =  3

KBgen: Kleinman-Bylander projectors: 
   l= 0   rc=  1.704034   el= -1.009801   Ekb=  5.335044   kbcos=  0.316824
   l= 1   rc=  1.704034   el= -0.388707   Ekb= -3.785862   kbcos= -0.366464
   l= 2   rc=  1.791422   el=  0.001971   Ekb= -0.970471   kbcos= -0.009212
   l= 3   rc=  1.859892   el=  0.003065   Ekb= -0.399525   kbcos= -0.001223

KBgen: Total number of  Kleinman-Bylander projectors:   16
atom: -------------------------------------------------------------------------

atom: SANKEY-TYPE ORBITALS:
atom: Selected multiple-zeta basis: split     

SPLIT: Orbitals with angular momentum L= 0

SPLIT: Basis orbitals for state 2s

SPLIT: PAO cut-off radius determined from an
SPLIT: energy shift=  0.007350 Ry

   izeta = 1
                 lambda =    1.000000
                     rc =    4.632753
                 energy =   -1.002270
                kinetic =    0.855760
    potential(screened) =   -1.858031
       potential(ionic) =   -5.417575

   izeta = 2
                 rmatch =    3.431921
              splitnorm =    0.150000
                 energy =   -0.867111
                kinetic =    1.300804
    potential(screened) =   -2.167915
       potential(ionic) =   -5.962684

SPLIT: Orbitals with angular momentum L= 1

SPLIT: Basis orbitals for state 2p

SPLIT: PAO cut-off radius determined from an
SPLIT: energy shift=  0.007350 Ry

   izeta = 1
                 lambda =    1.000000
                     rc =    5.658549
                 energy =   -0.381140
                kinetic =    2.399701
    potential(screened) =   -2.780841
       potential(ionic) =   -6.206085

   izeta = 2
                 rmatch =    3.653288
              splitnorm =    0.150000
                 energy =   -0.249149
                kinetic =    3.542762
    potential(screened) =   -3.791911
       potential(ionic) =   -7.581078

POLgen: Perturbative polarization orbital with L=  2

POLgen: Polarization orbital for state 2p

   izeta = 1
                     rc =    5.658549
                 energy =    1.109913
                kinetic =    2.304789
    potential(screened) =   -1.194876
       potential(ionic) =   -4.013592
atom: Total number of Sankey-type orbitals: 13

atm_pop: Valence configuration (for local Pseudopot. screening):
 2s( 2.00)                                                            
 2p( 2.00)                                                            
Vna: chval, zval:    4.00000   4.00000

Vna:  Cut-off radius for the neutral-atom potential:   5.658549
comcore: Pseudo-core radius Rcore=  1.791422

atom: _________________________________________________________________________

prinput: Basis input ----------------------------------------------------------

PAO.BasisType split     

%block ChemicalSpeciesLabel
    1    7 N                       # Species index, atomic number, species label
    2    6 C                       # Species index, atomic number, species label
%endblock ChemicalSpeciesLabel

%block PAO.Basis                 # Define Basis set
N                     2                    # Species label, number of l-shells
 n=2   0   2                         # n, l, Nzeta 
   4.071      2.905   
   1.000      1.000   
 n=2   1   2 P   1                   # n, l, Nzeta, Polarization, NzetaPol
   4.973      3.054   
   1.000      1.000   
C                     2                    # Species label, number of l-shells
 n=2   0   2                         # n, l, Nzeta 
   4.633      3.432   
   1.000      1.000   
 n=2   1   2 P   1                   # n, l, Nzeta, Polarization, NzetaPol
   5.659      3.653   
   1.000      1.000   
%endblock PAO.Basis

prinput: ----------------------------------------------------------------------

coor:   Atomic-coordinates input format  =     Fractional

siesta: Atomic coordinates (Bohr) and species
siesta:      2.30256   9.31683   0.00000  1        1
siesta:      6.95932  14.69411   0.00000  1        2
siesta:      9.28770  21.41544   0.00000  1        3
siesta:     -4.68258  10.66124   0.00000  1        4
siesta:     -0.02582  21.41544   0.00000  1        5
siesta:      2.30256  25.44831   0.00000  1        6
siesta:     -7.01096  25.44831   0.00000  1        7
siesta:    -11.66772  25.44831   0.00000  1        8
siesta:     -9.33934  29.48119   0.00000  1        9
siesta:      4.63094  29.48119   0.00000  1       10
siesta:     -2.35420  30.82560   0.00000  1       11
siesta:     -7.01096  33.51406   0.00000  1       12
siesta:     -0.02582  37.54693   0.00000  1       13
siesta:     -0.02582   2.59549   0.00000  2       14
siesta:     -0.02582   5.28395   0.00000  2       15
siesta:     -2.35420  38.89134   0.00000  2       16
siesta:     -2.35420  41.57980   0.00000  2       17
siesta:      2.30256  38.89134   0.00000  2       18
siesta:      2.30256  41.57980   0.00000  2       19
siesta:      4.63094  34.85847   0.00000  2       20
siesta:      4.63094  37.54693   0.00000  2       21
siesta:      6.95932  30.82560   0.00000  2       22
siesta:      6.95932  33.51406   0.00000  2       23
siesta:      9.28770  26.79272   0.00000  2       24
siesta:      9.28770  29.48119   0.00000  2       25
siesta:     -4.68258  34.85847   0.00000  2       26
siesta:     -4.68258  37.54693   0.00000  2       27
siesta:      2.30256   6.62836   0.00000  2       28
siesta:      4.63094  10.66124   0.00000  2       29
siesta:      4.63094  13.34970   0.00000  2       30
siesta:      6.95932  17.38257   0.00000  2       31
siesta:      9.28770  18.72698   0.00000  2       32
siesta:     11.61608  22.75985   0.00000  2       33
siesta:     11.61608  25.44831   0.00000  2       34
siesta:     -2.35420   6.62836   0.00000  2       35
siesta:     -2.35420   9.31683   0.00000  2       36
siesta:     -0.02582  10.66124   0.00000  2       37
siesta:     -0.02582  13.34970   0.00000  2       38
siesta:      2.30256  14.69411   0.00000  2       39
siesta:      2.30256  17.38257   0.00000  2       40
siesta:      4.63094  18.72698   0.00000  2       41
siesta:      4.63094  21.41544   0.00000  2       42
siesta:      6.95932  22.75985   0.00000  2       43
siesta:      6.95932  25.44831   0.00000  2       44
siesta:     -4.68258  13.34970   0.00000  2       45
siesta:     -2.35420  14.69411   0.00000  2       46
siesta:     -2.35420  17.38257   0.00000  2       47
siesta:     -0.02582  18.72698   0.00000  2       48
siesta:      2.30256  22.75985   0.00000  2       49
siesta:     -7.01096  14.69411   0.00000  2       50
siesta:     -7.01096  17.38257   0.00000  2       51
siesta:     -4.68258  18.72698   0.00000  2       52
siesta:     -4.68258  21.41544   0.00000  2       53
siesta:     -2.35420  22.75985   0.00000  2       54
siesta:     -2.35420  25.44831   0.00000  2       55
siesta:     -9.33934  18.72698   0.00000  2       56
siesta:     -9.33934  21.41544   0.00000  2       57
siesta:     -7.01096  22.75985   0.00000  2       58
siesta:    -11.66772  22.75985   0.00000  2       59
siesta:     -9.33934  26.79272   0.00000  2       60
siesta:      4.63094  26.79272   0.00000  2       61
siesta:     -0.02582  26.79272   0.00000  2       62
siesta:     -0.02582  29.48119   0.00000  2       63
siesta:     -4.68258  26.79272   0.00000  2       64
siesta:     -4.68258  29.48119   0.00000  2       65
siesta:      2.30256  30.82560   0.00000  2       66
siesta:      2.30256  33.51406   0.00000  2       67
siesta:     -2.35420  33.51406   0.00000  2       68
siesta:     -7.01096  30.82560   0.00000  2       69
siesta:     -0.02582  34.85847   0.00000  2       70
siesta:     -0.02582  42.92421   0.00000  2       71
siesta:     -0.02582  45.61267   0.00000  2       72

siesta: System type = slab      

initatomlists: Number of atoms, orbitals, and projectors:     72   936  1152

siesta: ******************** Simulation parameters ****************************
siesta:
siesta: The following are some of the parameters of the simulation.
siesta: A complete list of the parameters used, including default values,
siesta: can be found in file out.fdf
siesta:
redata: Non-Collinear-spin run           =     F
redata: SpinPolarized (Up/Down) run      =     F
redata: Number of spin components        =     1
redata: Long output                      =     F
redata: Number of Atomic Species         =        2
redata: Charge density info will appear in .RHO file
redata: Write Mulliken Pop.              =     NO
redata: Mesh Cutoff                      =   200.0000  Ry
redata: Net charge of the system         =     0.0000 |e|
redata: Max. number of SCF Iter          =      500
redata: SCF convergence failure will abort job
redata: Performing Pulay mixing using    =    10 iterations
redata: Mix DM in first SCF step ?       =     F
redata: Write Pulay info on disk?        =     F
redata: Discard 1st Pulay DM after  kick =     F
redata: New DM Mixing Weight             =     0.0500
redata: New DM Occupancy tolerance       = 0.000000000001
redata: No kicks to SCF
redata: DM Mixing Weight for Kicks       =     0.5000
redata: DM Tolerance for SCF             =     0.000100
redata: Require Energy convergence for SCF =     F
redata: DM Energy tolerance for SCF      =     0.000100 eV
redata: Require Harris convergence for SCF =     F
redata: DM Harris energy tolerance for SCF =     0.000100 eV
redata: Using Saved Data (generic)   =     F
redata: Use continuation files for DM    =     T
redata: Neglect nonoverlap interactions  =     F
redata: Method of Calculation            =     Diagonalization
redata: Divide and Conquer               =     T
redata: Electronic Temperature           =     0.0019  Ry
redata: Fix the spin of the system       =     F
redata: Dynamics option                  =     Verlet MD run
redata: Initial MD time step             =        1
redata:   Final MD time step             =        1
redata: Length of MD time step           =     1.0000  fs
redata: Initial Temperature of MD run    =     0.0000  K
redata: Perform a MD quench              =     F
redata: ***********************************************************************
Total number of electrons:   301.000000
Total ionic charge:   301.000000

* ProcessorY, Blocksize:    2  24

k-point displ. along   1 input, could be:     0.50    0.00
k-point displ. along   2 input, could be:     0.50    0.00
 Kpoints in:          231 . Kpoints trimmed:          231

siesta: k-grid: Number of k-points =   231
siesta: k-grid: Cutoff (effective) =     5.000 Ang
siesta: k-grid: Supercell and displacements
siesta: k-grid:   21   0   0      0.500
siesta: k-grid:    0  21   0      0.500
siesta: k-grid:    0   0   1      0.000
Naive supercell factors:     2    2    2

superc: Internal auxiliary supercell:     2 x     2 x     2  =       8
superc: Number of atoms, orbitals, and projectors:    576   7488   9216

* Maximum dynamic memory allocated =     4 MB

siesta:                 ==============================
                            Begin MD step =      1
                        ==============================

superc: Internal auxiliary supercell:     2 x     2 x     2  =       8
superc: Number of atoms, orbitals, and projectors:    576   7488   9216

outcell: Unit cell vectors (Ang):
       12.804619    7.392750    0.000000
        0.000000   14.785500    0.000000
        0.000000    0.000000   10.000000

outcell: Cell vector modules (Ang)   :   14.785500   14.785500   10.000000
outcell: Cell angles (23,13,12) (deg):     90.0000     90.0000     60.0000
outcell: Cell volume (Ang**3)        :   1893.2269
New_DM. Step:     1
Initializing Density Matrix...

InitMesh: MESH =   120 x   120 x    90 =     1296000
InitMesh: Mesh cutoff (required, used) =   200.000   223.865 Ry

* Maximum dynamic memory allocated =   187 MB

stepf: Fermi-Dirac step function

siesta: Program's energy decomposition (eV):
siesta: Ebs     =     -6130.249068
siesta: Eions   =     20492.720045
siesta: Ena     =      4850.652835
siesta: Ekin    =      7469.171103
siesta: Enl     =       253.882140
siesta: DEna    =        -0.000015
siesta: DUscf   =         0.000000
siesta: DUext   =         0.000000
siesta: Exc     =     -4494.019974
siesta: eta*DQ  =         0.000000
siesta: Emadel  =         0.000000
siesta: Emeta   =         0.000000
siesta: Emolmec =         0.000000
siesta: Ekinion =         0.000000
siesta: Eharris =    -12067.310813
siesta: Etot    =    -12413.033956
siesta: FreeEng =    -12413.033956

siesta: iscf   Eharris(eV)      E_KS(eV)   FreeEng(eV)   dDmax  Ef(eV)
siesta:    1   -12067.3108   -12413.0340   -12413.0340  5.7338 -7.1448
timer: Routine,Calls,Time,% = IterSCF        1    4342.893  99.74
elaps: Routine,Calls,Wall,% = IterSCF        1     543.530  99.74
siesta:    2   -15639.0323   -11502.0450   -11502.1079  7.1603 -2.5206
siesta:    3   -12027.4133   -12149.5280   -12149.5906  1.5036 -3.9342
siesta:    4   -11980.3538   -12067.9868   -12068.0379  0.9482 -3.7435
siesta:    5   -11941.8314   -12019.7130   -12019.7520  0.8678 -3.8273
siesta:    6   -11927.1926   -11997.4327   -11997.4783  0.7508 -3.9380
siesta:    7   -11923.1078   -11986.2491   -11986.2993  0.7259 -3.9087
siesta:    8   -11919.9717   -11973.8171   -11973.8655  0.5702 -4.0180
siesta:    9   -11918.0355   -11962.9511   -11963.0007  0.5071 -3.9986
siesta:   10   -11916.9959   -11952.2033   -11952.2711  0.4150 -3.9939
siesta:   11   -11917.8126   -11929.9550   -11930.0164  0.3299 -3.9761
siesta:   12   -11917.8431   -11917.6319   -11917.6945  0.2985 -3.9150
siesta:   13   -11917.3239   -11914.3445   -11914.4068  0.1612 -3.8958
siesta:   14   -11915.9756   -11912.6898   -11912.7426  1.2965 -3.9407
siesta:   15   -11916.8672   -11912.4601   -11912.5169  0.1589 -3.9390
siesta:   16   -11916.6103   -11912.9397   -11912.9956  0.2359 -3.9421
siesta:   17   -11916.5154   -11913.5789   -11913.6339  0.1845 -3.9533
siesta:   18   -11916.3749   -11912.6854   -11912.7440  0.0793 -3.9575
siesta:   19   -11916.3209   -11913.1244   -11913.1884  0.0726 -3.9670
siesta:   20   -11916.2844   -11913.3889   -11913.4474  0.0507 -3.9669
siesta:   21   -11916.2714   -11914.9007   -11914.9635  0.0444 -3.9634
siesta:   22   -11916.2749   -11915.5936   -11915.6557  0.0252 -3.9631
siesta:   23   -11916.2669   -11916.2037   -11916.2673  0.0226 -3.9659
siesta:   24   -11916.2639   -11916.5655   -11916.6276  0.0237 -3.9664
siesta:   25   -11916.2604   -11916.6482   -11916.7102  0.0204 -3.9664
siesta:   26   -11916.2594   -11916.4602   -11916.5224  0.0105 -3.9638
siesta:   27   -11916.2595   -11916.4699   -11916.5323  0.0079 -3.9633
siesta:   28   -11916.2587   -11916.3254   -11916.3876  0.0049 -3.9616
siesta:   29   -11916.2586   -11916.3260   -11916.3883  0.0042 -3.9615
siesta:   30   -11916.2586   -11916.3261   -11916.3883  0.0027 -3.9620
siesta:   31   -11916.2585   -11916.3228   -11916.3850  0.0019 -3.9622
siesta:   32   -11916.2584   -11916.3285   -11916.3908  0.0014 -3.9623
siesta:   33   -11916.2584   -11916.3223   -11916.3846  0.0010 -3.9624
siesta:   34   -11916.2584   -11916.3095   -11916.3718  0.0007 -3.9625
siesta:   35   -11916.2584   -11916.2853   -11916.3476  0.0005 -3.9625
siesta:   36   -11916.2584   -11916.2848   -11916.3470  0.0002 -3.9626
siesta:   37   -11916.2584   -11916.2822   -11916.3444  0.0002 -3.9626
siesta:   38   -11916.2584   -11916.2790   -11916.3413  0.0001 -3.9626
siesta:   39   -11916.2584   -11916.2721   -11916.3344  0.0001 -3.9626
siesta:   40   -11916.2584   -11916.2678   -11916.3301  0.0001 -3.9626

siesta: E_KS(eV) =           -11916.2642

siesta: E_KS - E_eggbox =    -11916.2642

siesta: Atomic forces (eV/Ang):
----------------------------------------
   Tot   -0.411780   -0.065874    0.000000
----------------------------------------
   Max  662.908822
   Res  169.302924    sqrt( Sum f_i^2 / 3N )
----------------------------------------
   Max  662.908822    constrained

Stress-tensor-Voigt (kbar):     -650.84    -2990.90       -0.07       21.40        0.00        0.00
(Free)E + p*V (eV/cell)   -10481.8783
Target enthalpy (eV/cell)   -11916.3265

siesta: Stress tensor (static) (eV/Ang**3):
        -0.406220    0.013355    0.000000
         0.013356   -1.866755    0.000000
         0.000000    0.000000   -0.000047

siesta: Pressure (static):       1213.94021279  kBar

siesta: Stress tensor (total) (eV/Ang**3):
        -0.406220    0.013355    0.000000
         0.013356   -1.866755    0.000000
         0.000000    0.000000   -0.000047

siesta: Pressure (total):       1213.94021279  kBar

siesta: Temp_ion =       0.000 K

* Maximum dynamic memory allocated =   204 MB
Computing bands...

siesta: Program's energy decomposition (eV):
siesta: Ebs     =     -4872.389348
siesta: Eions   =     20492.720045
siesta: Ena     =      4850.652835
siesta: Ekin    =     10481.550140
siesta: Enl     =     -1420.187374
siesta: DEna    =      -775.241511
siesta: DUscf   =       103.776246
siesta: DUext   =         0.000000
siesta: Exc     =     -4664.094518
siesta: eta*DQ  =         0.000000
siesta: Emadel  =         0.000000
siesta: Emeta   =         0.000000
siesta: Emolmec =         0.000000
siesta: Ekinion =         0.000000
siesta: Eharris =    -11916.258428
siesta: Etot    =    -11916.264228
siesta: FreeEng =    -11916.326488

siesta: Final energy (eV):
siesta:  Band Struct. =   -4872.389348
siesta:       Kinetic =   10481.550140
siesta:       Hartree =   33780.574117
siesta:    Ext. field =       0.000000
siesta:   Exch.-corr. =   -4664.094518
siesta:  Ion-electron =  -77616.276324
siesta:       Ion-ion =   26101.982357
siesta:       Ekinion =       0.000000
siesta:         Total =  -11916.264228

siesta: Atomic forces (eV/Ang):
siesta:      1    2.136282 -116.300175    0.000000
siesta:      2   -3.244956    0.583825    0.000000
siesta:      3    0.060649   -1.824307    0.000000
siesta:      4  -37.556650  657.218642    0.000000
siesta:      5   -0.032264   -0.140729    0.000000
siesta:      6   -0.056146    0.025252    0.000000
siesta:      7    0.327070   -0.864557    0.000000
siesta:      8    1.756967   -3.009839    0.000000
siesta:      9    1.257358   -2.303778    0.000000
siesta:     10   -1.740648   -4.392887    0.000000
siesta:     11  -26.484794    7.025030    0.000000
siesta:     12    2.222571   -2.314657    0.000000
siesta:     13    6.944734 -662.004651    0.000000
siesta:     14  -11.965230  550.194647    0.000000
siesta:     15   -1.552513 -125.185407    0.000000
siesta:     16    1.843280  128.452973    0.000000
siesta:     17  -17.961842 -548.241595    0.000000
siesta:     18    0.664944  122.037008    0.000000
siesta:     19   13.853802 -545.550304    0.000000
siesta:     20   27.546753    2.305268    0.000000
siesta:     21   22.370877 -552.639628    0.000000
siesta:     22    2.095534   -0.057784    0.000000
siesta:     23   -3.300221    0.904312    0.000000
siesta:     24    2.060681    2.471809    0.000000
siesta:     25   -1.507131    0.386299    0.000000
siesta:     26  -25.874920    7.183577    0.000000
siesta:     27  -27.169421 -655.941512    0.000000
siesta:     28    0.141756  544.488108    0.000000
siesta:     29   32.156195  556.535786    0.000000
siesta:     30   27.199897   -5.796855    0.000000
siesta:     31    0.145897   -0.894633    0.000000
siesta:     32    0.526367    0.494965    0.000000
siesta:     33   -0.939012    4.796021    0.000000
siesta:     34   -0.464447   -6.402422    0.000000
siesta:     35  -15.862881  545.179089    0.000000
siesta:     36    4.369020 -130.523222    0.000000
siesta:     37   -7.151591  662.908822    0.000000
siesta:     38    0.292365 -121.660633    0.000000
siesta:     39   22.573831  560.427933    0.000000
siesta:     40   23.145554   -5.609875    0.000000
siesta:     41   -1.817125    1.468536    0.000000
siesta:     42   -0.314737    0.365299    0.000000
siesta:     43    0.661265    0.595151    0.000000
siesta:     44   -0.214399   -1.093156    0.000000
siesta:     45  -24.484357   -4.294080    0.000000
siesta:     46  -17.570520  561.262560    0.000000
siesta:     47  -23.092721   -5.615627    0.000000
siesta:     48   -0.245865  566.834301    0.000000
siesta:     49    1.200105    0.695373    0.000000
siesta:     50    2.690573   -2.332547    0.000000
siesta:     51   -1.473111   -0.193579    0.000000
siesta:     52    1.047918    2.511151    0.000000
siesta:     53    0.423607    0.080391    0.000000
siesta:     54   -0.619110    0.590957    0.000000
siesta:     55    0.694636   -1.172179    0.000000
siesta:     56    0.960173   -0.006239    0.000000
siesta:     57   -0.672941   -1.701806    0.000000
siesta:     58   -0.213757    1.282628    0.000000
siesta:     59   -0.449463    6.101492    0.000000
siesta:     60   -1.097993    2.673807    0.000000
siesta:     61   -0.576097    0.407454    0.000000
siesta:     62    0.836926   -0.197792    0.000000
siesta:     63   12.821392 -574.690090    0.000000
siesta:     64   -0.830981    0.132921    0.000000
siesta:     65    0.396402   -3.029068    0.000000
siesta:     66   23.473791    6.219075    0.000000
siesta:     67   30.646861 -564.993435    0.000000
siesta:     68  -15.763782 -555.990692    0.000000
siesta:     69   -1.222504    1.738157    0.000000
siesta:     70    2.275339  119.757287    0.000000
siesta:     71   -1.020695  126.012956    0.000000
siesta:     72    0.311678 -545.444997    0.000000
siesta: ----------------------------------------
siesta:    Tot   -0.411780   -0.065874    0.000000

siesta: Stress tensor (static) (eV/Ang**3):
siesta:    -0.406220    0.013355    0.000000
siesta:     0.013356   -1.866755    0.000000
siesta:     0.000000    0.000000   -0.000047

siesta: Cell volume =       1893.226884 Ang**3

siesta: Pressure (static):
siesta:                Solid            Molecule  Units
siesta:           0.00825203          0.13293151  Ry/Bohr**3
siesta:           0.75767370         12.20531964  eV/Ang**3
siesta:        1213.94021279      19555.28930275  kBar
(Free)E+ p_basis*V_orbitals  =      -11887.447396
(Free)Eharris+ p_basis*V_orbitals  =      -11887.438010

siesta: Electric dipole (a.u.)  =    0.000000    0.000000    0.000000
siesta: Electric dipole (Debye) =    0.000000    0.000000    0.000000

* Maximum dynamic memory allocated : Node    0 =   204 MB
* Maximum dynamic memory allocated : Node    1 =    72 MB
* Maximum dynamic memory allocated : Node    2 =    75 MB
* Maximum dynamic memory allocated : Node    3 =   193 MB
* Maximum dynamic memory allocated : Node    4 =   192 MB
* Maximum dynamic memory allocated : Node    5 =    72 MB
* Maximum dynamic memory allocated : Node    6 =    73 MB
* Maximum dynamic memory allocated : Node    7 =   177 MB

* Maximum memory occured during matrixMtoO                    

timer: CPU execution times:
timer:  Routine       Calls   Time/call    Tot.time        %
timer:  siesta            1  170941.736  170941.736   100.00
timer:  Setup             1       3.105       3.105     0.00
timer:  bands             3     271.793     815.379     0.48
timer:  writewave         1       0.022       0.022     0.00
timer:  KSV_init          1       0.000       0.000     0.00
timer:  IterMD            1  170117.335  170117.335    99.52
timer:  hsparse           1       0.233       0.233     0.00
timer:  overlap           1       7.311       7.311     0.00
timer:  IterSCF          40    4248.663  169946.530    99.42
timer:  kinefsm           2       3.758       7.515     0.00
timer:  nlefsm            2      18.937      37.873     0.02
timer:  DHSCF            41      89.405    3665.610     2.14
timer:  DHSCF1            1       0.765       0.765     0.00
timer:  DHSCF2            1      33.786      33.786     0.02
timer:  REORD           330       0.010       3.427     0.00
timer:  POISON           42       2.474     103.914     0.06
timer:  DHSCF3           41      87.744    3597.508     2.10
timer:  rhoofd           41      17.841     731.491     0.43
timer:  cellXC           41       3.495     143.278     0.08
timer:  vmat             41      42.125    1727.145     1.01
timer:  MolMec            2       0.000       0.000     0.00
timer:  diagon           40    4157.988  166319.501    97.30
timer:  c-eigval       9361       6.740   63094.322    36.91
timer:  c-buildHS      9361       0.126    1176.457     0.69
timer:  cdiag         18601       6.938  129051.137    75.49
timer:  cdiag1        18601       0.433    8053.031     4.71
timer:  cdiag2        18601       1.922   35755.507    20.92
timer:  cdiag3        18601       3.972   73877.530    43.22
timer:  cdiag4        18601       0.208    3873.503     2.27
timer:  c-eigvec       9240       7.331   67737.811    39.63
timer:  c-buildD       9240       3.923   36251.538    21.21
timer:  DHSCF4            1      31.277      31.277     0.02
timer:  dfscf             1      29.465      29.465     0.02
timer:  overfsm           1       0.406       0.406     0.00
timer:  optical           1       5.164       5.164     0.00
  

elaps: ELAPSED times:
elaps:  Routine       Calls   Time/call    Tot.time        %
elaps:  siesta            1   21392.249   21392.249   100.00
elaps:  Setup             1       0.387       0.387     0.00
elaps:  bands             3      34.027     102.081     0.48
elaps:  writewave         1       0.002       0.002     0.00
elaps:  KSV_init          1       0.000       0.000     0.00
elaps:  IterMD            1   21289.100   21289.100    99.52
elaps:  hsparse           1       0.031       0.031     0.00
elaps:  overlap           1       0.971       0.971     0.00
elaps:  IterSCF          40     531.693   21267.733    99.42
elaps:  kinefsm           2       0.500       1.000     0.00
elaps:  nlefsm            2       2.415       4.829     0.02
elaps:  DHSCF            41      11.284     462.629     2.16
elaps:  DHSCF1            1       0.100       0.100     0.00
elaps:  DHSCF2            1       4.226       4.226     0.02
elaps:  REORD           330       0.001       0.451     0.00
elaps:  POISON           42       0.310      13.016     0.06
elaps:  DHSCF3           41      10.978     450.082     2.10
elaps:  rhoofd           41       4.876     199.933     0.93
elaps:  cellXC           41       0.436      17.890     0.08
elaps:  vmat             41       5.270     216.069     1.01
elaps:  MolMec            2       0.000       0.000     0.00
elaps:  diagon           40     520.364   20814.554    97.30
elaps:  c-eigval       9361       0.843    7894.336    36.90
elaps:  c-buildHS      9361       0.017     159.745     0.75
elaps:  cdiag         18601       0.859   15975.934    74.68
elaps:  cdiag1        18601       0.054    1000.800     4.68
elaps:  cdiag2        18601       0.241    4474.021    20.91
elaps:  cdiag3        18601       0.498    9256.901    43.27
elaps:  cdiag4        18601       0.026     487.133     2.28
elaps:  c-eigvec       9240       0.905    8359.262    39.08
elaps:  c-buildD       9240       0.504    4655.047    21.76
elaps:  DHSCF4            1       7.907       7.907     0.04
elaps:  dfscf             1       7.522       7.522     0.04
elaps:  overfsm           1       0.052       0.052     0.00
elaps:  optical           1       0.000       0.000     0.00
  
>> End of run:   8-MAY-2016   8:05:03
