Siesta Version:                                        siesta-3.2-pl-3
Architecture  : x86_64-unknown-linux-gnu--unknown
Compiler flags: mpiifort -g -O2 -fPIC -xSSE4.1 -fp-model source -shared-intel 
PARALLEL version

* Running on    8 nodes in parallel
>> Start of run:   2-MAY-2016   8:28:31

                           ***********************       
                           *  WELCOME TO SIESTA  *       
                           ***********************       

reinit: Reading from standard input
************************** Dump of input data file ****************************
#(1) General system descriptors
SystemName            GRP_doping    # Descriptive name of the system
SystemLabel           GRP_doping    # Short name for naming files
%include STRUCT.fdf
%include KPT.fdf
%include BASIS.fdf
#%include TS.fdf # for transiesta calculation
#(4) DFT, Grid, SCF
XC.functional         GGA           # LDA or GGA (default = LDA)
XC.authors            PBE           # CA (Ceperley-Aldr) = PZ
                                    #    (Perdew-Zunger) - LDA - Default
                                    # PW92 (Perdew-Wang-92) - LDA
                                    # PBE (Perdew-Burke-Ernzerhof) - GGA
MeshCutoff            200.000000    Ry      # Default: 50.0 Ry ~ 0.444 Bohr
                                    #         100.0 Ry ~ 0.314 Bohr
MaxSCFIterations      500           # Default: 50
DM.MixingWeight       0.05          # Default: 0.25
DM.NumberPulay        10            # Default: 0
DM.PulayOnFile        F             # SystemLabel.P1, SystemLabel.P2
DM.Tolerance          1.d-4         # Default: 1.d-4
DM.UseSaveDM          .true.        # because of the bug
SCFMustConverge       .true.
NeglNonOverlapInt     F             # Default: F
#(5) Eigenvalue problem: order-N or diagonalization
SolutionMethod        Diagon        # or Transiesta
ElectronicTemperature 300.0 K       # Default: 300.0 K
#(6) Molecular dynamics and relaxations
#MD.TypeOfRun          CG            # Type of dynamics:
#MD.VariableCell       F
#MD.NumCGsteps         0           # 0 for single-point / 100 for gopt
#MD.MaxCGDispl         0.2 Bohr      # Default: 0.2 Bohr
#MD.MaxForceTol        0.02 eV/Ang   # Default: 0.04 eV/Ang
#MD.MaxStressTol       1.0 GPa       # Default: 1.0 GPa
# Geometry Constraints
#%block GeometryConstraints
#	position from 1 to 44
#%endblock GeometryConstraints
BandLinesScale   pi/a
%block BandLines
 1   0.00000000  0.00000000  0.00000000
50   0.00000000  0.07809418  0.00000000
50   0.04509075  0.07809242  0.00000000
20   0.00000000  0.00000000  0.00000000
%endblock BandLines
************************** End of input data file *****************************

reinit: -----------------------------------------------------------------------
reinit: System Name: GRP_doping
reinit: -----------------------------------------------------------------------
reinit: System Label: GRP_doping                                                  
reinit: -----------------------------------------------------------------------

initatom: Reading input for the pseudopotentials and atomic orbitals ----------
 Species number:            1  Label: N Atomic number:           7
 Species number:            2  Label: C Atomic number:           6
Ground state valence configuration:   2s02  2p03
Reading pseudopotential information in formatted form from N.psf

Valence configuration for pseudopotential generation:
2s( 2.00) rc: 1.48
2p( 3.00) rc: 1.48
3d( 0.00) rc: 1.48
4f( 0.00) rc: 1.48
Ground state valence configuration:   2s02  2p02
Reading pseudopotential information in formatted form from C.psf

Valence configuration for pseudopotential generation:
2s( 2.00) rc: 1.54
2p( 2.00) rc: 1.54
3d( 0.00) rc: 1.54
4f( 0.00) rc: 1.54
For N, standard SIESTA heuristics set lmxkb to 3
 (one more than the basis l, including polarization orbitals).
Use PS.lmax or PS.KBprojectors blocks to override.
For C, standard SIESTA heuristics set lmxkb to 3
 (one more than the basis l, including polarization orbitals).
Use PS.lmax or PS.KBprojectors blocks to override.

<basis_specs>
===============================================================================
N                    Z=   7    Mass=  14.010        Charge= 0.17977+309
Lmxo=1 Lmxkb= 3    BasisType=split      Semic=F
L=0  Nsemic=0  Cnfigmx=2
          n=1  nzeta=2  polorb=0
            splnorm:   0.15000    
               vcte:    0.0000    
               rinn:    0.0000    
                rcs:    0.0000      0.0000    
            lambdas:    1.0000      1.0000    
L=1  Nsemic=0  Cnfigmx=2
          n=1  nzeta=2  polorb=1
            splnorm:   0.15000    
               vcte:    0.0000    
               rinn:    0.0000    
                rcs:    0.0000      0.0000    
            lambdas:    1.0000      1.0000    
-------------------------------------------------------------------------------
L=0  Nkbl=1  erefs: 0.17977+309
L=1  Nkbl=1  erefs: 0.17977+309
L=2  Nkbl=1  erefs: 0.17977+309
L=3  Nkbl=1  erefs: 0.17977+309
===============================================================================
</basis_specs>

atom: Called for N                     (Z =   7)

read_vps: Pseudopotential generation method:
read_vps: ATM3      Troullier-Martins                       
Total valence charge:    5.00000

read_vps: Pseudopotential includes a core correction:
read_vps: Pseudo-core for xc-correction

xc_check: Exchange-correlation functional:
xc_check: GGA Perdew, Burke & Ernzerhof 1996
V l=0 = -2*Zval/r beyond r=  1.4606
V l=1 = -2*Zval/r beyond r=  1.4606
V l=2 = -2*Zval/r beyond r=  1.4606
V l=3 = -2*Zval/r beyond r=  1.4606
All V_l potentials equal beyond r=  1.4606
This should be close to max(r_c) in ps generation
All pots = -2*Zval/r beyond r=  1.4606

VLOCAL1: 99.0% of the norm of Vloc inside     20.347 Ry
VLOCAL1: 99.9% of the norm of Vloc inside     46.372 Ry
atom: Maximum radius for 4*pi*r*r*local-pseudopot. charge    1.76189
atom: Maximum radius for r*vlocal+2*Zval:    1.53550
GHOST: No ghost state for L =  0
GHOST: No ghost state for L =  1
GHOST: No ghost state for L =  2
GHOST: No ghost state for L =  3

KBgen: Kleinman-Bylander projectors: 
   l= 0   rc=  1.634559   el= -1.363963   Ekb=  5.296955   kbcos=  0.335621
   l= 1   rc=  1.614250   el= -0.521451   Ekb= -5.259161   kbcos= -0.433408
   l= 2   rc=  1.718383   el=  0.001991   Ekb= -1.271464   kbcos= -0.007566
   l= 3   rc=  1.761893   el=  0.003093   Ekb= -0.494769   kbcos= -0.001015

KBgen: Total number of  Kleinman-Bylander projectors:   16
atom: -------------------------------------------------------------------------

atom: SANKEY-TYPE ORBITALS:
atom: Selected multiple-zeta basis: split     

SPLIT: Orbitals with angular momentum L= 0

SPLIT: Basis orbitals for state 2s

SPLIT: PAO cut-off radius determined from an
SPLIT: energy shift=  0.007350 Ry

   izeta = 1
                 lambda =    1.000000
                     rc =    4.071465
                 energy =   -1.356470
                kinetic =    1.176977
    potential(screened) =   -2.533447
       potential(ionic) =   -8.057990

   izeta = 2
                 rmatch =    2.905100
              splitnorm =    0.150000
                 energy =   -1.158343
                kinetic =    1.813009
    potential(screened) =   -2.971352
       potential(ionic) =   -8.901931

SPLIT: Orbitals with angular momentum L= 1

SPLIT: Basis orbitals for state 2p

SPLIT: PAO cut-off radius determined from an
SPLIT: energy shift=  0.007350 Ry

   izeta = 1
                 lambda =    1.000000
                     rc =    4.972977
                 energy =   -0.513884
                kinetic =    3.441732
    potential(screened) =   -3.955616
       potential(ionic) =   -9.287901

   izeta = 2
                 rmatch =    3.054066
              splitnorm =    0.150000
                 energy =   -0.318226
                kinetic =    5.125348
    potential(screened) =   -5.443573
       potential(ionic) =  -11.380999

POLgen: Perturbative polarization orbital with L=  2

POLgen: Polarization orbital for state 2p

   izeta = 1
                     rc =    4.972977
                 energy =    1.607437
                kinetic =    3.268125
    potential(screened) =   -1.660688
       potential(ionic) =   -5.973652
atom: Total number of Sankey-type orbitals: 13

atm_pop: Valence configuration (for local Pseudopot. screening):
 2s( 2.00)                                                            
 2p( 3.00)                                                            
Vna: chval, zval:    5.00000   5.00000

Vna:  Cut-off radius for the neutral-atom potential:   4.972977
comcore: Pseudo-core radius Rcore=  1.554824

atom: _________________________________________________________________________

<basis_specs>
===============================================================================
C                    Z=   6    Mass=  12.010        Charge= 0.17977+309
Lmxo=1 Lmxkb= 3    BasisType=split      Semic=F
L=0  Nsemic=0  Cnfigmx=2
          n=1  nzeta=2  polorb=0
            splnorm:   0.15000    
               vcte:    0.0000    
               rinn:    0.0000    
                rcs:    0.0000      0.0000    
            lambdas:    1.0000      1.0000    
L=1  Nsemic=0  Cnfigmx=2
          n=1  nzeta=2  polorb=1
            splnorm:   0.15000    
               vcte:    0.0000    
               rinn:    0.0000    
                rcs:    0.0000      0.0000    
            lambdas:    1.0000      1.0000    
-------------------------------------------------------------------------------
L=0  Nkbl=1  erefs: 0.17977+309
L=1  Nkbl=1  erefs: 0.17977+309
L=2  Nkbl=1  erefs: 0.17977+309
L=3  Nkbl=1  erefs: 0.17977+309
===============================================================================
</basis_specs>

atom: Called for C                     (Z =   6)

read_vps: Pseudopotential generation method:
read_vps: ATM3      Troullier-Martins                       
Total valence charge:    4.00000

read_vps: Pseudopotential includes a core correction:
read_vps: Pseudo-core for xc-correction

xc_check: Exchange-correlation functional:
xc_check: GGA Perdew, Burke & Ernzerhof 1996
V l=0 = -2*Zval/r beyond r=  1.5227
V l=1 = -2*Zval/r beyond r=  1.5227
V l=2 = -2*Zval/r beyond r=  1.5227
V l=3 = -2*Zval/r beyond r=  1.5038
All V_l potentials equal beyond r=  1.5227
This should be close to max(r_c) in ps generation
All pots = -2*Zval/r beyond r=  1.5227

VLOCAL1: 99.0% of the norm of Vloc inside     18.722 Ry
VLOCAL1: 99.9% of the norm of Vloc inside     42.668 Ry
atom: Maximum radius for 4*pi*r*r*local-pseudopot. charge    1.83678
atom: Maximum radius for r*vlocal+2*Zval:    1.58088
GHOST: No ghost state for L =  0
GHOST: No ghost state for L =  1
GHOST: No ghost state for L =  2
GHOST: No ghost state for L =  3

KBgen: Kleinman-Bylander projectors: 
   l= 0   rc=  1.704034   el= -1.009801   Ekb=  5.335044   kbcos=  0.316824
   l= 1   rc=  1.704034   el= -0.388707   Ekb= -3.785862   kbcos= -0.366464
   l= 2   rc=  1.791422   el=  0.001971   Ekb= -0.970471   kbcos= -0.009212
   l= 3   rc=  1.859892   el=  0.003065   Ekb= -0.399525   kbcos= -0.001223

KBgen: Total number of  Kleinman-Bylander projectors:   16
atom: -------------------------------------------------------------------------

atom: SANKEY-TYPE ORBITALS:
atom: Selected multiple-zeta basis: split     

SPLIT: Orbitals with angular momentum L= 0

SPLIT: Basis orbitals for state 2s

SPLIT: PAO cut-off radius determined from an
SPLIT: energy shift=  0.007350 Ry

   izeta = 1
                 lambda =    1.000000
                     rc =    4.632753
                 energy =   -1.002270
                kinetic =    0.855760
    potential(screened) =   -1.858031
       potential(ionic) =   -5.417575

   izeta = 2
                 rmatch =    3.431921
              splitnorm =    0.150000
                 energy =   -0.867111
                kinetic =    1.300804
    potential(screened) =   -2.167915
       potential(ionic) =   -5.962684

SPLIT: Orbitals with angular momentum L= 1

SPLIT: Basis orbitals for state 2p

SPLIT: PAO cut-off radius determined from an
SPLIT: energy shift=  0.007350 Ry

   izeta = 1
                 lambda =    1.000000
                     rc =    5.658549
                 energy =   -0.381140
                kinetic =    2.399701
    potential(screened) =   -2.780841
       potential(ionic) =   -6.206085

   izeta = 2
                 rmatch =    3.653288
              splitnorm =    0.150000
                 energy =   -0.249149
                kinetic =    3.542762
    potential(screened) =   -3.791911
       potential(ionic) =   -7.581078

POLgen: Perturbative polarization orbital with L=  2

POLgen: Polarization orbital for state 2p

   izeta = 1
                     rc =    5.658549
                 energy =    1.109913
                kinetic =    2.304789
    potential(screened) =   -1.194876
       potential(ionic) =   -4.013592
atom: Total number of Sankey-type orbitals: 13

atm_pop: Valence configuration (for local Pseudopot. screening):
 2s( 2.00)                                                            
 2p( 2.00)                                                            
Vna: chval, zval:    4.00000   4.00000

Vna:  Cut-off radius for the neutral-atom potential:   5.658549
comcore: Pseudo-core radius Rcore=  1.791422

atom: _________________________________________________________________________

prinput: Basis input ----------------------------------------------------------

PAO.BasisType split     

%block ChemicalSpeciesLabel
    1    7 N                       # Species index, atomic number, species label
    2    6 C                       # Species index, atomic number, species label
%endblock ChemicalSpeciesLabel

%block PAO.Basis                 # Define Basis set
N                     2                    # Species label, number of l-shells
 n=2   0   2                         # n, l, Nzeta 
   4.071      2.905   
   1.000      1.000   
 n=2   1   2 P   1                   # n, l, Nzeta, Polarization, NzetaPol
   4.973      3.054   
   1.000      1.000   
C                     2                    # Species label, number of l-shells
 n=2   0   2                         # n, l, Nzeta 
   4.633      3.432   
   1.000      1.000   
 n=2   1   2 P   1                   # n, l, Nzeta, Polarization, NzetaPol
   5.659      3.653   
   1.000      1.000   
%endblock PAO.Basis

prinput: ----------------------------------------------------------------------

coor:   Atomic-coordinates input format  =     Fractional

siesta: Atomic coordinates (Bohr) and species
siesta:     -2.35420  38.89134   0.00000  1        1
siesta:     -2.35420  41.57980   0.00000  1        2
siesta:     -4.68258  34.85847   0.00000  1        3
siesta:     -4.68258  37.54693   0.00000  1        4
siesta:     -0.02582  13.34970   0.00000  1        5
siesta:     -2.35420  14.69411   0.00000  1        6
siesta:     -2.35420  17.38257   0.00000  1        7
siesta:    -11.66772  22.75985   0.00000  1        8
siesta:    -11.66772  25.44831   0.00000  1        9
siesta:     -9.33934  26.79272   0.00000  1       10
siesta:     -9.33934  29.48119   0.00000  1       11
siesta:      4.63094  29.48119   0.00000  1       12
siesta:      2.30256  30.82560   0.00000  1       13
siesta:      2.30256  33.51406   0.00000  1       14
siesta:     -7.01096  30.82560   0.00000  1       15
siesta:     -7.01096  33.51406   0.00000  1       16
siesta:     -0.02582  34.85847   0.00000  1       17
siesta:     -0.02582  42.92421   0.00000  1       18
siesta:     -0.02582  45.61267   0.00000  1       19
siesta:     -0.02582   2.59549   0.00000  2       20
siesta:     -0.02582   5.28395   0.00000  2       21
siesta:      2.30256  38.89134   0.00000  2       22
siesta:      2.30256  41.57980   0.00000  2       23
siesta:      4.63094  34.85847   0.00000  2       24
siesta:      4.63094  37.54693   0.00000  2       25
siesta:      6.95932  30.82560   0.00000  2       26
siesta:      6.95932  33.51406   0.00000  2       27
siesta:      9.28770  26.79272   0.00000  2       28
siesta:      9.28770  29.48119   0.00000  2       29
siesta:      2.30256   6.62836   0.00000  2       30
siesta:      2.30256   9.31683   0.00000  2       31
siesta:      4.63094  10.66124   0.00000  2       32
siesta:      4.63094  13.34970   0.00000  2       33
siesta:      6.95932  14.69411   0.00000  2       34
siesta:      6.95932  17.38257   0.00000  2       35
siesta:      9.28770  18.72698   0.00000  2       36
siesta:      9.28770  21.41544   0.00000  2       37
siesta:     11.61608  22.75985   0.00000  2       38
siesta:     11.61608  25.44831   0.00000  2       39
siesta:     -2.35420   6.62836   0.00000  2       40
siesta:     -2.35420   9.31683   0.00000  2       41
siesta:     -0.02582  10.66124   0.00000  2       42
siesta:      2.30256  14.69411   0.00000  2       43
siesta:      2.30256  17.38257   0.00000  2       44
siesta:      4.63094  18.72698   0.00000  2       45
siesta:      4.63094  21.41544   0.00000  2       46
siesta:      6.95932  22.75985   0.00000  2       47
siesta:      6.95932  25.44831   0.00000  2       48
siesta:     -4.68258  10.66124   0.00000  2       49
siesta:     -4.68258  13.34970   0.00000  2       50
siesta:     -0.02582  18.72698   0.00000  2       51
siesta:     -0.02582  21.41544   0.00000  2       52
siesta:      2.30256  22.75985   0.00000  2       53
siesta:      2.30256  25.44831   0.00000  2       54
siesta:     -7.01096  14.69411   0.00000  2       55
siesta:     -7.01096  17.38257   0.00000  2       56
siesta:     -4.68258  18.72698   0.00000  2       57
siesta:     -4.68258  21.41544   0.00000  2       58
siesta:     -2.35420  22.75985   0.00000  2       59
siesta:     -2.35420  25.44831   0.00000  2       60
siesta:     -9.33934  18.72698   0.00000  2       61
siesta:     -9.33934  21.41544   0.00000  2       62
siesta:     -7.01096  22.75985   0.00000  2       63
siesta:     -7.01096  25.44831   0.00000  2       64
siesta:      4.63094  26.79272   0.00000  2       65
siesta:     -0.02582  26.79272   0.00000  2       66
siesta:     -0.02582  29.48119   0.00000  2       67
siesta:     -4.68258  26.79272   0.00000  2       68
siesta:     -4.68258  29.48119   0.00000  2       69
siesta:     -2.35420  30.82560   0.00000  2       70
siesta:     -2.35420  33.51406   0.00000  2       71
siesta:     -0.02582  37.54693   0.00000  2       72

siesta: System type = slab      

initatomlists: Number of atoms, orbitals, and projectors:     72   936  1152

siesta: ******************** Simulation parameters ****************************
siesta:
siesta: The following are some of the parameters of the simulation.
siesta: A complete list of the parameters used, including default values,
siesta: can be found in file out.fdf
siesta:
redata: Non-Collinear-spin run           =     F
redata: SpinPolarized (Up/Down) run      =     F
redata: Number of spin components        =     1
redata: Long output                      =     F
redata: Number of Atomic Species         =        2
redata: Charge density info will appear in .RHO file
redata: Write Mulliken Pop.              =     NO
redata: Mesh Cutoff                      =   200.0000  Ry
redata: Net charge of the system         =     0.0000 |e|
redata: Max. number of SCF Iter          =      500
redata: SCF convergence failure will abort job
redata: Performing Pulay mixing using    =    10 iterations
redata: Mix DM in first SCF step ?       =     F
redata: Write Pulay info on disk?        =     F
redata: Discard 1st Pulay DM after  kick =     F
redata: New DM Mixing Weight             =     0.0500
redata: New DM Occupancy tolerance       = 0.000000000001
redata: No kicks to SCF
redata: DM Mixing Weight for Kicks       =     0.5000
redata: DM Tolerance for SCF             =     0.000100
redata: Require Energy convergence for SCF =     F
redata: DM Energy tolerance for SCF      =     0.000100 eV
redata: Require Harris convergence for SCF =     F
redata: DM Harris energy tolerance for SCF =     0.000100 eV
redata: Using Saved Data (generic)   =     F
redata: Use continuation files for DM    =     T
redata: Neglect nonoverlap interactions  =     F
redata: Method of Calculation            =     Diagonalization
redata: Divide and Conquer               =     T
redata: Electronic Temperature           =     0.0019  Ry
redata: Fix the spin of the system       =     F
redata: Dynamics option                  =     Verlet MD run
redata: Initial MD time step             =        1
redata:   Final MD time step             =        1
redata: Length of MD time step           =     1.0000  fs
redata: Initial Temperature of MD run    =     0.0000  K
redata: Perform a MD quench              =     F
redata: ***********************************************************************
Total number of electrons:   307.000000
Total ionic charge:   307.000000

* ProcessorY, Blocksize:    2  24

k-point displ. along   1 input, could be:     0.50    0.00
k-point displ. along   2 input, could be:     0.50    0.00
 Kpoints in:          231 . Kpoints trimmed:          231

siesta: k-grid: Number of k-points =   231
siesta: k-grid: Cutoff (effective) =     5.000 Ang
siesta: k-grid: Supercell and displacements
siesta: k-grid:   21   0   0      0.500
siesta: k-grid:    0  21   0      0.500
siesta: k-grid:    0   0   1      0.000
Naive supercell factors:     2    2    2

superc: Internal auxiliary supercell:     2 x     2 x     2  =       8
superc: Number of atoms, orbitals, and projectors:    576   7488   9216

* Maximum dynamic memory allocated =     4 MB

siesta:                 ==============================
                            Begin MD step =      1
                        ==============================

superc: Internal auxiliary supercell:     2 x     2 x     2  =       8
superc: Number of atoms, orbitals, and projectors:    576   7488   9216

outcell: Unit cell vectors (Ang):
       12.804619    7.392750    0.000000
        0.000000   14.785500    0.000000
        0.000000    0.000000   10.000000

outcell: Cell vector modules (Ang)   :   14.785500   14.785500   10.000000
outcell: Cell angles (23,13,12) (deg):     90.0000     90.0000     60.0000
outcell: Cell volume (Ang**3)        :   1893.2269
New_DM. Step:     1
Initializing Density Matrix...

InitMesh: MESH =   120 x   120 x    90 =     1296000
InitMesh: Mesh cutoff (required, used) =   200.000   223.865 Ry

* Maximum dynamic memory allocated =   183 MB

stepf: Fermi-Dirac step function

siesta: Program's energy decomposition (eV):
siesta: Ebs     =     -6279.383595
siesta: Eions   =     21457.201110
siesta: Ena     =      4922.701105
siesta: Ekin    =      7972.707975
siesta: Enl     =        58.083141
siesta: DEna    =        -0.000015
siesta: DUscf   =         0.000000
siesta: DUext   =         0.000000
siesta: Exc     =     -4655.726168
siesta: eta*DQ  =         0.000000
siesta: Emadel  =         0.000000
siesta: Emeta   =         0.000000
siesta: Emolmec =         0.000000
siesta: Ekinion =         0.000000
siesta: Eharris =    -12754.009254
siesta: Etot    =    -13159.435071
siesta: FreeEng =    -13159.435071

siesta: iscf   Eharris(eV)      E_KS(eV)   FreeEng(eV)   dDmax  Ef(eV)
siesta:    1   -12754.0093   -13159.4351   -13159.4351  5.5277 -6.9813
timer: Routine,Calls,Time,% = IterSCF        1    4285.305  99.73
elaps: Routine,Calls,Wall,% = IterSCF        1     536.322  99.73
siesta:    2   -14986.3543   -12298.6319   -12298.6759  8.6575 -1.7036
siesta:    3   -12710.4276   -12846.5656   -12846.6211  1.4218 -4.2482
siesta:    4   -12654.4283   -12804.2045   -12804.2516  1.2209 -4.0256
siesta:    5   -12623.9113   -12766.3384   -12766.3792  1.0435 -4.0356
siesta:    6   -12617.8557   -12747.4943   -12747.5437  1.0406 -3.9587
siesta:    7   -12611.7957   -12729.4710   -12729.5202  0.9325 -3.9035
siesta:    8   -12606.7833   -12707.9135   -12707.9614  0.6193 -3.9750
siesta:    9   -12606.5785   -12690.3791   -12690.4406  0.5954 -3.8803
siesta:   10   -12605.6444   -12663.3419   -12663.4066  0.3771 -3.8895
siesta:   11   -12605.5449   -12629.9682   -12630.0459  0.2706 -3.8506
siesta:   12   -12604.7485   -12612.8277   -12612.8727  0.4300 -3.8295
siesta:   13   -12604.6242   -12611.4818   -12611.5417  0.2533 -3.8264
siesta:   14   -12604.5146   -12608.8515   -12608.8985  0.2123 -3.8616
siesta:   15   -12604.5116   -12607.8574   -12607.9207  0.3662 -3.8417
siesta:   16   -12604.2719   -12607.2715   -12607.3438  0.1425 -3.9245
siesta:   17   -12604.2422   -12606.6577   -12606.7280  0.0648 -3.9050
siesta:   18   -12604.2165   -12606.2328   -12606.3064  0.2655 -3.9047
siesta:   19   -12604.1760   -12606.0833   -12606.1550  0.0496 -3.8914
siesta:   20   -12604.1638   -12605.7104   -12605.7864  0.0485 -3.8971
siesta:   21   -12604.1639   -12606.0913   -12606.1668  0.0531 -3.8960
siesta:   22   -12604.1608   -12606.5594   -12606.6330  0.0630 -3.8943
siesta:   23   -12604.1519   -12606.1106   -12606.1836  0.0356 -3.8899
siesta:   24   -12604.1490   -12605.0204   -12605.0964  0.0192 -3.8857
siesta:   25   -12604.1497   -12604.0912   -12604.1685  0.0162 -3.8843
siesta:   26   -12604.1489   -12603.9763   -12604.0522  0.0047 -3.8827
siesta:   27   -12604.1486   -12604.1074   -12604.1837  0.0037 -3.8819
siesta:   28   -12604.1485   -12604.2202   -12604.2966  0.0025 -3.8825
siesta:   29   -12604.1485   -12604.2511   -12604.3276  0.0022 -3.8828
siesta:   30   -12604.1485   -12604.2253   -12604.3018  0.0012 -3.8834
siesta:   31   -12604.1485   -12604.2083   -12604.2847  0.0009 -3.8833
siesta:   32   -12604.1486   -12604.1978   -12604.2742  0.0006 -3.8836
siesta:   33   -12604.1485   -12604.1828   -12604.2592  0.0005 -3.8838
siesta:   34   -12604.1485   -12604.1740   -12604.2503  0.0003 -3.8839
siesta:   35   -12604.1485   -12604.1604   -12604.2368  0.0002 -3.8838
siesta:   36   -12604.1485   -12604.1567   -12604.2331  0.0002 -3.8838
siesta:   37   -12604.1485   -12604.1587   -12604.2351  0.0001 -3.8838

siesta: E_KS(eV) =           -12604.1587

siesta: E_KS - E_eggbox =    -12604.1587

siesta: Atomic forces (eV/Ang):
----------------------------------------
   Tot    0.026434   -0.120794    0.000000
----------------------------------------
   Max  779.343723
   Res  180.190887    sqrt( Sum f_i^2 / 3N )
----------------------------------------
   Max  779.343723    constrained

Stress-tensor-Voigt (kbar):     -650.84    -3255.39       -0.07      -13.10        0.00        0.00
(Free)E + p*V (eV/cell)   -11065.6120
Target enthalpy (eV/cell)   -12604.2350

siesta: Stress tensor (static) (eV/Ang**3):
        -0.406220   -0.008180    0.000000
        -0.008179   -2.031830    0.000000
         0.000000    0.000000   -0.000046

siesta: Pressure (static):       1302.10096502  kBar

siesta: Stress tensor (total) (eV/Ang**3):
        -0.406220   -0.008180    0.000000
        -0.008179   -2.031830    0.000000
         0.000000    0.000000   -0.000046

siesta: Pressure (total):       1302.10096502  kBar

siesta: Temp_ion =       0.000 K

* Maximum dynamic memory allocated =   199 MB
Computing bands...

siesta: Program's energy decomposition (eV):
siesta: Ebs     =     -5028.302399
siesta: Eions   =     21457.201110
siesta: Ena     =      4922.701105
siesta: Ekin    =     11116.449381
siesta: Enl     =     -1647.242875
siesta: DEna    =      -812.648130
siesta: DUscf   =       108.514216
siesta: DUext   =         0.000000
siesta: Exc     =     -4834.731238
siesta: eta*DQ  =         0.000000
siesta: Emadel  =         0.000000
siesta: Emeta   =         0.000000
siesta: Emolmec =         0.000000
siesta: Ekinion =         0.000000
siesta: Eharris =    -12604.148519
siesta: Etot    =    -12604.158652
siesta: FreeEng =    -12604.235046

siesta: Final energy (eV):
siesta:  Band Struct. =   -5028.302399
siesta:       Kinetic =   11116.449381
siesta:       Hartree =   36312.367180
siesta:    Ext. field =       0.000000
siesta:   Exch.-corr. =   -4834.731238
siesta:  Ion-electron =  -83268.214574
siesta:       Ion-ion =   28069.970599
siesta:       Ekinion =       0.000000
siesta:         Total =  -12604.158652

siesta: Atomic forces (eV/Ang):
siesta:      1    3.033221  109.222678    0.000000
siesta:      2  -26.108508 -751.604580    0.000000
siesta:      3  -24.900327    3.182144    0.000000
siesta:      4  -29.142344 -654.617845    0.000000
siesta:      5    7.755205 -122.876566    0.000000
siesta:      6    0.670064  779.343723    0.000000
siesta:      7  -34.391318   -1.878539    0.000000
siesta:      8    1.385330    3.395428    0.000000
siesta:      9    0.005520   -2.351214    0.000000
siesta:     10    2.767056   -0.290636    0.000000
siesta:     11   -1.198049    0.181784    0.000000
siesta:     12    0.853704   -5.302072    0.000000
siesta:     13   26.510266    2.734388    0.000000
siesta:     14    7.274362 -669.322113    0.000000
siesta:     15    1.885453   -0.643957    0.000000
siesta:     16   -0.839712   -3.343605    0.000000
siesta:     17    1.274318  122.784689    0.000000
siesta:     18    5.111217  115.509601    0.000000
siesta:     19   -9.934533 -647.926923    0.000000
siesta:     20   17.685882  552.223180    0.000000
siesta:     21   -3.303028 -120.325480    0.000000
siesta:     22   -0.597699  122.487057    0.000000
siesta:     23    2.972585 -554.520245    0.000000
siesta:     24   25.952332    9.441119    0.000000
siesta:     25   33.915465 -547.919310    0.000000
siesta:     26    1.115389    0.748483    0.000000
siesta:     27   -2.129745    0.779933    0.000000
siesta:     28    2.284170    2.425027    0.000000
siesta:     29   -1.635629    0.438893    0.000000
siesta:     30   16.033533  654.388638    0.000000
siesta:     31   -1.479054 -119.666904    0.000000
siesta:     32   33.559393  547.969883    0.000000
siesta:     33   26.142472   -5.362321    0.000000
siesta:     34   -2.958717   -2.212030    0.000000
siesta:     35    1.596888   -0.050314    0.000000
siesta:     36   -1.433222   -0.069001    0.000000
siesta:     37    1.649498   -2.269818    0.000000
siesta:     38    0.034558    7.475295    0.000000
siesta:     39   -0.401433   -7.179391    0.000000
siesta:     40  -20.987134  549.768350    0.000000
siesta:     41    1.300213 -118.407973    0.000000
siesta:     42  -20.852490  540.593344    0.000000
siesta:     43   11.611249  567.503687    0.000000
siesta:     44   25.953065   -1.659224    0.000000
siesta:     45   -1.728742    2.745714    0.000000
siesta:     46    0.312433    0.117311    0.000000
siesta:     47   -0.402722    0.535292    0.000000
siesta:     48   -0.456246   -0.308271    0.000000
siesta:     49  -21.840708  657.735249    0.000000
siesta:     50  -29.916373   -5.963422    0.000000
siesta:     51   16.438960  682.252213    0.000000
siesta:     52   -0.675695    1.158736    0.000000
siesta:     53    0.650302   -0.534441    0.000000
siesta:     54   -0.475579    0.703086    0.000000
siesta:     55    2.091965   -0.501830    0.000000
siesta:     56   -1.427121   -0.559140    0.000000
siesta:     57    0.638219    2.823118    0.000000
siesta:     58   -0.191543   -0.364687    0.000000
siesta:     59    0.550412   -0.259269    0.000000
siesta:     60    0.006486    0.306480    0.000000
siesta:     61   -0.197553    0.167541    0.000000
siesta:     62   -1.284967    0.520865    0.000000
siesta:     63   -0.231008    0.029099    0.000000
siesta:     64   -0.289128    0.801993    0.000000
siesta:     65    0.404177    1.005178    0.000000
siesta:     66   -0.262803   -0.807435    0.000000
siesta:     67  -17.618530 -577.619218    0.000000
siesta:     68   -1.540371   -0.626723    0.000000
siesta:     69    0.711658   -0.493288    0.000000
siesta:     70  -25.281445    4.974142    0.000000
siesta:     71   -7.640190 -575.272146    0.000000
siesta:     72   11.643074 -545.484207    0.000000
siesta: ----------------------------------------
siesta:    Tot    0.026434   -0.120794    0.000000

siesta: Stress tensor (static) (eV/Ang**3):
siesta:    -0.406220   -0.008180    0.000000
siesta:    -0.008179   -2.031830    0.000000
siesta:     0.000000    0.000000   -0.000046

siesta: Cell volume =       1893.226884 Ang**3

siesta: Pressure (static):
siesta:                Solid            Molecule  Units
siesta:           0.00885133          0.14285840  Ry/Bohr**3
siesta:           0.81269871         13.11677275  eV/Ang**3
siesta:        1302.10096502      21015.61396517  kBar
(Free)E+ p_basis*V_orbitals  =      -12576.213736
(Free)Eharris+ p_basis*V_orbitals  =      -12576.203525

siesta: Electric dipole (a.u.)  =    0.000000    0.000000    0.000000
siesta: Electric dipole (Debye) =    0.000000    0.000000    0.000000

* Maximum dynamic memory allocated : Node    0 =   199 MB
* Maximum dynamic memory allocated : Node    1 =    71 MB
* Maximum dynamic memory allocated : Node    2 =    73 MB
* Maximum dynamic memory allocated : Node    3 =   189 MB
* Maximum dynamic memory allocated : Node    4 =   188 MB
* Maximum dynamic memory allocated : Node    5 =    71 MB
* Maximum dynamic memory allocated : Node    6 =    73 MB
* Maximum dynamic memory allocated : Node    7 =   175 MB

* Maximum memory occured during matrixMtoO                    

timer: CPU execution times:
timer:  Routine       Calls   Time/call    Tot.time        %
timer:  siesta            1  156717.203  156717.203   100.00
timer:  Setup             1       3.033       3.033     0.00
timer:  bands             3     272.739     818.218     0.52
timer:  writewave         1       0.020       0.020     0.00
timer:  KSV_init          1       0.001       0.001     0.00
timer:  IterMD            1  155890.093  155890.093    99.47
timer:  hsparse           1       0.232       0.232     0.00
timer:  overlap           1       7.723       7.723     0.00
timer:  IterSCF          37    4208.821  155726.376    99.37
timer:  kinefsm           2       4.026       8.052     0.01
timer:  nlefsm            2      18.705      37.409     0.02
timer:  DHSCF            38      84.985    3229.440     2.06
timer:  DHSCF1            1       0.774       0.774     0.00
timer:  DHSCF2            1      33.013      33.013     0.02
timer:  REORD           306       0.011       3.360     0.00
timer:  POISON           39       2.483      96.854     0.06
timer:  DHSCF3           38      83.247    3163.402     2.02
timer:  rhoofd           38      16.948     644.007     0.41
timer:  cellXC           38       3.471     131.904     0.08
timer:  vmat             38      39.812    1512.866     0.97
timer:  MolMec            2       0.000       0.000     0.00
timer:  diagon           37    4122.524  152533.377    97.33
timer:  c-eigval       8668       6.769   58673.024    37.44
timer:  c-buildHS      8668       0.136    1177.509     0.75
timer:  cdiag         17215       6.943  119529.372    76.27
timer:  cdiag1        17215       0.432    7428.760     4.74
timer:  cdiag2        17215       1.926   33154.528    21.16
timer:  cdiag3        17215       3.985   68608.916    43.78
timer:  cdiag4        17215       0.208    3585.647     2.29
timer:  c-eigvec       8547       7.327   62627.020    39.96
timer:  c-buildD       8547       3.744   32004.178    20.42
timer:  DHSCF4            1      29.918      29.918     0.02
timer:  dfscf             1      28.121      28.121     0.02
timer:  overfsm           1       0.400       0.400     0.00
timer:  optical           1       5.113       5.113     0.00
  

elaps: ELAPSED times:
elaps:  Routine       Calls   Time/call    Tot.time        %
elaps:  siesta            1   19612.337   19612.337   100.00
elaps:  Setup             1       0.379       0.379     0.00
elaps:  bands             3      34.145     102.434     0.52
elaps:  writewave         1       0.002       0.002     0.00
elaps:  KSV_init          1       0.000       0.000     0.00
elaps:  IterMD            1   19508.849   19508.849    99.47
elaps:  hsparse           1       0.029       0.029     0.00
elaps:  overlap           1       0.970       0.970     0.00
elaps:  IterSCF          37     526.713   19488.368    99.37
elaps:  kinefsm           2       0.499       0.998     0.01
elaps:  nlefsm            2       2.383       4.767     0.02
elaps:  DHSCF            38      10.734     407.898     2.08
elaps:  DHSCF1            1       0.099       0.099     0.00
elaps:  DHSCF2            1       4.129       4.129     0.02
elaps:  REORD           306       0.002       0.462     0.00
elaps:  POISON           39       0.311      12.136     0.06
elaps:  DHSCF3           38      10.414     395.749     2.02
elaps:  rhoofd           38       4.547     172.790     0.88
elaps:  cellXC           38       0.434      16.484     0.08
elaps:  vmat             38       4.980     189.247     0.96
elaps:  MolMec            2       0.000       0.000     0.00
elaps:  diagon           37     515.939   19089.730    97.34
elaps:  c-eigval       8668       0.847    7341.256    37.43
elaps:  c-buildHS      8668       0.018     159.434     0.81
elaps:  cdiag         17215       0.856   14730.563    75.11
elaps:  cdiag1        17215       0.053     920.280     4.69
elaps:  cdiag2        17215       0.241    4148.655    21.15
elaps:  cdiag3        17215       0.499    8596.216    43.83
elaps:  cdiag4        17215       0.026     452.842     2.31
elaps:  c-eigvec       8547       0.895    7649.229    39.00
elaps:  c-buildD       8547       0.491    4194.328    21.39
elaps:  DHSCF4            1       7.589       7.589     0.04
elaps:  dfscf             1       7.207       7.207     0.04
elaps:  overfsm           1       0.053       0.053     0.00
elaps:  optical           1       0.000       0.000     0.00
  
>> End of run:   2-MAY-2016  13:55:23
